INSANE! Membrane UpperLeaflet>loPI:POPI:DPPI:PYPI:ERGO=30.0:5.0:3.0:2.0:10.0 LowerLeaflet>PSPI:POPI:POPS:YOPS:POPE:YOPE:POPC:YOPC:ERGO=6.0:14.0:21.0:9.0:9.0:21.0:12.0:48.0:60.0
49074
    1loPI    C1    1  17.175   9.341  10.257  0.1139 -0.0547  0.2237
    1loPI    C2    2  16.942   9.612  10.439 -0.0788 -0.0726  0.0084
    1loPI    C3    3  16.862   9.222  10.475 -0.1115 -0.0769 -0.1044
    1loPI   PO4    4  17.155   9.498   9.960  0.0155  0.1243  0.3000
    1loPI   GL1    5  17.527   9.539   9.593 -0.1884  0.1654  0.4966
    1loPI   GL2    6  17.827   9.499   9.702 -0.0866 -0.0192 -0.3909
    1loPI   C1A    7  17.555   9.205   9.191  0.3549 -0.2200  0.2774
    1loPI   C2A    8  17.407   9.254   8.808  0.1030  0.0179 -0.2432
    1loPI   C3A    9  17.152   9.450   8.512  0.2168  0.2822 -0.0733
    1loPI   C4A   10  17.040   9.551   8.130  0.1442 -0.1812  0.3519
    1loPI   C5A   11  16.742   9.618   7.884 -0.0467 -0.0666 -0.0740
    1loPI   C6A   12  16.430   9.518   7.554 -0.0781  0.1521  0.3457
    1loPI   C1B   13  17.959   9.554   9.188  0.1664  0.0836  0.1489
    1loPI   C2B   14  17.954   9.393   8.744 -0.0288  0.1536  0.2365
    1loPI   C3B   15  18.126   9.443   8.344  0.3417  0.1373  0.1336
    1loPI   C4B   16  18.107   9.490   7.944 -0.1518  0.2363 -0.1466
    2loPI    C1   17   9.659   2.242  10.109 -0.1003  0.1133 -0.1427
    2loPI    C2   18   9.798   1.880  10.207 -0.0537  0.1844  0.0588
    2loPI    C3   19   9.983   2.208  10.342 -0.1424  0.2833 -0.0577
    2loPI   PO4   20   9.678   2.261   9.959 -0.0172 -0.3755  0.0841
    2loPI   GL1   21   9.450   2.339   9.647  0.1998  0.3472 -0.4168
    2loPI   GL2   22   9.197   2.264   9.339 -0.1181  0.1895  0.3719
    2loPI   C1A   23   9.677   2.216   9.205 -0.1204  0.0751 -0.1429
    2loPI   C2A   24   9.625   2.082   8.901 -0.1991  0.1635  0.2425
    2loPI   C3A   25   9.638   2.035   8.472  0.0506 -0.0698  0.0444
    2loPI   C4A   26   9.374   1.878   8.141  0.0757  0.1282  0.0884
    2loPI   C5A   27   9.252   2.185   7.797 -0.1288  0.2538 -0.0637
    2loPI   C6A   28   9.093   2.368   7.460 -0.0271 -0.1223  0.0867
    2loPI   C1B   29   9.173   2.248   8.862  0.2091  0.0620  0.0611
    2loPI   C2B   30   9.152   2.255   8.447 -0.0195 -0.1944 -0.1150
    2loPI   C3B   31   8.855   2.416   8.126 -0.0218 -0.0461 -0.1432
    2loPI   C4B   32   8.573   2.435   7.738  0.0383  0.1784  0.3519
    3loPI    C1   33  13.307  11.475   9.904 -0.0841  0.0265 -0.0143
    3loPI    C2   34  13.207  11.169  10.142  0.2313 -0.0678  0.0019
    3loPI    C3   35  13.189  11.544  10.280 -0.2002 -0.0708 -0.0322
    3loPI   PO4   36  13.529  11.303   9.811  0.3154 -0.0532  0.0072
    3loPI   GL1   37  13.601  11.215   9.347 -0.0683  0.1068 -0.3023
    3loPI   GL2   38  13.199  11.160   9.402  0.0559 -0.0154  0.0496
    3loPI   C1A   39  13.508  11.248   8.921  0.2542  0.2469  0.1698
    3loPI   C2A   40  13.637  11.139   8.525  0.1116  0.1417  0.0388
    3loPI   C3A   41  13.920  11.367   8.274 -0.1349 -0.4082 -0.1081
    3loPI   C4A   42  14.246  11.204   7.980 -0.0608  0.2601  0.1709
    3loPI   C5A   43  14.090  10.988   7.658  0.3301 -0.2947  0.1922
    3loPI   C6A   44  14.112  10.768   7.239 -0.3506  0.0904 -0.0086
    3loPI   C1B   45  13.020  11.234   8.903  0.0631  0.1548  0.1484
    3loPI   C2B   46  13.185  11.286   8.536  0.2470 -0.0456  0.1568
    3loPI   C3B   47  13.296  11.562   8.251 -0.1702 -0.2147 -0.2072
    3loPI   C4B   48  13.439  11.919   8.071 -0.1588  0.1063  0.0343
    4loPI    C1   49  13.405   6.625   9.832 -0.0757 -0.1695  0.0116
    4loPI    C2   50  13.371   6.430  10.180  0.3267  0.0407  0.1748
    4loPI    C3   51  13.061   6.639  10.036  0.0609 -0.2906  0.2542
    4loPI   PO4   52  13.503   6.397   9.712 -0.2463 -0.0756  0.2159
    4loPI   GL1   53  13.806   6.199   9.401  0.1774  0.4534  0.1113
    4loPI   GL2   54  14.026   6.336   9.419 -0.0201 -0.2397 -0.1015
    4loPI   C1A   55  13.878   5.912   9.030  0.1328  0.0574 -0.1692
    4loPI   C2A   56  13.852   5.859   8.603  0.2608 -0.0558 -0.0352
    4loPI   C3A   57  13.659   5.675   8.233  0.0613  0.0609 -0.3399
    4loPI   C4A   58  13.557   5.716   7.851  0.1585  0.1659 -0.0223
    4loPI   C5A   59  13.295   5.438   7.486 -0.1261 -0.3118  0.1117
    4loPI   C6A   60  13.016   5.214   7.608  0.1977  0.2335  0.0366
    4loPI   C1B   61  14.378   6.515   9.328 -0.1854 -0.0803  0.2241
    4loPI   C2B   62  14.643   6.681   8.922 -0.1618  0.1615  0.1968
    4loPI   C3B   63  14.928   6.805   8.537 -0.1398 -0.1637 -0.0086
    4loPI   C4B   64  15.119   6.532   8.223  0.0565 -0.0957 -0.1118
    5loPI    C1   65   7.007   5.435  10.045  0.0019  0.0335  0.0858
    5loPI    C2   66   7.056   5.294  10.417 -0.0606  0.0516  0.1012
    5loPI    C3   67   6.735   5.515  10.327  0.1122  0.3135  0.1164
    5loPI   PO4   68   7.053   5.194   9.899 -0.1694  0.0580  0.2287
    5loPI   GL1   69   7.133   5.097   9.536 -0.0013 -0.0628  0.0518
    5loPI   GL2   70   7.473   5.085   9.373  0.1609  0.1196  0.0542
    5loPI   C1A   71   6.944   4.865   9.176 -0.2836  0.0152 -0.1355
    5loPI   C2A   72   7.005   4.946   8.853 -0.1367  0.2982  0.1661
    5loPI   C3A   73   6.857   4.896   8.465  0.1980  0.3805 -0.0590
    5loPI   C4A   74   6.710   4.664   8.146  0.2169 -0.4608 -0.0610
    5loPI   C5A   75   6.550   4.202   7.957  0.1179 -0.3530 -0.2582
    5loPI   C6A   76   6.892   3.893   7.853 -0.1232 -0.0323  0.3208
    5loPI   C1B   77   7.449   5.108   8.986  0.0753 -0.1804 -0.1919
    5loPI   C2B   78   7.384   5.022   8.542 -0.2463 -0.0546 -0.0874
    5loPI   C3B   79   7.320   4.981   8.112  0.0462  0.2220  0.0284
    5loPI   C4B   80   7.163   4.763   7.715  0.1464  0.0605 -0.3583
    6loPI    C1   81  16.804  10.107  10.205 -0.0467 -0.1406 -0.1786
    6loPI    C2   82  16.969  10.110  10.569  0.2365 -0.2431 -0.3028
    6loPI    C3   83  16.580  10.026  10.526  0.1689 -0.0926 -0.0141
    6loPI   PO4   84  16.889   9.898  10.026  0.1397 -0.0848 -0.0113
    6loPI   GL1   85  16.674   9.885   9.665  0.3213  0.0327  0.1625
    6loPI   GL2   86  16.794   9.671   9.544 -0.1509 -0.0389 -0.1992
    6loPI   C1A   87  16.506   9.883   9.193 -0.1163 -0.2025 -0.1075
    6loPI   C2A   88  16.461  10.110   8.808  0.2244 -0.3853  0.0055
    6loPI   C3A   89  16.374  10.182   8.423 -0.1800  0.0585 -0.0458
    6loPI   C4A   90  16.294  10.365   7.999 -0.0629 -0.0761 -0.0933
    6loPI   C5A   91  16.044  10.586   7.622  0.2833 -0.3767 -0.1947
    6loPI   C6A   92  16.083  11.008   7.454 -0.0617  0.0702  0.1700
    6loPI   C1B   93  16.645   9.294   9.331  0.2089 -0.0656 -0.1849
    6loPI   C2B   94  16.771   9.173   8.844 -0.5998 -0.3241  0.0809
    6loPI   C3B   95  16.657   9.176   8.518  0.2617  0.0506 -0.0832
    6loPI   C4B   96  16.821   9.035   8.140  0.2073  0.1552 -0.0580
    7loPI    C1   97  15.054   1.942   9.650 -0.2474  0.1330  0.1451
    7loPI    C2   98  14.871   1.837   9.990  0.0257  0.1947  0.3140
    7loPI    C3   99  15.243   1.985  10.000  0.0905  0.0634 -0.0245
    7loPI   PO4  100  14.976   1.723   9.452  0.2068  0.1081 -0.5650
    7loPI   GL1  101  14.826   1.644   9.124  0.1973  0.4292  0.1223
    7loPI   GL2  102  14.613   1.761   8.967 -0.0166 -0.1735 -0.3706
    7loPI   C1A  103  15.012   1.599   8.717  0.0876  0.0229  0.0206
    7loPI   C2A  104  14.914   1.572   8.349  0.2527  0.2523 -0.0640
    7loPI   C3A  105  15.019   1.568   8.031 -0.0425 -0.2067 -0.0142
    7loPI   C4A  106  14.932   1.441   7.573  0.2230  0.1136 -0.0627
    7loPI   C5A  107  14.903   1.333   7.111 -0.2260 -0.2286  0.2023
    7loPI   C6A  108  14.961   1.343   6.653  0.1503  0.1392 -0.1353
    7loPI   C1B  109  14.514   1.755   8.593  0.0100 -0.1559 -0.0155
    7loPI   C2B  110  14.595   1.991   8.155  0.2276 -0.1260 -0.2069
    7loPI   C3B  111  14.760   1.921   7.653  0.1108 -0.0726  0.2832
    7loPI   C4B  112  14.576   1.923   7.238  0.3066 -0.4199 -0.0549
    8loPI    C1  113   3.824   8.345   9.922  0.0402 -0.0512 -0.0728
    8loPI    C2  114   3.488   8.178  10.061 -0.0872  0.2322 -0.0322
    8loPI    C3  115   3.577   8.556  10.155 -0.0176  0.3290 -0.4651
    8loPI   PO4  116   3.916   8.312   9.743  0.1619  0.0440  0.4150
    8loPI   GL1  117   3.756   8.144   9.376 -0.3637  0.1873 -0.2339
    8loPI   GL2  118   3.505   8.008   9.298  0.2610  0.0195  0.1300
    8loPI   C1A  119   3.915   7.842   9.095  0.2447  0.1193  0.0009
    8loPI   C2A  120   3.965   7.847   8.651  0.3046  0.0105 -0.1877
    8loPI   C3A  121   4.031   7.545   8.417  0.1420  0.0189  0.0183
    8loPI   C4A  122   3.965   7.400   7.960 -0.0234 -0.1235 -0.0840
    8loPI   C5A  123   4.175   7.246   7.574 -0.0696  0.0942  0.3116
    8loPI   C6A  124   4.213   6.999   7.203 -0.0745  0.0743 -0.1405
    8loPI   C1B  125   3.482   7.840   8.869 -0.0219  0.1073  0.0420
    8loPI   C2B  126   3.466   7.778   8.486 -0.1579  0.6201 -0.4006
    8loPI   C3B  127   3.729   7.831   8.150  0.0491 -0.1801 -0.0476
    8loPI   C4B  128   3.804   7.770   7.680 -0.0737  0.0298  0.1864
    9loPI    C1  129   7.275   2.773   9.937 -0.2448 -0.0791  0.0415
    9loPI    C2  130   7.611   2.961  10.045 -0.0462 -0.2980 -0.1808
    9loPI    C3  131   7.342   2.857  10.322  0.0704 -0.1266 -0.0005
    9loPI   PO4  132   7.307   2.770   9.638  0.2651 -0.0377 -0.1023
    9loPI   GL1  133   7.056   2.721   9.271 -0.2014  0.0565  0.2630
    9loPI   GL2  134   7.181   2.372   9.244  0.2294  0.3783 -0.2015
    9loPI   C1A  135   6.969   2.703   8.803  0.1528  0.0245  0.0194
    9loPI   C2A  136   6.863   2.533   8.437 -0.1278 -0.2634 -0.4274
    9loPI   C3A  137   6.759   2.680   8.029  0.2157 -0.0555 -0.0087
    9loPI   C4A  138   6.791   3.144   7.911 -0.3500  0.1545 -0.0265
    9loPI   C5A  139   7.043   3.407   7.927  0.2044  0.1551  0.3379
    9loPI   C6A  140   7.516   3.398   7.723  0.1329  0.2954  0.1107
    9loPI   C1B  141   7.188   2.254   8.863  0.1638 -0.2332 -0.1860
    9loPI   C2B  142   7.352   2.507   8.409  0.0088 -0.3274  0.0926
    9loPI   C3B  143   7.654   2.716   8.089 -0.0850  0.3693 -0.1151
    9loPI   C4B  144   7.848   3.063   7.789 -0.1636  0.0952  0.1149
   10loPI    C1  145  11.714   9.531  10.036 -0.0101 -0.2644  0.0972
   10loPI    C2  146  11.793   9.548  10.428  0.0533  0.0911  0.0717
   10loPI    C3  147  12.086   9.466  10.168 -0.0123 -0.2626  0.1042
   10loPI   PO4  148  11.636   9.738   9.934 -0.0630  0.1354 -0.3948
   10loPI   GL1  149  11.718   9.702   9.505  0.0951  0.0367  0.0404
   10loPI   GL2  150  11.898   9.974   9.246  0.0745  0.0507 -0.0137
   10loPI   C1A  151  11.506   9.534   9.078  0.1124  0.2826  0.1216
   10loPI   C2A  152  11.452   9.622   8.714 -0.0085 -0.0782 -0.2500
   10loPI   C3A  153  11.454   9.611   8.332  0.0637 -0.0299 -0.0398
   10loPI   C4A  154  11.593   9.621   7.888  0.0627 -0.0141  0.2190
   10loPI   C5A  155  11.684   9.667   7.383  0.4777 -0.0683 -0.3955
   10loPI   C6A  156  12.065   9.764   7.240 -0.2436 -0.2269 -0.2190
   10loPI   C1B  157  11.888   9.944   8.769 -0.2171  0.0109  0.1693
   10loPI   C2B  158  11.775   9.988   8.493 -0.1946  0.0704 -0.0627
   10loPI   C3B  159  11.716  10.004   8.162  0.0835  0.0583 -0.0912
   10loPI   C4B  160  11.706  10.078   7.682 -0.2602  0.0041  0.1307
   11loPI    C1  161   7.596   9.766   9.921 -0.2078  0.0572 -0.1694
   11loPI    C2  162   7.853   9.539  10.127 -0.1805  0.0896 -0.1678
   11loPI    C3  163   7.469   9.555  10.237 -0.1549  0.1494 -0.0861
   11loPI   PO4  164   7.864   9.991   9.847  0.2035 -0.2308  0.0870
   11loPI   GL1  165   8.033  10.161   9.514 -0.0066 -0.1054  0.0771
   11loPI   GL2  166   7.875  10.427   9.472 -0.0400  0.1765  0.0387
   11loPI   C1A  167   8.084  10.240   9.060  0.2533  0.0352 -0.2438
   11loPI   C2A  168   8.046  10.579   8.704  0.1407 -0.2882  0.1345
   11loPI   C3A  169   8.275  10.868   8.426  0.0341  0.0143 -0.0690
   11loPI   C4A  170   8.454  11.083   8.051 -0.3022  0.5339 -0.5883
   11loPI   C5A  171   8.576  11.183   7.651  0.0524 -0.0052  0.0556
   11loPI   C6A  172   8.727  11.452   7.356  0.4516  0.1360  0.0945
   11loPI   C1B  173   8.125  10.673   9.289 -0.4722 -0.2238 -0.0567
   11loPI   C2B  174   8.406  10.850   8.946  0.0913  0.1449 -0.2863
   11loPI   C3B  175   8.527  11.150   8.751 -0.0560 -0.1957 -0.0660
   11loPI   C4B  176   8.857  11.127   8.502 -0.2461  0.0994  0.2644
   12loPI    C1  177  12.866   8.902   9.885  0.2823 -0.3053 -0.1312
   12loPI    C2  178  12.666   9.042  10.202 -0.0528 -0.2858 -0.3464
   12loPI    C3  179  13.006   8.838  10.254  0.1111  0.0634  0.0033
   12loPI   PO4  180  12.970   9.144   9.761 -0.1367 -0.0445 -0.0385
   12loPI   GL1  181  13.025   9.258   9.306 -0.1330  0.1409 -0.0321
   12loPI   GL2  182  12.869   8.930   9.322 -0.3184 -0.1707  0.1324
   12loPI   C1A  183  12.915   9.407   8.955 -0.4158  0.1254  0.0397
   12loPI   C2A  184  12.977   9.512   8.465  0.3450 -0.3719 -0.0879
   12loPI   C3A  185  12.792   9.691   8.212  0.1640 -0.2907  0.2118
   12loPI   C4A  186  12.472   9.546   7.933 -0.1356 -0.0428 -0.0529
   12loPI   C5A  187  12.427   9.318   7.527 -0.2443  0.1964 -0.0496
   12loPI   C6A  188  12.753   8.959   7.530 -0.2488 -0.0835 -0.1174
   12loPI   C1B  189  13.033   8.917   8.844  0.2385 -0.2759 -0.1520
   12loPI   C2B  190  13.078   9.040   8.441  0.2452 -0.0424  0.0813
   12loPI   C3B  191  12.906   9.028   8.015  0.1110 -0.1739  0.1537
   12loPI   C4B  192  12.859   9.409   7.723 -0.3339 -0.1888 -0.1083
   13loPI    C1  193  10.928  13.571  10.154  0.1322  0.0728 -0.3672
   13loPI    C2  194  11.309  13.507  10.051  0.2298 -0.0554  0.0501
   13loPI    C3  195  11.178  13.395  10.412 -0.1853  0.0612 -0.0579
   13loPI   PO4  196  10.783  13.445   9.918  0.1467 -0.2281 -0.0880
   13loPI   GL1  197  10.504  13.347   9.651  0.1169  0.0813 -0.0330
   13loPI   GL2  198  10.585  13.689   9.465  0.1498  0.0683  0.0677
   13loPI   C1A  199  10.639  13.125   9.265  0.0791 -0.1453  0.1878
   13loPI   C2A  200  10.823  13.192   8.857 -0.0266  0.0353 -0.1849
   13loPI   C3A  201  10.672  13.093   8.444  0.0901 -0.0861  0.0115
   13loPI   C4A  202  10.648  13.030   8.046  0.1185  0.3060  0.3501
   13loPI   C5A  203  10.533  13.345   7.654 -0.5124  0.0376 -0.0515
   13loPI   C6A  204  10.774  13.377   7.310  0.0054  0.3958 -0.0124
   13loPI   C1B  205  10.527  13.530   9.044 -0.0802  0.0021  0.1723
   13loPI   C2B  206  10.261  13.304   8.771  0.2361 -0.0717  0.1776
   13loPI   C3B  207  10.210  13.348   8.249 -0.3357  0.0987 -0.0224
   13loPI   C4B  208  10.091  13.081   7.868 -0.0208  0.2895 -0.3963
   14loPI    C1  209  17.963  14.023  10.334  0.2003 -0.3658  0.0763
   14loPI    C2  210  18.216  14.085  10.637  0.0196 -0.1876  0.1927
   14loPI    C3  211  17.841  14.224  10.657  0.0315 -0.0967 -0.1495
   14loPI   PO4  212  17.883  14.190  10.087 -0.0608 -0.0978  0.0129
   14loPI   GL1  213  17.845  14.269   9.645  0.1506 -0.1193  0.0687
   14loPI   GL2  214  18.155  14.330   9.689  0.0372 -0.0651 -0.2677
   14loPI   C1A  215  17.758  14.684   9.432  0.1798  0.1093  0.3145
   14loPI   C2A  216  17.783  14.890   8.999  0.2031 -0.4282 -0.2342
   14loPI   C3A  217  17.736  14.984   8.619  0.0993 -0.1305 -0.1437
   14loPI   C4A  218  17.725  14.785   8.249 -0.3468 -0.0006  0.5386
   14loPI   C5A  219  17.739  14.934   7.792  0.1325 -0.0476 -0.2595
   14loPI   C6A  220  17.429  14.978   7.491 -0.1642 -0.0817 -0.1025
   14loPI   C1B  221  18.118  14.273   9.173 -0.2743 -0.1689  0.2734
   14loPI   C2B  222  18.126  14.269   8.775  0.0405 -0.0595 -0.0689
   14loPI   C3B  223  17.887  14.305   8.343  0.0581  0.0141  0.2791
   14loPI   C4B  224  17.930  14.318   7.843  0.1727  0.2221  0.3614
   15loPI    C1  225   1.967   1.781  10.667 -0.1991  0.2250  0.0248
   15loPI    C2  226   2.353   1.866  10.727 -0.0962 -0.1702 -0.0432
   15loPI    C3  227   2.130   1.723  11.027 -0.1976  0.0741  0.0007
   15loPI   PO4  228   2.001   1.589  10.358  0.0330 -0.1947 -0.3638
   15loPI   GL1  229   2.241   1.675  10.027  0.0785 -0.5732  0.3217
   15loPI   GL2  230   1.993   1.682   9.738  0.1657 -0.1143  0.3462
   15loPI   C1A  231   2.468   1.653   9.577 -0.2325  0.1927 -0.0228
   15loPI   C2A  232   2.365   1.567   9.238 -0.0195 -0.0475 -0.1306
   15loPI   C3A  233   2.211   1.631   8.906  0.2462  0.1913 -0.2147
   15loPI   C4A  234   2.060   1.467   8.467 -0.1563  0.0428  0.0467
   15loPI   C5A  235   1.929   1.613   8.088 -0.0664  0.1106  0.0265
   15loPI   C6A  236   2.076   1.982   7.827  0.1681  0.1724 -0.2680
   15loPI   C1B  237   1.903   1.514   9.396 -0.0347  0.0638 -0.0477
   15loPI   C2B  238   1.701   1.479   9.026  0.1381 -0.0714  0.2898
   15loPI   C3B  239   1.711   1.118   8.815 -0.0573  0.2284  0.0638
   15loPI   C4B  240   1.852   0.944   8.388 -0.2669 -0.5119 -0.0059
   16loPI    C1  241  16.611   2.481  10.041  0.2930 -0.0110  0.3978
   16loPI    C2  242  16.450   2.165  10.227  0.0793 -0.1239  0.0316
   16loPI    C3  243  16.415   2.530  10.386 -0.1454 -0.2103  0.1855
   16loPI   PO4  244  16.781   2.291   9.800 -0.2710  0.0657  0.0090
   16loPI   GL1  245  17.060   2.344   9.423  0.0920 -0.0653 -0.0571
   16loPI   GL2  246  17.109   2.661   9.389  0.1946  0.0205 -0.1088
   16loPI   C1A  247  16.991   2.085   9.093 -0.0258 -0.1713  0.1025
   16loPI   C2A  248  17.009   2.119   8.714 -0.2320 -0.0025  0.1395
   16loPI   C3A  249  16.957   2.225   8.206 -0.0896 -0.1465 -0.2326
   16loPI   C4A  250  16.987   2.026   7.911  0.1185  0.1234 -0.0337
   16loPI   C5A  251  17.119   1.833   7.531 -0.0185  0.0105  0.0084
   16loPI   C6A  252  17.271   2.061   7.290 -0.0005 -0.1851  0.2582
   16loPI   C1B  253  17.136   2.562   8.994 -0.1716 -0.1446  0.1287
   16loPI   C2B  254  17.194   2.516   8.503 -0.0329 -0.1899  0.2793
   16loPI   C3B  255  17.349   2.745   8.166  0.2699  0.6024  0.1691
   16loPI   C4B  256  17.308   2.965   7.793  0.2412  0.1591 -0.3660
   17loPI    C1  257  12.967   5.235   9.972  0.3572 -0.1966 -0.0590
   17loPI    C2  258  13.048   5.615   9.875 -0.1891 -0.0109  0.1689
   17loPI    C3  259  13.044   5.503  10.259 -0.1959 -0.2099  0.1124
   17loPI   PO4  260  12.915   5.200   9.674 -0.0554  0.0243 -0.3710
   17loPI   GL1  261  13.198   5.094   9.356  0.1945  0.2164  0.0382
   17loPI   GL2  262  13.248   4.750   9.212 -0.1325  0.0260 -0.2325
   17loPI   C1A  263  13.313   5.199   8.953  0.1796 -0.0613 -0.0904
   17loPI   C2A  264  13.377   5.219   8.570  0.0466  0.1355 -0.0724
   17loPI   C3A  265  13.318   5.169   8.079  0.2894  0.0374 -0.0620
   17loPI   C4A  266  13.575   5.187   7.767  0.2259  0.0739  0.1710
   17loPI   C5A  267  13.792   5.380   7.499  0.0812  0.2963  0.0185
   17loPI   C6A  268  13.988   5.773   7.301  0.1988  0.3848 -0.2260
   17loPI   C1B  269  13.295   4.762   8.770  0.0051  0.0590  0.2147
   17loPI   C2B  270  13.202   4.739   8.384  0.2512 -0.1422  0.1041
   17loPI   C3B  271  12.985   4.719   8.063  0.1357  0.2113 -0.0157
   17loPI   C4B  272  13.095   4.669   7.706 -0.1538 -0.0911  0.1182
   18loPI    C1  273  15.880  12.721  10.290  0.0748 -0.1560  0.1321
   18loPI    C2  274  15.528  12.587  10.425 -0.0517  0.1783  0.1441
   18loPI    C3  275  15.722  12.875  10.623  0.0570  0.2447 -0.0561
   18loPI   PO4  276  16.077  12.581  10.091 -0.0468 -0.0128  0.2947
   18loPI   GL1  277  16.000  12.711   9.634  0.1369  0.0425  0.0989
   18loPI   GL2  278  16.336  12.697   9.589 -0.0959  0.1179 -0.1645
   18loPI   C1A  279  15.934  12.728   9.192 -0.2590 -0.3861 -0.0742
   18loPI   C2A  280  15.978  12.759   8.771  0.1545 -0.1763  0.2263
   18loPI   C3A  281  16.211  12.959   8.381  0.0064 -0.0767  0.0993
   18loPI   C4A  282  16.291  13.006   7.949  0.0986 -0.0379 -0.2505
   18loPI   C5A  283  16.470  13.070   7.480 -0.1459  0.1774  0.3009
   18loPI   C6A  284  16.441  13.074   7.032  0.2238 -0.3036 -0.0909
   18loPI   C1B  285  16.454  12.570   9.160  0.2990 -0.4463 -0.0779
   18loPI   C2B  286  16.651  12.594   8.730 -0.0505 -0.1647  0.0083
   18loPI   C3B  287  16.630  12.760   8.263 -0.0907  0.0231  0.0333
   18loPI   C4B  288  16.613  12.665   7.924 -0.0249  0.5289 -0.1423
   19loPI    C1  289  11.457  16.557   9.986 -0.0023 -0.4028 -0.0069
   19loPI    C2  290  11.796  16.599  10.193  0.0551 -0.0666 -0.1629
   19loPI    C3  291  11.453  16.526  10.384  0.1102  0.2169  0.0519
   19loPI   PO4  292  11.489  16.451   9.812 -0.0647 -0.1190 -0.2109
   19loPI   GL1  293  11.547  16.136   9.620 -0.0602  0.0159  0.0464
   19loPI   GL2  294  11.897  15.983   9.436  0.2486  0.5552  0.1538
   19loPI   C1A  295  11.314  16.176   9.251 -0.0618  0.0188  0.2272
   19loPI   C2A  296  11.284  16.168   8.823  0.0585  0.0214 -0.0480
   19loPI   C3A  297  11.318  16.201   8.460  0.3170 -0.1046 -0.2845
   19loPI   C4A  298  11.082  16.388   8.064 -0.0731  0.0751 -0.3082
   19loPI   C5A  299  10.829  16.451   7.851  0.3202 -0.0478  0.0827
   19loPI   C6A  300  10.522  16.414   7.539  0.0476 -0.1802  0.1060
   19loPI   C1B  301  11.604  15.698   9.230  0.0099  0.0383  0.0455
   19loPI   C2B  302  11.405  15.587   8.905  0.3941  0.1336  0.2655
   19loPI   C3B  303  11.419  15.585   8.473  0.2197  0.2482 -0.0606
   19loPI   C4B  304  11.351  15.681   8.088  0.1084 -0.0962 -0.0630
   20loPI    C1  305   1.202   6.782  10.027  0.0294  0.1361  0.1008
   20loPI    C2  306   0.816   6.722   9.942 -0.0036  0.0947  0.2751
   20loPI    C3  307   0.920   6.983  10.227  0.1047  0.2248  0.1188
   20loPI   PO4  308   1.341   6.778   9.786  0.2191 -0.1016  0.0950
   20loPI   GL1  309   1.634   6.902   9.572  0.0233 -0.1263  0.2161
   20loPI   GL2  310   1.836   6.731   9.263 -0.0420  0.1154  0.1289
   20loPI   C1A  311   1.804   7.230   9.145  0.4604 -0.3362  0.2311
   20loPI   C2A  312   1.765   7.298   8.676  0.2806 -0.0687 -0.2105
   20loPI   C3A  313   1.672   7.495   8.329  0.3032  0.1973 -0.4022
   20loPI   C4A  314   1.392   7.533   8.014 -0.2262 -0.0128 -0.1467
   20loPI   C5A  315   1.308   7.419   7.611  0.0974 -0.1384 -0.3072
   20loPI   C6A  316   1.196   7.373   7.203  0.1519 -0.3313  0.2393
   20loPI   C1B  317   1.928   6.525   8.890  0.0032  0.0384 -0.0605
   20loPI   C2B  318   1.784   6.350   8.497  0.1285  0.4615 -0.3432
   20loPI   C3B  319   1.482   6.540   8.119  0.2073 -0.1723 -0.1889
   20loPI   C4B  320   1.538   6.561   7.697  0.0597 -0.2683 -0.2703
   21loPI    C1  321   9.572   6.005   9.809  0.3350 -0.2010 -0.1012
   21loPI    C2  322   9.524   6.058  10.202  0.1594 -0.0002 -0.1476
   21loPI    C3  323   9.564   5.689  10.054 -0.0181 -0.0936  0.0323
   21loPI   PO4  324   9.662   6.224   9.671 -0.0409 -0.5148  0.1785
   21loPI   GL1  325   9.745   6.146   9.223 -0.1413  0.0133 -0.3851
   21loPI   GL2  326   9.914   6.310   9.145 -0.1756  0.0980  0.1483
   21loPI   C1A  327   9.428   6.337   8.996  0.0591  0.3035 -0.1861
   21loPI   C2A  328   9.385   6.387   8.595 -0.0399 -0.3191  0.0141
   21loPI   C3A  329   9.444   6.435   8.186  0.0694  0.0622 -0.1021
   21loPI   C4A  330   9.482   6.591   7.739 -0.1489 -0.2093  0.2906
   21loPI   C5A  331   9.852   6.527   7.361  0.2938  0.2476 -0.1352
   21loPI   C6A  332  10.105   6.842   7.171 -0.0568  0.5246  0.2504
   21loPI   C1B  333   9.826   6.557   8.722 -0.0763  0.0301 -0.3682
   21loPI   C2B  334   9.876   6.660   8.304  0.2720  0.2953 -0.1464
   21loPI   C3B  335   9.979   6.651   7.898 -0.4245 -0.0723 -0.0468
   21loPI   C4B  336   9.845   6.946   7.626  0.0786 -0.0659 -0.0248
   22loPI    C1  337   9.973  14.761  10.326 -0.0155 -0.1844  0.1470
   22loPI    C2  338   9.864  14.744   9.941  0.1733 -0.0306  0.0853
   22loPI    C3  339   9.588  14.806  10.224  0.0019 -0.3621 -0.0038
   22loPI   PO4  340  10.337  14.656  10.232 -0.3887  0.0334  0.1558
   22loPI   GL1  341  10.356  14.619   9.825  0.0658  0.1116 -0.0619
   22loPI   GL2  342  10.738  14.418   9.882 -0.2035  0.1549 -0.1814
   22loPI   C1A  343  10.157  14.682   9.491  0.0985  0.4565 -0.5014
   22loPI   C2A  344  10.123  14.698   9.160 -0.0535 -0.0406  0.1842
   22loPI   C3A  345  10.196  14.569   8.745  0.2875  0.0268  0.1530
   22loPI   C4A  346  10.343  14.451   8.349 -0.3092 -0.0971  0.0541
   22loPI   C5A  347  10.390  14.627   7.900 -0.1764  0.0339 -0.3924
   22loPI   C6A  348  10.713  14.887   7.716 -0.2090  0.1486  0.0474
   22loPI   C1B  349  10.639  14.326   9.453 -0.0029 -0.4207 -0.1166
   22loPI   C2B  350  10.573  14.383   9.000 -0.0006 -0.1896  0.0800
   22loPI   C3B  351  10.731  14.201   8.571 -0.0468  0.0074 -0.5759
   22loPI   C4B  352  10.967  14.423   8.193 -0.1307  0.1144  0.3667
   23loPI    C1  353   0.894  11.675   9.984 -0.0632  0.0650  0.2324
   23loPI    C2  354   1.217  11.477   9.854 -0.0845  0.1578  0.0336
   23loPI    C3  355   0.877  11.279   9.927 -0.1268  0.1287 -0.2331
   23loPI   PO4  356   0.884  11.823   9.756 -0.0790 -0.4160 -0.2202
   23loPI   GL1  357   1.030  11.843   9.361  0.1296 -0.0218  0.1300
   23loPI   GL2  358   1.463  11.839   9.335  0.3323 -0.4463 -0.3336
   23loPI   C1A  359   1.080  11.621   9.047  0.0567 -0.0654  0.2325
   23loPI   C2A  360   1.128  11.704   8.577 -0.0216 -0.2290  0.3598
   23loPI   C3A  361   1.004  11.813   8.126 -0.1192  0.0466  0.0507
   23loPI   C4A  362   1.130  11.719   7.751 -0.1773  0.0379 -0.4382
   23loPI   C5A  363   1.338  11.343   7.492  0.2471 -0.0544  0.0696
   23loPI   C6A  364   1.219  10.920   7.333  0.2569 -0.1017  0.1908
   23loPI   C1B  365   1.465  11.977   8.892  0.4250 -0.3385  0.2179
   23loPI   C2B  366   1.443  12.021   8.452  0.0387 -0.1177  0.1583
   23loPI   C3B  367   1.526  11.795   8.031  0.2376  0.3798  0.1371
   23loPI   C4B  368   1.706  11.399   7.932  0.0804  0.3847  0.1485
   24loPI    C1  369   8.361   6.567   9.753 -0.1927  0.1421  0.1391
   24loPI    C2  370   8.661   6.305   9.790 -0.3697 -0.0607  0.1540
   24loPI    C3  371   8.532   6.507  10.110 -0.0422  0.2624  0.0884
   24loPI   PO4  372   8.406   6.649   9.360 -0.1259 -0.0200  0.0804
   24loPI   GL1  373   8.184   6.776   9.012  0.0367 -0.0051 -0.0199
   24loPI   GL2  374   8.336   7.033   9.027  0.2766 -0.1663 -0.0013
   24loPI   C1A  375   7.947   7.087   8.720  0.3784 -0.2344  0.1497
   24loPI   C2A  376   7.769   7.134   8.330  0.0374 -0.0873 -0.2265
   24loPI   C3A  377   7.582   7.011   7.939  0.3200  0.1673 -0.1736
   24loPI   C4A  378   7.418   7.104   7.534 -0.0228  0.2507  0.1385
   24loPI   C5A  379   7.074   6.927   7.468  0.0596 -0.1628 -0.0954
   24loPI   C6A  380   6.717   6.684   7.520  0.1922  0.4533  0.0237
   24loPI   C1B  381   8.466   6.963   8.654  0.0424 -0.1491 -0.0294
   24loPI   C2B  382   8.288   6.849   8.228  0.1247  0.3222  0.0625
   24loPI   C3B  383   8.092   6.989   7.953 -0.2320  0.2636 -0.1127
   24loPI   C4B  384   7.861   6.875   7.524 -0.2788  0.1752 -0.1401
   25loPI    C1  385  16.686  13.632  10.312  0.0125  0.0916 -0.1666
   25loPI    C2  386  16.660  13.660  10.710 -0.0688 -0.1564 -0.1528
   25loPI    C3  387  17.009  13.569  10.538 -0.0634 -0.1802 -0.1292
   25loPI   PO4  388  16.478  13.424  10.208  0.0202 -0.0019  0.0146
   25loPI   GL1  389  16.362  13.502   9.708 -0.1833  0.3522  0.0074
   25loPI   GL2  390  16.289  13.740   9.651 -0.0770 -0.1326 -0.2017
   25loPI   C1A  391  16.401  13.101   9.307 -0.1614 -0.1102 -0.2045
   25loPI   C2A  392  16.420  13.012   8.895 -0.0858 -0.0252  0.1786
   25loPI   C3A  393  16.258  13.359   8.729 -0.0710 -0.0221  0.1213
   25loPI   C4A  394  16.127  13.486   8.256  0.0305 -0.0211 -0.1507
   25loPI   C5A  395  15.939  13.442   7.921 -0.1174  0.0481  0.0171
   25loPI   C6A  396  15.966  13.094   7.617 -0.2129  0.2629  0.1210
   25loPI   C1B  397  16.249  13.684   9.185  0.1770  0.2338  0.0061
   25loPI   C2B  398  16.189  13.822   8.697 -0.4250  0.1718  0.0297
   25loPI   C3B  399  16.010  13.966   8.326  0.2137 -0.0215  0.5376
   25loPI   C4B  400  16.006  14.219   7.973 -0.2909  0.0395 -0.1653
   26loPI    C1  401  15.847  11.789   9.898 -0.1144 -0.1468  0.1461
   26loPI    C2  402  16.095  12.060  10.054 -0.1795 -0.0009 -0.0013
   26loPI    C3  403  16.023  11.719  10.250  0.3680 -0.1791 -0.0932
   26loPI   PO4  404  15.641  11.936   9.853 -0.0735  0.0495  0.2863
   26loPI   GL1  405  15.419  12.005   9.495  0.0589 -0.1133 -0.0809
   26loPI   GL2  406  15.224  12.199   9.619  0.0494  0.0145 -0.1131
   26loPI   C1A  407  15.646  12.366   9.310  0.2206 -0.1004  0.2269
   26loPI   C2A  408  15.612  12.408   8.881  0.1601  0.1127  0.0775
   26loPI   C3A  409  15.839  12.347   8.470  0.1773  0.4070  0.1384
   26loPI   C4A  410  15.697  12.338   7.971 -0.3473  0.0478  0.2433
   26loPI   C5A  411  15.592  12.164   7.592 -0.0284  0.1477  0.2473
   26loPI   C6A  412  15.353  12.086   7.176  0.0251 -0.0931  0.1643
   26loPI   C1B  413  15.162  12.146   9.063  0.0295  0.0923 -0.0245
   26loPI   C2B  414  15.208  12.182   8.581 -0.3417 -0.3004  0.0776
   26loPI   C3B  415  15.165  12.250   8.092 -0.2360  0.3211 -0.4233
   26loPI   C4B  416  15.066  12.166   7.575 -0.0304  0.3008  0.1114
   27loPI    C1  417   5.211   5.453   9.914  0.0987 -0.1732  0.0107
   27loPI    C2  418   5.127   5.508  10.302  0.1601  0.0171 -0.0022
   27loPI    C3  419   5.336   5.187  10.186 -0.0141 -0.1353  0.1007
   27loPI   PO4  420   5.149   5.648   9.825 -0.0837 -0.2004 -0.2703
   27loPI   GL1  421   5.408   5.769   9.572  0.0224  0.1989  0.3466
   27loPI   GL2  422   4.992   5.854   9.369 -0.0543  0.0301 -0.0815
   27loPI   C1A  423   5.413   5.815   9.146 -0.1116 -0.2190 -0.1330
   27loPI   C2A  424   5.586   5.949   8.776  0.2460  0.1272 -0.2279
   27loPI   C3A  425   5.913   6.046   8.476 -0.2579  0.6150 -0.0372
   27loPI   C4A  426   5.840   6.136   8.148  0.2179  0.0034  0.3563
   27loPI   C5A  427   5.763   6.137   7.719 -0.0987 -0.0761 -0.1019
   27loPI   C6A  428   5.670   5.862   7.318  0.3439 -0.1639  0.0729
   27loPI   C1B  429   5.010   5.938   8.903 -0.1935 -0.0487 -0.0176
   27loPI   C2B  430   5.054   6.035   8.396 -0.0135 -0.1273  0.5608
   27loPI   C3B  431   5.032   6.158   7.922  0.0625 -0.1944 -0.0547
   27loPI   C4B  432   5.379   6.195   7.489  0.1314  0.2079  0.2467
   28loPI    C1  433   4.158  16.235  10.083 -0.1000  0.0646  0.0951
   28loPI    C2  434   3.791  16.236   9.924 -0.0505  0.0905 -0.0198
   28loPI    C3  435   3.861  16.036  10.264 -0.1903  0.1570  0.0490
   28loPI   PO4  436   4.273  16.403   9.839 -0.0079 -0.0788 -0.3237
   28loPI   GL1  437   4.492  16.488   9.421 -0.1608 -0.4598  0.0323
   28loPI   GL2  438   4.698  16.545   9.551  0.3252  0.1880  0.4439
   28loPI   C1A  439   4.424  16.597   9.145 -0.0986  0.1628 -0.1728
   28loPI   C2A  440   4.424  16.836   8.808  0.0204 -0.2849  0.0544
   28loPI   C3A  441   4.378  16.939   8.361 -0.4516  0.0097  0.0954
   28loPI   C4A  442   4.297  16.766   7.893  0.1176 -0.0818 -0.0206
   28loPI   C5A  443   4.421  16.802   7.455 -0.1136 -0.0804 -0.0839
   28loPI   C6A  444   4.689  16.694   7.057  0.0685 -0.0686 -0.1026
   28loPI   C1B  445   4.955  16.792   9.289 -0.2346  0.0029  0.3646
   28loPI   C2B  446   5.162  17.038   8.989  0.0172 -0.2300 -0.2235
   28loPI   C3B  447   4.859  17.010   8.617 -0.0873 -0.1753 -0.3483
   28loPI   C4B  448   5.045  17.066   8.226  0.3004 -0.0781  0.2832
   29loPI    C1  449   0.349   1.588  10.714 -0.0980  0.0233 -0.0668
   29loPI    C2  450   0.571   1.393  10.985  0.0547  0.1417 -0.1056
   29loPI    C3  451   0.227   1.565  11.094  0.1209  0.1977  0.0162
   29loPI   PO4  452   0.230   1.444  10.346 -0.2454  0.0810 -0.1156
   29loPI   GL1  453   0.209   1.560   9.921  0.4299 -0.4887 -0.0155
   29loPI   GL2  454   0.462   1.435   9.866  0.0517  0.0917 -0.0514
   29loPI   C1A  455   0.040   1.860   9.621 -0.0795  0.2840  0.0063
   29loPI   C2A  456  -0.190   2.126   9.332  0.1416 -0.1944  0.2464
   29loPI   C3A  457  -0.275   2.164   8.860 -0.0666  0.0906  0.0641
   29loPI   C4A  458  -0.159   2.322   8.463 -0.0018  0.2992  0.0055
   29loPI   C5A  459   0.163   2.229   8.121  0.2911  0.2665 -0.0619
   29loPI   C6A  460   0.424   2.140   7.844 -0.0513 -0.6014 -0.1273
   29loPI   C1B  461   0.416   1.400   9.412 -0.1427 -0.1338  0.0809
   29loPI   C2B  462   0.378   1.601   9.052 -0.1134 -0.2557  0.2765
   29loPI   C3B  463   0.611   1.582   8.686  0.1210 -0.0445 -0.2138
   29loPI   C4B  464   0.910   1.495   8.291 -0.1057 -0.0741  0.1008
   30loPI    C1  465  16.223   3.998  10.056  0.0371 -0.0477 -0.0523
   30loPI    C2  466  15.865   3.853  10.158  0.1295 -0.1031  0.1995
   30loPI    C3  467  16.038   4.135  10.382  0.1354  0.1018 -0.0583
   30loPI   PO4  468  16.266   3.972   9.677 -0.1203 -0.2289  0.2811
   30loPI   GL1  469  16.003   4.109   9.348  0.0384 -0.0908 -0.1498
   30loPI   GL2  470  16.066   3.837   9.098 -0.1092  0.1019 -0.0902
   30loPI   C1A  471  15.839   4.250   8.976 -0.3570 -0.0415  0.1629
   30loPI   C2A  472  15.538   4.356   8.576 -0.1872  0.0042 -0.1471
   30loPI   C3A  473  15.400   4.200   8.346  0.0866  0.0386  0.2930
   30loPI   C4A  474  15.360   4.232   7.894  0.0766  0.1335  0.1429
   30loPI   C5A  475  14.949   4.210   7.626 -0.0163 -0.2521  0.3440
   30loPI   C6A  476  14.675   4.310   7.250 -0.2511  0.0899 -0.3935
   30loPI   C1B  477  15.973   3.856   8.670  0.3973  0.0925  0.0683
   30loPI   C2B  478  15.838   3.991   8.281 -0.3215  0.0314  0.4103
   30loPI   C3B  479  15.894   4.351   8.083 -0.0141 -0.0648 -0.0010
   30loPI   C4B  480  15.692   4.703   8.171 -0.3847 -0.0212  0.1794
   31loPI    C1  481  18.459  18.532  10.151  0.0781 -0.0704  0.1713
   31loPI    C2  482  18.312  18.202   9.980 -0.1275  0.0365  0.1388
   31loPI    C3  483  18.096  18.399  10.253  0.0556  0.0625  0.2669
   31loPI   PO4  484  18.590  18.668   9.962 -0.2005  0.0880  0.1069
   31loPI   GL1  485  18.390  18.529   9.604 -0.2015  0.0185  0.0293
   31loPI   GL2  486  18.436  18.764   9.370  0.0284 -0.1208  0.2242
   31loPI   C1A  487  18.563  18.315   9.207 -0.0349  0.0750 -0.1903
   31loPI   C2A  488  18.463  18.024   8.863 -0.1396 -0.0481 -0.3020
   31loPI   C3A  489  18.325  17.948   8.422  0.1655  0.2138 -0.0581
   31loPI   C4A  490  18.397  17.797   7.951 -0.2575 -0.2715  0.2240
   31loPI   C5A  491  18.320  17.959   7.612 -0.1048  0.0765 -0.2128
   31loPI   C6A  492  18.287  17.942   7.228  0.1496  0.2879  0.4292
   31loPI   C1B  493  18.591  19.028   9.077 -0.2621  0.2783  0.2211
   31loPI   C2B  494  18.888  19.124   8.692 -0.0578 -0.0799 -0.2600
   31loPI   C3B  495  19.016  18.922   8.322  0.1010  0.2712  0.3174
   31loPI   C4B  496  18.973  18.588   8.077 -0.0343 -0.1227  0.3389
   32loPI    C1  497  16.160   5.589  10.076 -0.2902 -0.1553  0.1465
   32loPI    C2  498  15.903   5.566  10.381 -0.4434  0.0348  0.0344
   32loPI    C3  499  15.965   5.916  10.198  0.0819  0.0460  0.2162
   32loPI   PO4  500  16.090   5.448   9.924  0.2798  0.3045  0.2098
   32loPI   GL1  501  16.154   5.430   9.509  0.2316 -0.0276  0.3169
   32loPI   GL2  502  15.995   5.402   9.170 -0.2213 -0.1894 -0.2882
   32loPI   C1A  503  16.277   5.854   9.170 -0.0053  0.2799  0.0976
   32loPI   C2A  504  16.294   5.977   8.818  0.1440  0.0901  0.1050
   32loPI   C3A  505  16.122   6.015   8.448 -0.0520 -0.4085 -0.1809
   32loPI   C4A  506  16.180   6.292   8.009 -0.0352  0.0606  0.0519
   32loPI   C5A  507  15.997   6.332   7.613  0.0501  0.0789  0.2413
   32loPI   C6A  508  15.970   6.466   7.164  0.3620 -0.0162 -0.1935
   32loPI   C1B  509  16.295   5.036   9.293  0.0513 -0.0455  0.2984
   32loPI   C2B  510  16.594   4.825   9.173  0.2133  0.0166 -0.2520
   32loPI   C3B  511  16.726   4.624   8.825  0.1900 -0.0327  0.0009
   32loPI   C4B  512  16.716   4.415   8.453  0.0626  0.3456 -0.2474
   33loPI    C1  513   0.531  12.196   9.802  0.0719 -0.1004  0.0687
   33loPI    C2  514   0.791  12.296   9.515 -0.0136 -0.4601 -0.1405
   33loPI    C3  515   0.897  12.327   9.900  0.0592  0.1450 -0.1988
   33loPI   PO4  516   0.251  12.269   9.730 -0.1068  0.0417 -0.0041
   33loPI   GL1  517  -0.020  11.986   9.391  0.3609 -0.0746 -0.0892
   33loPI   GL2  518  -0.212  12.334   9.307 -0.0656 -0.3713  0.3795
   33loPI   C1A  519   0.108  11.868   8.928  0.2500 -0.3918  0.4171
   33loPI   C2A  520   0.053  11.788   8.597 -0.0554  0.1492 -0.0757
   33loPI   C3A  521  -0.113  11.752   8.242 -0.0706 -0.0978  0.2355
   33loPI   C4A  522  -0.088  11.736   7.812 -0.2806 -0.4712 -0.0243
   33loPI   C5A  523  -0.260  11.547   7.518  0.2009 -0.1307  0.0631
   33loPI   C6A  524  -0.123  11.171   7.214  0.1117 -0.0105 -0.1929
   33loPI   C1B  525  -0.216  12.298   8.884  0.0424 -0.0473 -0.0312
   33loPI   C2B  526  -0.109  12.244   8.485  0.0061 -0.2586 -0.2718
   33loPI   C3B  527  -0.381  12.205   8.174 -0.1567  0.2364 -0.1002
   33loPI   C4B  528  -0.496  12.046   7.796  0.0780 -0.1931 -0.1219
   34loPI    C1  529   5.603  15.733   9.839 -0.1662 -0.0651  0.0909
   34loPI    C2  530   5.842  15.587  10.124 -0.0400  0.1777  0.1123
   34loPI    C3  531   5.614  15.908  10.199 -0.1508  0.1263 -0.0009
   34loPI   PO4  532   5.758  15.703   9.648 -0.1486 -0.0425  0.1028
   34loPI   GL1  533   5.817  15.564   9.233 -0.0687 -0.0728 -0.1585
   34loPI   GL2  534   5.442  15.268   9.342 -0.0759  0.1629 -0.0928
   34loPI   C1A  535   5.660  15.574   8.869 -0.2863 -0.1126  0.2122
   34loPI   C2A  536   5.577  15.637   8.450  0.0442 -0.0611 -0.3698
   34loPI   C3A  537   5.578  15.557   7.917 -0.0949 -0.2212 -0.1416
   34loPI   C4A  538   5.620  15.858   7.614 -0.4450 -0.0522 -0.2149
   34loPI   C5A  539   5.947  15.832   7.207  0.1592 -0.0220  0.0074
   34loPI   C6A  540   6.357  15.826   7.160 -0.1164  0.0427 -0.0682
   34loPI   C1B  541   5.082  15.490   9.085 -0.0502 -0.1351  0.1662
   34loPI   C2B  542   5.086  15.562   8.577  0.0067  0.2302  0.1591
   34loPI   C3B  543   5.115  15.676   8.310  0.0827 -0.0921  0.0916
   34loPI   C4B  544   5.078  15.850   7.943 -0.1002 -0.4644  0.2633
   35loPI    C1  545  11.660  10.851  10.178 -0.1029  0.1370  0.0063
   35loPI    C2  546  12.037  10.974  10.228 -0.0785  0.0825 -0.0415
   35loPI    C3  547  11.810  10.889  10.547  0.0187 -0.0936 -0.0174
   35loPI   PO4  548  11.669  10.698   9.932 -0.1458 -0.0834  0.1117
   35loPI   GL1  549  11.390  10.586   9.691 -0.2789  0.0929  0.0711
   35loPI   GL2  550  11.326  10.262   9.565 -0.1295  0.0370  0.0941
   35loPI   C1A  551  11.265  10.695   9.315  0.5616  0.1287  0.0461
   35loPI   C2A  552  11.272  10.756   8.803  0.0711 -0.0922 -0.2168
   35loPI   C3A  553  11.301  10.719   8.333  0.2665 -0.2494  0.0621
   35loPI   C4A  554  11.314  10.969   7.939 -0.1257 -0.1307 -0.1698
   35loPI   C5A  555  11.140  10.946   7.586 -0.0884  0.1762  0.2883
   35loPI   C6A  556  10.809  10.756   7.396 -0.0469  0.0063 -0.3093
   35loPI   C1B  557  11.434  10.125   9.063 -0.3842 -0.1548  0.2380
   35loPI   C2B  558  11.372  10.188   8.676 -0.0936 -0.1582 -0.0160
   35loPI   C3B  559  11.232  10.281   8.240  0.0231  0.5214  0.0651
   35loPI   C4B  560  11.270   9.989   7.872 -0.0074 -0.2896 -0.2860
   36loPI    C1  561  12.919  18.112   9.809  0.0716 -0.1543  0.1708
   36loPI    C2  562  13.183  17.854   9.964  0.1676 -0.0599  0.1659
   36loPI    C3  563  12.937  18.057  10.205  0.2004 -0.0391  0.1819
   36loPI   PO4  564  12.752  17.991   9.567 -0.0241 -0.0817 -0.3794
   36loPI   GL1  565  12.895  17.958   9.130  0.0094 -0.2021 -0.0421
   36loPI   GL2  566  12.925  17.693   9.088 -0.3662  0.3157 -0.1500
   36loPI   C1A  567  12.449  17.768   8.870 -0.1668  0.0453 -0.3163
   36loPI   C2A  568  12.167  17.660   8.591  0.2225  0.2755  0.3033
   36loPI   C3A  569  11.944  17.641   8.226  0.0987 -0.2986 -0.0854
   36loPI   C4A  570  11.654  17.364   7.971  0.1697  0.1528  0.2151
   36loPI   C5A  571  11.255  17.364   7.692 -0.2368 -0.1404 -0.0822
   36loPI   C6A  572  10.877  17.406   7.729  0.1561 -0.0438  0.6150
   36loPI   C1B  573  12.854  17.442   8.868 -0.0496 -0.0390  0.0127
   36loPI   C2B  574  12.520  17.276   8.572  0.3649 -0.3026 -0.0195
   36loPI   C3B  575  12.324  17.318   8.128 -0.1872  0.2690 -0.2964
   36loPI   C4B  576  12.554  17.408   7.803 -0.0676  0.1106  0.0856
   37loPI    C1  577   2.687   9.260   9.907  0.2234 -0.2656 -0.0187
   37loPI    C2  578   2.675   8.968  10.179  0.2171  0.0137  0.2872
   37loPI    C3  579   2.559   9.338  10.278  0.1213  0.0984 -0.1257
   37loPI   PO4  580   2.562   9.119   9.684 -0.1131  0.3329 -0.0531
   37loPI   GL1  581   2.379   9.231   9.280 -0.1313 -0.0830 -0.1160
   37loPI   GL2  582   2.386   8.836   9.264  0.3836  0.0309  0.1832
   37loPI   C1A  583   2.487   9.402   8.918 -0.1512  0.0111  0.0207
   37loPI   C2A  584   2.463   9.415   8.545  0.3147 -0.0880 -0.2678
   37loPI   C3A  585   2.635   9.540   8.272  0.0002 -0.5065 -0.0929
   37loPI   C4A  586   2.686   9.614   7.820 -0.1736  0.3171  0.1164
   37loPI   C5A  587   3.029   9.715   7.702 -0.0457  0.3321 -0.0113
   37loPI   C6A  588   3.387   9.690   7.403 -0.1707  0.0891 -0.3677
   37loPI   C1B  589   2.381   8.949   8.878  0.5020  0.0022  0.1735
   37loPI   C2B  590   2.377   8.942   8.435  0.1276  0.2421  0.1316
   37loPI   C3B  591   2.347   9.230   8.033  0.2596  0.1861 -0.1316
   37loPI   C4B  592   2.248   9.332   7.642  0.3407 -0.3088  0.5316
   38loPI    C1  593  18.818   3.079  10.145  0.3994 -0.0945 -0.1509
   38loPI    C2  594  18.643   2.951  10.481  0.2076 -0.1718 -0.2785
   38loPI    C3  595  19.005   2.813  10.378  0.2710 -0.1410 -0.1008
   38loPI   PO4  596  18.546   3.132   9.936 -0.0589  0.0456 -0.0451
   38loPI   GL1  597  18.520   3.189   9.515 -0.2179 -0.0990 -0.1380
   38loPI   GL2  598  18.466   3.599   9.465  0.0339  0.1202 -0.1185
   38loPI   C1A  599  18.695   3.156   9.155 -0.0923 -0.0236 -0.0736
   38loPI   C2A  600  18.907   3.213   8.762  0.3476 -0.2210  0.2011
   38loPI   C3A  601  19.062   3.339   8.397  0.2985  0.2009 -0.0649
   38loPI   C4A  602  19.240   3.176   8.020  0.1592  0.1907 -0.1936
   38loPI   C5A  603  19.068   3.033   7.617  0.0609  0.1152  0.1419
   38loPI   C6A  604  19.145   2.931   7.226 -0.2106 -0.1078 -0.0364
   38loPI   C1B  605  18.322   3.529   9.001 -0.0852  0.2808  0.1391
   38loPI   C2B  606  18.102   3.666   8.695 -0.1615 -0.0461  0.0650
   38loPI   C3B  607  18.204   3.852   8.379 -0.1780  0.0130  0.2462
   38loPI   C4B  608  18.335   4.193   8.362  0.0861 -0.2350 -0.1019
   39loPI    C1  609  10.271   5.568   9.502 -0.1320  0.0952 -0.0307
   39loPI    C2  610  10.093   5.811   9.765 -0.0422 -0.0309  0.1492
   39loPI    C3  611  10.474   5.702   9.820 -0.0455 -0.1169  0.0056
   39loPI   PO4  612  10.133   5.740   9.286 -0.3056  0.1016  0.2356
   39loPI   GL1  613  10.183   5.830   8.906 -0.2498 -0.1591 -0.5328
   39loPI   GL2  614  10.204   5.652   8.760 -0.1032 -0.0751  0.2097
   39loPI   C1A  615  10.206   6.196   8.750  0.1232  0.1004  0.0365
   39loPI   C2A  616  10.242   6.310   8.340  0.2240 -0.0090 -0.0213
   39loPI   C3A  617  10.382   6.198   7.945  0.0988 -0.1222 -0.2547
   39loPI   C4A  618  10.229   6.106   7.525  0.0271 -0.0510 -0.1378
   39loPI   C5A  619  10.128   5.777   7.291  0.1451 -0.1174 -0.0087
   39loPI   C6A  620  10.093   5.727   6.861 -0.1762 -0.2025  0.1224
   39loPI   C1B  621  10.453   5.485   8.476 -0.1252 -0.1091 -0.2285
   39loPI   C2B  622  10.496   5.397   7.961 -0.0129 -0.0029  0.1211
   39loPI   C3B  623  10.359   5.370   7.509  0.1949  0.2344 -0.2180
   39loPI   C4B  624  10.142   5.291   7.125 -0.5747 -0.0747 -0.0726
   40loPI    C1  625   7.284  12.314  10.186 -0.0718  0.1274  0.1022
   40loPI    C2  626   7.294  12.061  10.495 -0.2250 -0.1415 -0.1080
   40loPI    C3  627   7.282  12.456  10.560 -0.1744 -0.1917  0.2258
   40loPI   PO4  628   7.502  12.253  10.052  0.2980 -0.0879 -0.2059
   40loPI   GL1  629   7.760  12.437   9.688 -0.3086 -0.0332  0.1857
   40loPI   GL2  630   7.500  12.582   9.354 -0.0714  0.1414  0.1306
   40loPI   C1A  631   7.912  12.350   9.379 -0.0941  0.2113 -0.2612
   40loPI   C2A  632   7.892  12.330   8.981  0.0226 -0.1418 -0.0179
   40loPI   C3A  633   7.927  12.509   8.643 -0.0304 -0.0077 -0.3033
   40loPI   C4A  634   8.144  12.470   8.235 -0.0022 -0.0316  0.0944
   40loPI   C5A  635   8.386  12.246   7.925  0.0199  0.0386  0.2693
   40loPI   C6A  636   8.568  12.058   7.551 -0.3519  0.0242 -0.2728
   40loPI   C1B  637   7.311  12.484   9.022 -0.1030 -0.3309 -0.4389
   40loPI   C2B  638   7.424  12.413   8.622  0.0505 -0.0679 -0.1307
   40loPI   C3B  639   7.571  12.549   8.320  0.0161  0.0973  0.0692
   40loPI   C4B  640   7.890  12.875   8.246  0.1600 -0.4802  0.0962
   41loPI    C1  641   6.214   9.808   9.844  0.1532 -0.0408  0.0043
   41loPI    C2  642   6.604   9.754   9.776  0.1618  0.0546 -0.0236
   41loPI    C3  643   6.436  10.110   9.704  0.0626  0.0039 -0.0436
   41loPI   PO4  644   6.141   9.581   9.778 -0.1091  0.0271  0.1853
   41loPI   GL1  645   6.358   9.246   9.501  0.1349 -0.2214 -0.1800
   41loPI   GL2  646   6.740   9.198   9.521  0.4126  0.0864 -0.0237
   41loPI   C1A  647   6.558   9.573   9.089  0.3028 -0.0715 -0.2260
   41loPI   C2A  648   6.630   9.586   8.686  0.0833  0.2487 -0.1547
   41loPI   C3A  649   6.791   9.879   8.292 -0.1975 -0.0318 -0.1101
   41loPI   C4A  650   7.035   9.854   8.000 -0.0492 -0.0624 -0.0968
   41loPI   C5A  651   7.145   9.820   7.622 -0.0476  0.2153 -0.0261
   41loPI   C6A  652   7.389   9.564   7.485  0.0561 -0.0775  0.0505
   41loPI   C1B  653   6.525   9.082   9.120 -0.0019  0.2800  0.1649
   41loPI   C2B  654   6.522   9.052   8.717  0.1173 -0.0539  0.2059
   41loPI   C3B  655   6.563   9.065   8.303 -0.1052  0.2356 -0.1476
   41loPI   C4B  656   6.583   9.081   7.927 -0.0077 -0.0436 -0.0308
   42loPI    C1  657   9.231   3.290  10.013  0.0487  0.1029  0.4182
   42loPI    C2  658   8.887   3.454  10.135 -0.1196 -0.0203  0.1194
   42loPI    C3  659   9.012   3.110  10.296 -0.2238 -0.0643  0.1073
   42loPI   PO4  660   9.256   3.540   9.739  0.0527 -0.0191 -0.0790
   42loPI   GL1  661   9.315   3.436   9.317  0.0134  0.0851 -0.4245
   42loPI   GL2  662   9.097   3.194   9.125 -0.3364  0.0253  0.0824
   42loPI   C1A  663   9.417   3.604   9.008 -0.3865  0.0686 -0.0521
   42loPI   C2A  664   9.277   3.619   8.665 -0.1728  0.3553  0.2465
   42loPI   C3A  665   9.115   3.755   8.282 -0.4357  0.0282 -0.0007
   42loPI   C4A  666   9.201   3.717   7.849  0.1058  0.0881  0.2188
   42loPI   C5A  667   9.465   3.526   7.598  0.3775 -0.1677 -0.1800
   42loPI   C6A  668   9.577   3.118   7.556  0.1243 -0.1179 -0.0443
   42loPI   C1B  669   8.951   3.176   8.761  0.1327  0.1760 -0.0778
   42loPI   C2B  670   8.995   2.826   8.578 -0.0026  0.3103 -0.0314
   42loPI   C3B  671   9.146   2.796   8.280 -0.3566 -0.2940  0.1763
   42loPI   C4B  672   9.218   2.679   7.970 -0.0670  0.2603 -0.2584
   43loPI    C1  673   8.156   8.417  10.333 -0.0664  0.0770 -0.1351
   43loPI    C2  674   7.911   8.719  10.428 -0.1783  0.0491 -0.3294
   43loPI    C3  675   8.227   8.638  10.659 -0.2350  0.2164 -0.1909
   43loPI   PO4  676   8.099   8.388  10.067 -0.0898  0.3858 -0.3130
   43loPI   GL1  677   8.358   8.412   9.629  0.2764  0.0099 -0.1470
   43loPI   GL2  678   8.732   8.385   9.589  0.3171  0.3213  0.1009
   43loPI   C1A  679   8.309   8.274   9.275  0.0107 -0.1107  0.0141
   43loPI   C2A  680   8.338   8.344   8.819  0.2441  0.3199 -0.1872
   43loPI   C3A  681   8.362   8.100   8.447 -0.1445  0.1141 -0.2017
   43loPI   C4A  682   8.270   7.856   8.095  0.3695  0.1462 -0.1720
   43loPI   C5A  683   8.230   7.970   7.739  0.0311  0.0959 -0.1847
   43loPI   C6A  684   8.214   8.225   7.511 -0.1813 -0.3246  0.0190
   43loPI   C1B  685   8.746   8.142   9.132 -0.3598 -0.1198  0.0074
   43loPI   C2B  686   8.773   8.246   8.668 -0.1895  0.3365 -0.0434
   43loPI   C3B  687   8.615   8.503   8.374 -0.1069 -0.0483  0.0487
   43loPI   C4B  688   8.517   8.487   7.924 -0.3234  0.0521 -0.2394
   44loPI    C1  689   3.109   8.302   9.711 -0.4331 -0.0397  0.0706
   44loPI    C2  690   3.050   8.421  10.089  0.0757 -0.4210  0.2812
   44loPI    C3  691   3.001   8.036   9.990 -0.1984 -0.2985 -0.0805
   44loPI   PO4  692   3.400   8.420   9.660  0.1432 -0.1259  0.2302
   44loPI   GL1  693   3.327   8.543   9.314  0.0031  0.1836 -0.0735
   44loPI   GL2  694   3.421   8.811   9.225 -0.3633 -0.0592 -0.0666
   44loPI   C1A  695   3.247   8.608   8.820 -0.2276 -0.2361  0.1001
   44loPI   C2A  696   3.152   8.533   8.418 -0.1411  0.1966  0.0236
   44loPI   C3A  697   3.147   8.580   7.981 -0.0894  0.2199  0.0303
   44loPI   C4A  698   3.448   8.656   7.659 -0.1414 -0.0821 -0.1235
   44loPI   C5A  699   3.780   8.530   7.403  0.1244 -0.0446  0.0242
   44loPI   C6A  700   4.182   8.593   7.286 -0.4333 -0.3965  0.0352
   44loPI   C1B  701   3.649   8.895   8.861  0.1768  0.1827 -0.3375
   44loPI   C2B  702   3.562   8.951   8.472  0.1522  0.0286 -0.1324
   44loPI   C3B  703   3.385   9.058   7.996  0.2041  0.2091 -0.1456
   44loPI   C4B  704   3.559   9.142   7.587 -0.0664 -0.0390 -0.0552
   45loPI    C1  705  16.816   7.800   9.844  0.3228  0.1138  0.1410
   45loPI    C2  706  16.733   7.933  10.212  0.1223  0.0287  0.1281
   45loPI    C3  707  17.013   7.652  10.159  0.0732 -0.0395  0.2281
   45loPI   PO4  708  16.582   7.774   9.769 -0.1858 -0.2764 -0.3528
   45loPI   GL1  709  16.399   7.462   9.428 -0.0715  0.1892  0.0233
   45loPI   GL2  710  16.340   7.151   9.279  0.0291 -0.2401 -0.0803
   45loPI   C1A  711  16.463   7.521   8.967 -0.2541 -0.0062 -0.0638
   45loPI   C2A  712  16.811   7.368   8.812 -0.0191 -0.0141 -0.2647
   45loPI   C3A  713  17.231   7.334   8.493 -0.0920 -0.3596  0.1303
   45loPI   C4A  714  17.289   7.198   8.120  0.0219  0.3531 -0.0963
   45loPI   C5A  715  17.214   6.979   7.748  0.0658 -0.2257  0.2710
   45loPI   C6A  716  17.162   7.160   7.335 -0.0318 -0.1402 -0.0219
   45loPI   C1B  717  16.509   7.010   8.896  0.2456  0.0125 -0.1128
   45loPI   C2B  718  16.475   7.085   8.494 -0.1236  0.1749  0.1472
   45loPI   C3B  719  16.792   7.389   8.301  0.1145  0.1451 -0.1987
   45loPI   C4B  720  16.815   7.340   7.860 -0.0664 -0.0010  0.2971
   46loPI    C1  721   5.410  10.167  10.497  0.0759  0.2017 -0.0306
   46loPI    C2  722   5.373  10.537  10.645 -0.0341  0.1461  0.0826
   46loPI    C3  723   5.152  10.239  10.794  0.2604 -0.0240  0.1878
   46loPI   PO4  724   5.524  10.228  10.204 -0.0283 -0.1475 -0.3705
   46loPI   GL1  725   5.418  10.209   9.693  0.2856  0.0893 -0.0320
   46loPI   GL2  726   5.155  10.017   9.471  0.1624 -0.0502  0.0487
   46loPI   C1A  727   5.498  10.379   9.281 -0.3223 -0.4933 -0.2616
   46loPI   C2A  728   5.413  10.430   8.850 -0.0680  0.1068  0.2986
   46loPI   C3A  729   5.469  10.551   8.443  0.2018  0.0210 -0.1259
   46loPI   C4A  730   5.295  10.501   8.047 -0.1285  0.2748 -0.2091
   46loPI   C5A  731   5.350  10.444   7.696  0.2516  0.3859 -0.1371
   46loPI   C6A  732   5.676  10.466   7.470 -0.4067 -0.2489  0.0956
   46loPI   C1B  733   5.182  10.063   9.031  0.1249 -0.4089 -0.2416
   46loPI   C2B  734   5.128  10.052   8.561  0.1973  0.1081 -0.3213
   46loPI   C3B  735   5.022  10.025   8.135 -0.1369 -0.0506  0.1251
   46loPI   C4B  736   5.170   9.982   7.686  0.2036  0.0165 -0.0462
   47loPI    C1  737   6.833  10.478   9.954 -0.0174  0.0834 -0.1318
   47loPI    C2  738   6.674  10.661  10.272 -0.0617  0.0034 -0.1079
   47loPI    C3  739   7.063  10.567  10.269 -0.0646 -0.0101 -0.0706
   47loPI   PO4  740   6.687  10.598   9.755 -0.0392 -0.2508  0.1863
   47loPI   GL1  741   6.781  10.946   9.523 -0.1001 -0.0959  0.0015
   47loPI   GL2  742   6.873  11.231   9.397  0.1787 -0.0720  0.1629
   47loPI   C1A  743   6.881  10.730   9.162  0.1180  0.1464 -0.3133
   47loPI   C2A  744   6.864  10.806   8.733 -0.2059  0.2407  0.4930
   47loPI   C3A  745   7.126  10.960   8.459 -0.2586  0.3361 -0.1875
   47loPI   C4A  746   7.323  10.836   8.123 -0.0864 -0.1031  0.2635
   47loPI   C5A  747   7.449  10.801   7.689  0.1407 -0.1061 -0.1429
   47loPI   C6A  748   7.385  10.653   7.367 -0.2338 -0.0066  0.0956
   47loPI   C1B  749   6.805  11.252   8.919 -0.4017  0.0851  0.0075
   47loPI   C2B  750   6.761  11.342   8.542  0.2192 -0.1417 -0.2256
   47loPI   C3B  751   6.634  11.017   8.324 -0.1036 -0.0182  0.1482
   47loPI   C4B  752   6.283  10.760   8.079  0.0232  0.1488 -0.0524
   48loPI    C1  753  18.302  16.375  10.474 -0.2524  0.0621  0.0431
   48loPI    C2  754  18.386  16.259  10.848  0.2202  0.0307 -0.0674
   48loPI    C3  755  18.169  16.023  10.609 -0.1069  0.0627  0.1920
   48loPI   PO4  756  18.177  16.631  10.460 -0.2784  0.1915  0.1200
   48loPI   GL1  757  18.236  16.789  10.095  0.0834  0.0107 -0.2530
   48loPI   GL2  758  18.226  16.441   9.924  0.1329 -0.3684  0.0829
   48loPI   C1A  759  17.871  16.911   9.721 -0.0258 -0.1927  0.0153
   48loPI   C2A  760  17.635  17.177   9.479 -0.1676  0.0508  0.1957
   48loPI   C3A  761  17.797  17.292   9.050 -0.0968  0.0047  0.2095
   48loPI   C4A  762  17.826  17.301   8.615 -0.0835 -0.2372 -0.1331
   48loPI   C5A  763  17.658  17.371   8.204 -0.3072 -0.0328  0.0063
   48loPI   C6A  764  17.367  17.076   7.899 -0.0047 -0.2027  0.0496
   48loPI   C1B  765  18.326  16.698   9.602 -0.0269  0.3262  0.0444
   48loPI   C2B  766  18.092  16.799   9.218  0.4849 -0.0860 -0.3323
   48loPI   C3B  767  18.123  16.945   8.812 -0.0621  0.3621  0.1569
   48loPI   C4B  768  18.111  16.893   8.442  0.2023  0.0216  0.0036
   49loPI    C1  769  16.983  14.233  10.096 -0.4981 -0.0766 -0.0269
   49loPI    C2  770  17.089  13.848  10.112 -0.0628  0.0320 -0.1713
   49loPI    C3  771  16.988  14.042  10.447  0.1710 -0.0865 -0.0296
   49loPI   PO4  772  17.083  14.278   9.817 -0.0043 -0.0029  0.2056
   49loPI   GL1  773  17.025  13.898   9.592  0.2669 -0.2633  0.1856
   49loPI   GL2  774  16.853  13.608   9.797  0.0081  0.0516  0.0972
   49loPI   C1A  775  16.712  13.855   9.313  0.2712 -0.1697 -0.0791
   49loPI   C2A  776  16.554  14.092   9.040 -0.1624  0.3484  0.1960
   49loPI   C3A  777  16.441  14.246   8.580 -0.1877 -0.1531 -0.1262
   49loPI   C4A  778  16.458  14.357   8.170  0.0588  0.3880 -0.1422
   49loPI   C5A  779  16.394  13.854   7.963 -0.1574 -0.0901 -0.0146
   49loPI   C6A  780  16.457  13.436   7.848  0.0464  0.0980 -0.0997
   49loPI   C1B  781  16.818  13.396   9.404 -0.4453  0.1986  0.1380
   49loPI   C2B  782  16.731  13.431   9.007  0.2498  0.1792  0.0443
   49loPI   C3B  783  16.759  13.721   8.736  0.4006 -0.4085 -0.3189
   49loPI   C4B  784  16.660  13.834   8.362 -0.1949 -0.1696  0.0631
   50loPI    C1  785   6.932  10.039  10.149 -0.0137 -0.0156 -0.0672
   50loPI    C2  786   6.689   9.733  10.235 -0.0149 -0.0402 -0.1576
   50loPI    C3  787   6.537  10.097  10.171 -0.0191 -0.0342 -0.1133
   50loPI   PO4  788   7.072   9.969   9.953 -0.0584 -0.1286  0.2003
   50loPI   GL1  789   6.933  10.134   9.564 -0.0391  0.0320  0.2747
   50loPI   GL2  790   7.366  10.030   9.544  0.0631 -0.3349 -0.2491
   50loPI   C1A  791   6.737  10.000   9.187  0.3296  0.0329 -0.4346
   50loPI   C2A  792   6.815  10.148   8.702  0.0241 -0.0901 -0.1137
   50loPI   C3A  793   7.013  10.398   8.326  0.2659 -0.1488 -0.1179
   50loPI   C4A  794   6.807  10.663   8.025 -0.0396 -0.1337 -0.0819
   50loPI   C5A  795   6.508  10.630   7.635 -0.1550  0.0982  0.1576
   50loPI   C6A  796   6.197  10.272   7.634  0.4918  0.1777 -0.0543
   50loPI   C1B  797   7.619  10.063   9.124  0.2514 -0.0742  0.2087
   50loPI   C2B  798   7.743  10.165   8.661  0.1356 -0.1060  0.3313
   50loPI   C3B  799   7.959  10.250   8.305 -0.1068  0.2947  0.0774
   50loPI   C4B  800   8.141  10.520   8.034  0.2710  0.1313  0.0352
   51loPI    C1  801  14.088  18.912  10.118 -0.1358  0.1070 -0.1303
   51loPI    C2  802  14.071  18.593  10.359  0.0847  0.0270 -0.2182
   51loPI    C3  803  13.913  18.942  10.477  0.0916 -0.0405 -0.0053
   51loPI   PO4  804  14.040  18.877   9.866 -0.0731  0.3418  0.0286
   51loPI   GL1  805  13.998  18.976   9.370 -0.1355 -0.1869 -0.3138
   51loPI   GL2  806  14.337  19.002   9.320  0.1533  0.0675 -0.0314
   51loPI   C1A  807  14.015  18.730   8.980  0.0413  0.0356  0.0212
   51loPI   C2A  808  14.060  18.487   8.540  0.1232 -0.1213 -0.0172
   51loPI   C3A  809  13.935  18.331   8.120 -0.2281 -0.1891  0.2207
   51loPI   C4A  810  13.793  18.519   7.811  0.1393  0.3654  0.1311
   51loPI   C5A  811  13.549  18.496   7.512  0.1893  0.1114  0.2703
   51loPI   C6A  812  13.275  18.734   7.520  0.2590  0.0807 -0.3215
   51loPI   C1B  813  14.409  19.068   8.887  0.2228  0.1318  0.1794
   51loPI   C2B  814  14.151  18.939   8.477 -0.1622 -0.0194  0.0877
   51loPI   C3B  815  14.166  18.798   8.041  0.2025  0.0053 -0.1028
   51loPI   C4B  816  14.068  18.942   7.636 -0.0876 -0.0110  0.0078
   52loPI    C1  817   8.009   7.513   9.891  0.0957  0.0542  0.0654
   52loPI    C2  818   8.276   7.446  10.181  0.1498 -0.0861 -0.0158
   52loPI    C3  819   7.894   7.339  10.233  0.1001  0.1484  0.1150
   52loPI   PO4  820   8.154   7.521   9.653  0.0437  0.3626 -0.1064
   52loPI   GL1  821   8.026   7.453   9.236  0.0344 -0.0971 -0.0854
   52loPI   GL2  822   8.202   7.759   9.177  0.1177  0.1887  0.0487
   52loPI   C1A  823   7.683   7.467   8.871 -0.1235 -0.0539 -0.4448
   52loPI   C2A  824   7.750   7.652   8.407  0.0053  0.2768 -0.1481
   52loPI   C3A  825   7.886   7.607   8.036  0.0924  0.0617 -0.0022
   52loPI   C4A  826   7.681   7.680   7.578  0.1817  0.2773  0.1069
   52loPI   C5A  827   7.802   7.395   7.249 -0.1863  0.0487  0.2755
   52loPI   C6A  828   7.907   7.140   7.041 -0.2047  0.2283  0.0731
   52loPI   C1B  829   8.191   7.609   8.724  0.0949 -0.2289 -0.1792
   52loPI   C2B  830   8.220   7.443   8.388 -0.2994  0.0609 -0.0009
   52loPI   C3B  831   8.416   7.345   8.053  0.0446  0.1652  0.3007
   52loPI   C4B  832   8.614   7.565   7.709  0.1305  0.1560  0.2864
   53loPI    C1  833  13.784  14.906  10.231 -0.1693  0.2210  0.0184
   53loPI    C2  834  13.429  14.744  10.144 -0.1819  0.0880  0.3084
   53loPI    C3  835  13.451  15.054  10.396 -0.1058  0.1955  0.1707
   53loPI   PO4  836  13.852  15.001   9.882  0.2028 -0.1060 -0.0225
   53loPI   GL1  837  13.575  14.665   9.541  0.3222  0.0132  0.0302
   53loPI   GL2  838  13.875  14.677   9.378  0.3517 -0.0410  0.1501
   53loPI   C1A  839  13.206  14.355   9.233 -0.1663  0.1141 -0.0209
   53loPI   C2A  840  13.190  14.111   8.882 -0.0971 -0.1239 -0.0031
   53loPI   C3A  841  13.138  13.990   8.447  0.2194 -0.2435 -0.0268
   53loPI   C4A  842  13.044  14.010   8.127 -0.0451 -0.1761 -0.2409
   53loPI   C5A  843  13.391  14.019   7.843  0.1402 -0.0748  0.1394
   53loPI   C6A  844  13.784  13.680   7.732 -0.1064  0.3894 -0.2354
   53loPI   C1B  845  13.694  14.469   9.119 -0.2095  0.1154  0.0583
   53loPI   C2B  846  13.559  14.527   8.709  0.3775  0.3703 -0.1059
   53loPI   C3B  847  13.279  14.466   8.366 -0.3551 -0.2015 -0.0450
   53loPI   C4B  848  13.236  14.485   7.900 -0.3172 -0.0517  0.0083
   54loPI    C1  849   2.800   9.752  10.044  0.1062  0.2819 -0.1497
   54loPI    C2  850   2.950  10.042  10.275 -0.0012  0.0849  0.1748
   54loPI    C3  851   3.180   9.733  10.167  0.0457  0.1715  0.0237
   54loPI   PO4  852   2.712   9.938   9.824  0.1389  0.0436 -0.0721
   54loPI   GL1  853   2.597  10.167   9.593  0.0204  0.3194 -0.1746
   54loPI   GL2  854   2.425  10.400   9.600 -0.2485  0.0189 -0.1634
   54loPI   C1A  855   2.986  10.316   9.374  0.1645 -0.0891 -0.0547
   54loPI   C2A  856   3.122  10.462   9.034 -0.0007 -0.1953  0.0785
   54loPI   C3A  857   3.123  10.452   8.602 -0.1072  0.2728  0.0806
   54loPI   C4A  858   3.074  10.242   8.127  0.0308 -0.0333  0.2270
   54loPI   C5A  859   3.083  10.200   7.693 -0.1190  0.0232  0.3533
   54loPI   C6A  860   3.556  10.131   7.653 -0.0129  0.2595 -0.1441
   54loPI   C1B  861   2.601  10.546   9.210 -0.0651  0.2725  0.0812
   54loPI   C2B  862   2.629  10.570   8.731  0.1162  0.2573  0.2241
   54loPI   C3B  863   2.775  10.563   8.292 -0.0567  0.1787 -0.1747
   54loPI   C4B  864   2.563  10.497   7.869  0.2749  0.1511 -0.1927
   55loPI    C1  865  17.783   3.952   9.880  0.2846 -0.0960  0.0804
   55loPI    C2  866  17.761   4.105  10.249  0.0271 -0.3501  0.1738
   55loPI    C3  867  17.622   3.737  10.176 -0.2338 -0.1763 -0.2470
   55loPI   PO4  868  17.698   4.143   9.713 -0.1446  0.0011 -0.3090
   55loPI   GL1  869  17.491   4.166   9.369  0.0668  0.3191 -0.1123
   55loPI   GL2  870  17.816   4.350   9.274  0.2130  0.0844  0.1485
   55loPI   C1A  871  17.305   4.008   8.936 -0.0625 -0.0881 -0.1307
   55loPI   C2A  872  17.206   4.108   8.535 -0.1700 -0.0268  0.0149
   55loPI   C3A  873  17.044   4.274   8.106 -0.1576 -0.1954  0.0310
   55loPI   C4A  874  16.649   4.354   7.950 -0.1001  0.1397 -0.0067
   55loPI   C5A  875  16.274   4.487   7.812  0.2649 -0.0934 -0.0158
   55loPI   C6A  876  16.169   4.910   7.885  0.1661 -0.1880 -0.0566
   55loPI   C1B  877  17.549   4.420   8.881 -0.2585  0.0973  0.0165
   55loPI   C2B  878  17.158   4.605   8.512 -0.0168  0.0599 -0.1569
   55loPI   C3B  879  17.072   4.751   8.179  0.0615  0.0758  0.2132
   55loPI   C4B  880  17.027   4.730   7.653  0.0375  0.0830  0.0221
   56loPI    C1  881   5.620   1.659   9.791 -0.1172  0.2072  0.1644
   56loPI    C2  882   5.781   1.360  10.003  0.2051  0.1895 -0.0963
   56loPI    C3  883   5.632   1.680  10.191 -0.1526 -0.1320  0.1869
   56loPI   PO4  884   5.793   1.570   9.577  0.3205  0.0807  0.1298
   56loPI   GL1  885   6.107   1.523   9.367 -0.0922  0.1170  0.1158
   56loPI   GL2  886   6.108   1.279   9.194 -0.2870  0.1337 -0.1038
   56loPI   C1A  887   6.484   1.714   9.169 -0.0616  0.1093  0.3659
   56loPI   C2A  888   6.873   1.839   9.027  0.0498  0.3329 -0.0887
   56loPI   C3A  889   6.989   1.965   8.524 -0.2218  0.2768  0.0939
   56loPI   C4A  890   7.108   2.175   8.123 -0.2903  0.1337 -0.0572
   56loPI   C5A  891   7.226   2.540   7.888 -0.0023  0.2476  0.0252
   56loPI   C6A  892   7.259   2.963   7.815 -0.3164  0.4245  0.2103
   56loPI   C1B  893   6.169   1.460   8.847  0.0214  0.0239 -0.3996
   56loPI   C2B  894   6.210   1.869   8.519 -0.1941 -0.1506 -0.1522
   56loPI   C3B  895   6.131   2.224   8.433  0.1426 -0.1100  0.0271
   56loPI   C4B  896   6.299   2.422   8.019 -0.0229  0.2710 -0.0620
   57loPI    C1  897  14.771   5.349   9.926 -0.0825 -0.0122  0.0855
   57loPI    C2  898  14.923   5.145  10.235  0.0848  0.0193  0.0252
   57loPI    C3  899  14.966   5.542  10.218 -0.0930  0.0408  0.0574
   57loPI   PO4  900  14.851   5.214   9.634  0.1464  0.2201 -0.0984
   57loPI   GL1  901  14.725   5.366   9.267  0.0335  0.0935 -0.0110
   57loPI   GL2  902  14.766   5.081   9.084 -0.0566 -0.3381 -0.5653
   57loPI   C1A  903  14.763   5.528   8.811  0.1312 -0.0057  0.2502
   57loPI   C2A  904  14.686   5.614   8.319  0.0698  0.0876 -0.2412
   57loPI   C3A  905  14.628   5.657   7.870 -0.0203  0.0728 -0.3776
   57loPI   C4A  906  14.380   5.478   7.548 -0.0288  0.1964 -0.2108
   57loPI   C5A  907  14.316   5.126   7.263  0.1246 -0.0265 -0.2681
   57loPI   C6A  908  14.204   4.857   6.994 -0.0775 -0.2232 -0.0572
   57loPI   C1B  909  14.959   5.028   8.768 -0.0481 -0.2430  0.3978
   57loPI   C2B  910  14.969   5.220   8.436  0.0842 -0.2869  0.2461
   57loPI   C3B  911  14.913   5.132   7.992 -0.3452  0.1772 -0.0294
   57loPI   C4B  912  14.754   5.178   7.556 -0.0333  0.0547 -0.1134
   58loPI    C1  913   0.561   4.615  10.270  0.0548  0.2263 -0.0684
   58loPI    C2  914   0.597   4.934  10.508  0.0083  0.1007  0.1092
   58loPI    C3  915   0.691   4.571  10.646 -0.0363  0.0244 -0.0594
   58loPI   PO4  916   0.369   4.686  10.068  0.0951  0.4011 -0.0078
   58loPI   GL1  917   0.290   4.931   9.737 -0.0525  0.2525 -0.1367
   58loPI   GL2  918   0.483   5.081   9.559 -0.3674 -0.1761 -0.0710
   58loPI   C1A  919   0.158   4.854   9.298  0.3095  0.0040  0.3410
   58loPI   C2A  920   0.148   4.858   8.843  0.4039  0.4094  0.0529
   58loPI   C3A  921   0.177   4.817   8.500  0.2205 -0.1340 -0.0673
   58loPI   C4A  922   0.061   4.722   8.077 -0.3112  0.0651 -0.2163
   58loPI   C5A  923   0.097   4.718   7.744  0.3649 -0.0253  0.5183
   58loPI   C6A  924   0.295   4.491   7.349 -0.0200  0.1646 -0.2333
   58loPI   C1B  925   0.571   5.077   9.234 -0.2422 -0.0925 -0.3526
   58loPI   C2B  926   0.625   4.920   8.751  0.0564  0.2528  0.0936
   58loPI   C3B  927   0.607   4.847   8.287 -0.0463 -0.0514  0.1168
   58loPI   C4B  928   0.555   4.851   7.900  0.0059  0.1371  0.3846
   59loPI    C1  929   0.021   7.478  10.158 -0.0187 -0.1976 -0.2724
   59loPI    C2  930   0.033   7.111  10.315  0.3361 -0.1556 -0.1912
   59loPI    C3  931   0.107   7.430  10.545  0.2206 -0.0460 -0.3042
   59loPI   PO4  932  -0.167   7.540  10.073 -0.1175  0.3607 -0.4299
   59loPI   GL1  933  -0.202   7.706   9.678  0.2314  0.2313 -0.1312
   59loPI   GL2  934   0.200   7.589   9.669  0.0819 -0.2066 -0.2044
   59loPI   C1A  935  -0.246   7.881   9.256 -0.2210 -0.0570 -0.0598
   59loPI   C2A  936  -0.176   7.984   8.816 -0.1481  0.1235 -0.2795
   59loPI   C3A  937  -0.012   8.068   8.403  0.2240 -0.0757 -0.0077
   59loPI   C4A  938  -0.086   7.742   8.061 -0.0546  0.0624 -0.3417
   59loPI   C5A  939  -0.269   7.435   7.814  0.2301  0.1393 -0.0752
   59loPI   C6A  940  -0.496   7.260   7.458  0.0585  0.3149  0.2766
   59loPI   C1B  941   0.172   7.497   9.292 -0.0803 -0.0670 -0.1305
   59loPI   C2B  942   0.209   7.556   8.882 -0.4843  0.0154  0.4184
   59loPI   C3B  943  -0.131   7.499   8.570 -0.2144  0.0318 -0.0412
   59loPI   C4B  944  -0.483   7.438   8.243 -0.0922 -0.2616 -0.0554
   60loPI    C1  945  11.279   2.437   9.970  0.0581  0.0199 -0.3898
   60loPI    C2  946  11.653   2.308   9.907  0.2347  0.2014  0.2178
   60loPI    C3  947  11.458   2.202  10.240 -0.2750  0.0817 -0.1075
   60loPI   PO4  948  11.207   2.491   9.759 -0.1388  0.1629 -0.0993
   60loPI   GL1  949  11.079   2.510   9.288 -0.1047 -0.0705  0.3418
   60loPI   GL2  950  11.188   2.847   9.382 -0.1602  0.0831  0.1643
   60loPI   C1A  951  11.146   2.504   8.827 -0.1157  0.0057 -0.1013
   60loPI   C2A  952  11.327   2.729   8.472 -0.1100 -0.2531 -0.0546
   60loPI   C3A  953  11.398   2.836   8.049  0.3185 -0.1678 -0.1218
   60loPI   C4A  954  11.552   2.829   7.646  0.3064  0.1879  0.0064
   60loPI   C5A  955  11.583   2.643   7.250 -0.3066 -0.0155 -0.1391
   60loPI   C6A  956  11.737   2.603   6.806 -0.1509 -0.1506 -0.0287
   60loPI   C1B  957  11.347   2.964   9.075  0.4420 -0.2648 -0.1312
   60loPI   C2B  958  11.282   3.148   8.686 -0.1292  0.1836  0.0221
   60loPI   C3B  959  11.100   3.236   8.298 -0.0990  0.0909 -0.2546
   60loPI   C4B  960  10.854   3.491   8.134 -0.1043 -0.2009 -0.2650
   61loPI    C1  961  10.846  14.399  10.368 -0.1109 -0.0592 -0.1299
   61loPI    C2  962  11.098  14.558  10.636 -0.1310 -0.1206 -0.0743
   61loPI    C3  963  10.712  14.665  10.635 -0.1022 -0.0162 -0.1686
   61loPI   PO4  964  11.114  14.225  10.183 -0.0737  0.0301 -0.0396
   61loPI   GL1  965  11.377  14.113   9.825 -0.0181 -0.0577  0.2208
   61loPI   GL2  966  10.966  13.952   9.780  0.2584 -0.0412  0.2532
   61loPI   C1A  967  11.556  14.262   9.428 -0.0791  0.0823 -0.1209
   61loPI   C2A  968  11.875  14.062   9.142  0.0391 -0.0259 -0.1175
   61loPI   C3A  969  12.065  13.982   8.757 -0.1196  0.0739  0.2686
   61loPI   C4A  970  12.004  13.789   8.352  0.0257  0.0469 -0.1639
   61loPI   C5A  971  11.606  13.794   8.099  0.1496 -0.1307  0.0183
   61loPI   C6A  972  11.378  13.533   8.134  0.0731  0.1780  0.1164
   61loPI   C1B  973  11.130  14.064   9.449  0.0104  0.1627  0.2061
   61loPI   C2B  974  11.044  14.237   9.072 -0.0123 -0.0774  0.0714
   61loPI   C3B  975  11.220  14.298   8.724 -0.2007  0.0346  0.0105
   61loPI   C4B  976  11.465  14.549   8.391 -0.0915  0.1248 -0.1533
   62loPI    C1  977   7.478   0.366  10.078 -0.0584  0.0306 -0.1697
   62loPI    C2  978   7.085   0.379  10.147 -0.0280 -0.2457  0.0773
   62loPI    C3  979   7.342   0.455  10.444  0.1078 -0.0454 -0.0882
   62loPI   PO4  980   7.480   0.522   9.834  0.0158 -0.1643 -0.1707
   62loPI   GL1  981   7.345   0.817   9.455 -0.1657  0.2411 -0.0775
   62loPI   GL2  982   7.170   1.037   9.421  0.1688  0.1078 -0.1055
   62loPI   C1A  983   7.273   0.536   9.147 -0.0211 -0.1403  0.0681
   62loPI   C2A  984   7.189   0.397   8.738  0.2490  0.0290  0.2809
   62loPI   C3A  985   7.254   0.483   8.394 -0.0376 -0.1276 -0.1790
   62loPI   C4A  986   7.100   0.688   8.103  0.2687 -0.0659 -0.3634
   62loPI   C5A  987   7.190   0.879   7.683  0.2083 -0.0905 -0.0961
   62loPI   C6A  988   7.334   1.155   7.303  0.0709  0.4791  0.1523
   62loPI   C1B  989   7.035   0.944   9.016  0.0275 -0.1653  0.0743
   62loPI   C2B  990   6.861   0.911   8.565 -0.1619 -0.0933 -0.0066
   62loPI   C3B  991   6.823   1.119   8.137 -0.1793  0.0853 -0.0853
   62loPI   C4B  992   6.700   1.023   7.713 -0.2491  0.1107 -0.1217
   63loPI    C1  993   9.321  12.326   9.913 -0.2308 -0.1690 -0.2177
   63loPI    C2  994   9.039  12.242  10.184 -0.0959  0.0069 -0.0203
   63loPI    C3  995   9.083  12.617  10.051  0.1790  0.0221  0.1066
   63loPI   PO4  996   9.324  12.123   9.793  0.1797 -0.0138  0.2582
   63loPI   GL1  997   9.434  11.961   9.437 -0.2862  0.3051 -0.1638
   63loPI   GL2  998   9.432  12.288   9.297  0.1549  0.2345  0.1941
   63loPI   C1A  999   9.479  11.501   9.097 -0.0238  0.4899  0.1923
   63loPI   C2A 1000   9.332  11.449   8.706  0.1760  0.0217  0.0478
   63loPI   C3A 1001   9.358  11.158   8.302  0.2299 -0.1453  0.0609
   63loPI   C4A 1002   9.477  11.150   7.895  0.0826  0.0107  0.1282
   63loPI   C5A 1003   9.672  11.310   7.507  0.0808  0.0860 -0.1375
   63loPI   C6A 1004   9.789  11.318   7.043  0.0158  0.2806  0.1762
   63loPI   C1B 1005   9.118  12.582   9.082  0.1350 -0.0241 -0.2835
   63loPI   C2B 1006   9.004  12.640   8.578  0.0591  0.1328 -0.2139
   63loPI   C3B 1007   8.882  12.703   8.261  0.0407 -0.2125 -0.0618
   63loPI   C4B 1008   8.784  12.543   7.830 -0.0066 -0.2104 -0.2544
   64loPI    C1 1009  11.922   9.152   9.700 -0.1611 -0.0118  0.0728
   64loPI    C2 1010  12.161   9.005   9.985  0.0604 -0.0402 -0.1239
   64loPI    C3 1011  11.764   8.990  10.030  0.0929  0.1867  0.2964
   64loPI   PO4 1012  12.093   9.385   9.606  0.0537 -0.2034  0.4444
   64loPI   GL1 1013  12.201   9.560   9.281  0.0951  0.1509  0.1318
   64loPI   GL2 1014  12.008   9.474   9.038 -0.2379  0.0038  0.2263
   64loPI   C1A 1015  12.482   9.663   8.941 -0.3576  0.0351  0.4043
   64loPI   C2A 1016  12.333   9.725   8.538  0.1639 -0.2232  0.0641
   64loPI   C3A 1017  12.197  10.059   8.269 -0.4891  0.1058 -0.0576
   64loPI   C4A 1018  12.273  10.306   7.877 -0.1152 -0.2406  0.2582
   64loPI   C5A 1019  12.652  10.515   7.700  0.0035  0.1131 -0.1122
   64loPI   C6A 1020  13.058  10.607   7.511 -0.3173  0.0425 -0.2346
   64loPI   C1B 1021  11.907   9.365   8.591  0.1502  0.0505  0.1370
   64loPI   C2B 1022  11.999   9.556   8.193  0.1388  0.0663  0.0064
   64loPI   C3B 1023  11.992   9.362   7.863  0.0156 -0.0290  0.1440
   64loPI   C4B 1024  11.961   9.272   7.439 -0.3175  0.1659  0.0997
   65loPI    C1 1025  15.997  17.401  10.129 -0.1336 -0.1092  0.0248
   65loPI    C2 1026  15.742  17.096  10.171  0.0490 -0.2550  0.0909
   65loPI    C3 1027  15.745  17.393  10.439 -0.2535 -0.1006 -0.0717
   65loPI   PO4 1028  15.957  17.471   9.896  0.1508 -0.0902  0.1305
   65loPI   GL1 1029  15.830  17.711   9.557 -0.2700 -0.4337  0.2200
   65loPI   GL2 1030  15.830  18.017   9.529 -0.1587 -0.2613 -0.2564
   65loPI   C1A 1031  16.011  17.658   9.156 -0.2674  0.0515 -0.1797
   65loPI   C2A 1032  16.152  17.479   8.818 -0.2823  0.2702  0.0362
   65loPI   C3A 1033  16.352  17.495   8.480 -0.2387 -0.3078 -0.1810
   65loPI   C4A 1034  16.519  17.522   8.045  0.0387  0.2446 -0.4309
   65loPI   C5A 1035  16.433  17.223   7.741  0.1561  0.2080  0.0968
   65loPI   C6A 1036  16.262  17.228   7.339 -0.0263 -0.2042 -0.3059
   65loPI   C1B 1037  15.890  18.123   9.132 -0.1981 -0.2501  0.0831
   65loPI   C2B 1038  15.923  18.005   8.749 -0.2692 -0.2613 -0.1882
   65loPI   C3B 1039  15.906  18.135   8.378  0.0944 -0.1916  0.1749
   65loPI   C4B 1040  16.289  18.438   8.239 -0.2350  0.1201  0.2635
   66loPI    C1 1041   1.648  11.748   9.973  0.0477 -0.0151  0.0681
   66loPI    C2 1042   1.344  11.947   9.805 -0.0228 -0.3095 -0.1605
   66loPI    C3 1043   1.362  11.908  10.202  0.0259  0.2011 -0.1063
   66loPI   PO4 1044   1.739  11.533   9.759 -0.1673 -0.1097  0.2990
   66loPI   GL1 1045   1.465  11.218   9.529  0.1231  0.1555  0.1228
   66loPI   GL2 1046   1.503  11.377   9.302 -0.1672 -0.0247 -0.2878
   66loPI   C1A 1047   1.235  10.864   9.540 -0.1060  0.0133  0.3685
   66loPI   C2A 1048   1.230  10.493   9.252  0.0378 -0.1866  0.1702
   66loPI   C3A 1049   1.188  10.403   8.849  0.1213  0.2504  0.0219
   66loPI   C4A 1050   1.275  10.518   8.439  0.2442 -0.0184 -0.0252
   66loPI   C5A 1051   1.215  10.852   8.104 -0.0296  0.2287  0.0040
   66loPI   C6A 1052   1.052  11.079   7.885 -0.0233 -0.3973 -0.2429
   66loPI   C1B 1053   1.461  11.427   8.818  0.2038  0.1770 -0.0616
   66loPI   C2B 1054   1.745  11.300   8.436  0.2766  0.5599  0.0866
   66loPI   C3B 1055   2.100  11.243   8.425  0.0161 -0.3343  0.4660
   66loPI   C4B 1056   2.462  11.129   8.496  0.2437  0.0892 -0.2656
   67loPI    C1 1057   0.587   8.358  10.004 -0.1463  0.0943 -0.0421
   67loPI    C2 1058   0.796   8.046  10.141 -0.1004  0.1942  0.1187
   67loPI    C3 1059   0.603   8.284  10.397 -0.3722  0.1319 -0.0241
   67loPI   PO4 1060   0.838   8.482   9.798  0.0944 -0.2778  0.2181
   67loPI   GL1 1061   0.697   8.402   9.458  0.1956 -0.1222  0.2615
   67loPI   GL2 1062   1.000   8.544   9.349 -0.2878 -0.1920 -0.3548
   67loPI   C1A 1063   0.621   8.469   9.022  0.0325 -0.0210 -0.0764
   67loPI   C2A 1064   0.648   8.565   8.639 -0.3211 -0.3942  0.2369
   67loPI   C3A 1065   0.764   8.674   8.259  0.1025 -0.1094 -0.0568
   67loPI   C4A 1066   0.844   8.862   7.878 -0.0435  0.1111  0.0574
   67loPI   C5A 1067   0.780   9.054   7.427  0.1040 -0.0186  0.0007
   67loPI   C6A 1068   0.871   8.772   7.076 -0.0060 -0.0387  0.2453
   67loPI   C1B 1069   1.134   8.591   9.062  0.2808  0.1811  0.1902
   67loPI   C2B 1070   1.159   8.771   8.651 -0.3766  0.1969  0.0836
   67loPI   C3B 1071   1.272   8.682   8.298 -0.2269  0.1038  0.0541
   67loPI   C4B 1072   1.505   8.884   7.960  0.4315  0.0393  0.0919
   68loPI    C1 1073  10.686   0.440   9.805  0.2143 -0.0686 -0.0727
   68loPI    C2 1074  10.675   0.079   9.976 -0.2135  0.0242  0.1096
   68loPI    C3 1075  10.927   0.357  10.113  0.0099 -0.1540  0.0664
   68loPI   PO4 1076  10.471   0.534   9.863 -0.0200 -0.0218 -0.0614
   68loPI   GL1 1077  10.218   0.644   9.577  0.2007  0.0862 -0.1063
   68loPI   GL2 1078   9.981   0.510   9.663 -0.2042  0.2999 -0.0886
   68loPI   C1A 1079  10.244   0.682   9.135  0.1436 -0.5874 -0.0747
   68loPI   C2A 1080  10.224   0.609   8.779 -0.0589 -0.1804  0.0660
   68loPI   C3A 1081  10.303   0.463   8.292 -0.0449  0.0221 -0.0763
   68loPI   C4A 1082  10.438   0.275   7.893 -0.1998  0.0245  0.2667
   68loPI   C5A 1083  10.075   0.102   7.572 -0.1010  0.0600 -0.0539
   68loPI   C6A 1084   9.916   0.029   7.299  0.1604 -0.0306 -0.2921
   68loPI   C1B 1085   9.744   0.334   9.241  0.1935  0.1206 -0.2378
   68loPI   C2B 1086   9.662   0.262   8.835  0.0623  0.0572 -0.0165
   68loPI   C3B 1087   9.938   0.188   8.504 -0.0478  0.0419  0.1898
   68loPI   C4B 1088   9.959   0.135   8.116  0.0588 -0.1393  0.0125
   69loPI    C1 1089   3.338   2.737  10.124  0.0226 -0.1013 -0.0441
   69loPI    C2 1090   3.307   2.357  10.247  0.0539 -0.0316  0.1844
   69loPI    C3 1091   3.123   2.648  10.449 -0.0416  0.0664 -0.0401
   69loPI   PO4 1092   3.259   2.806   9.883 -0.0261  0.1018  0.0214
   69loPI   GL1 1093   3.518   2.735   9.625  0.0398 -0.0249  0.0814
   69loPI   GL2 1094   3.715   3.065   9.682 -0.4051  0.1067  0.4199
   69loPI   C1A 1095   3.430   2.483   9.207 -0.0757 -0.0014 -0.1729
   69loPI   C2A 1096   3.364   2.374   8.812  0.2577 -0.0876  0.3798
   69loPI   C3A 1097   3.411   2.163   8.468 -0.2091  0.0310  0.1494
   69loPI   C4A 1098   3.522   1.923   8.100  0.0395 -0.0275  0.1231
   69loPI   C5A 1099   3.345   1.684   7.794  0.2530 -0.0126 -0.2683
   69loPI   C6A 1100   3.561   1.325   7.779 -0.1089 -0.1404 -0.1366
   69loPI   C1B 1101   3.940   3.174   9.312  0.1520  0.0059 -0.1337
   69loPI   C2B 1102   3.977   3.121   8.831  0.0046  0.1239  0.0853
   69loPI   C3B 1103   4.070   2.951   8.386  0.2555 -0.1529  0.1639
   69loPI   C4B 1104   3.801   3.023   8.004  0.1422 -0.0581  0.1207
   70loPI    C1 1105  13.537  18.288  10.360 -0.0630 -0.2124  0.1673
   70loPI    C2 1106  13.480  17.895  10.404 -0.1668 -0.2054  0.1001
   70loPI    C3 1107  13.303  18.151  10.654 -0.1091 -0.2010  0.1363
   70loPI   PO4 1108  13.385  18.291  10.104 -0.0916  0.1990  0.1420
   70loPI   GL1 1109  13.457  18.197   9.618  0.0737 -0.0529 -0.1014
   70loPI   GL2 1110  13.288  17.944   9.366 -0.0450  0.3406 -0.4187
   70loPI   C1A 1111  13.566  18.341   9.236 -0.3556  0.0694 -0.1263
   70loPI   C2A 1112  13.654  18.381   8.736  0.2070 -0.1867  0.0615
   70loPI   C3A 1113  13.396  18.296   8.391 -0.1657 -0.1294 -0.2279
   70loPI   C4A 1114  12.999  18.310   8.231  0.3083 -0.2236  0.1306
   70loPI   C5A 1115  12.576  18.270   8.040  0.3913 -0.2182 -0.2022
   70loPI   C6A 1116  12.444  18.271   7.611 -0.1813  0.2172 -0.0996
   70loPI   C1B 1117  13.287  18.045   8.826 -0.2108  0.2651 -0.3588
   70loPI   C2B 1118  12.919  17.932   8.565 -0.1041  0.1001  0.1988
   70loPI   C3B 1119  12.645  18.206   8.555  0.1451 -0.1184 -0.2740
   70loPI   C4B 1120  12.320  18.488   8.474  0.0058 -0.1757  0.2661
   71loPI    C1 1121  17.551   3.091   9.790 -0.2088 -0.1541  0.2125
   71loPI    C2 1122  17.678   3.239  10.138  0.1902 -0.0727  0.0378
   71loPI    C3 1123  17.291   3.263  10.040  0.0759 -0.0851  0.4658
   71loPI   PO4 1124  17.693   3.248   9.598 -0.1428  0.1517 -0.2718
   71loPI   GL1 1125  17.945   3.385   9.329 -0.0871 -0.0976  0.3655
   71loPI   GL2 1126  17.941   3.756   9.449  0.0819 -0.0126  0.1948
   71loPI   C1A 1127  17.844   3.211   8.956  0.2776 -0.1868  0.0387
   71loPI   C2A 1128  17.972   3.225   8.522 -0.1435 -0.1351 -0.0169
   71loPI   C3A 1129  18.323   3.306   8.262  0.3513 -0.0316 -0.3359
   71loPI   C4A 1130  18.632   3.246   7.976 -0.1987 -0.0240  0.0659
   71loPI   C5A 1131  18.689   3.411   7.609  0.0032  0.1353  0.1858
   71loPI   C6A 1132  18.491   3.403   7.171 -0.2441 -0.1918 -0.0670
   71loPI   C1B 1133  17.810   3.921   9.055  0.2882  0.2185  0.0440
   71loPI   C2B 1134  17.716   4.050   8.663  0.2088  0.3504 -0.2104
   71loPI   C3B 1135  17.619   4.310   8.381 -0.0389 -0.0905 -0.0596
   71loPI   C4B 1136  17.481   4.453   7.983 -0.0386  0.0693 -0.2484
   72loPI    C1 1137  13.792   7.969   9.833 -0.1531 -0.3820 -0.0747
   72loPI    C2 1138  13.525   8.038  10.123 -0.0470 -0.1482 -0.0298
   72loPI    C3 1139  13.758   7.713  10.138  0.1165 -0.0201  0.2687
   72loPI   PO4 1140  13.924   8.231   9.708  0.0931  0.2096 -0.0654
   72loPI   GL1 1141  13.935   8.402   9.410 -0.3770 -0.0566 -0.1957
   72loPI   GL2 1142  13.671   8.219   9.273  0.1897  0.0959 -0.1420
   72loPI   C1A 1143  14.107   8.536   9.067  0.0948  0.0542  0.1709
   72loPI   C2A 1144  14.020   8.548   8.696  0.3275 -0.0579 -0.2938
   72loPI   C3A 1145  13.988   8.742   8.375  0.1604  0.3803  0.4678
   72loPI   C4A 1146  14.159   8.536   8.002  0.2525 -0.1254 -0.0471
   72loPI   C5A 1147  14.186   8.325   7.590  0.0578 -0.2895 -0.3441
   72loPI   C6A 1148  14.348   8.184   7.166  0.1249  0.0535 -0.2814
   72loPI   C1B 1149  13.705   8.132   8.868  0.0699  0.0637  0.1699
   72loPI   C2B 1150  13.658   8.208   8.475 -0.1142 -0.2187 -0.2004
   72loPI   C3B 1151  13.697   8.106   8.052 -0.3154 -0.0412 -0.0856
   72loPI   C4B 1152  13.676   8.377   7.736  0.0263  0.0865  0.2918
   73loPI    C1 1153   1.723   0.826  10.273 -0.0777 -0.1152  0.0289
   73loPI    C2 1154   1.486   0.816   9.950 -0.0589 -0.2029  0.0176
   73loPI    C3 1155   1.348   0.690  10.304 -0.1679  0.1452  0.1026
   73loPI   PO4 1156   1.935   0.765  10.174  0.2182  0.2662  0.3167
   73loPI   GL1 1157   1.972   0.893   9.737 -0.0063 -0.1274  0.1708
   73loPI   GL2 1158   2.240   1.174   9.722  0.0148 -0.0614 -0.0937
   73loPI   C1A 1159   1.621   1.065   9.335 -0.0019  0.2934  0.0810
   73loPI   C2A 1160   1.362   0.890   9.040  0.4072 -0.0727  0.0425
   73loPI   C3A 1161   0.974   0.782   8.838 -0.1666  0.3952 -0.2260
   73loPI   C4A 1162   0.609   0.642   8.759  0.0889 -0.0547 -0.1519
   73loPI   C5A 1163   0.479   0.301   8.662  0.0186 -0.0036 -0.0373
   73loPI   C6A 1164   0.348  -0.058   8.864 -0.2280  0.1847 -0.0846
   73loPI   C1B 1165   2.126   1.110   9.247  0.0884  0.1947  0.1599
   73loPI   C2B 1166   2.144   0.920   8.797  0.1304  0.1132  0.1486
   73loPI   C3B 1167   2.206   0.584   8.454 -0.0753 -0.0991 -0.1738
   73loPI   C4B 1168   2.564   0.377   8.260  0.2570  0.2568 -0.0148
   74loPI    C1 1169   9.630  14.111  10.280 -0.1919 -0.0534 -0.0085
   74loPI    C2 1170   9.829  14.361  10.522 -0.0617 -0.0524 -0.1156
   74loPI    C3 1171   9.914  13.970  10.525 -0.0114 -0.0426 -0.2085
   74loPI   PO4 1172   9.556  14.246   9.953 -0.3520 -0.1131 -0.4328
   74loPI   GL1 1173   9.560  14.466   9.554 -0.0862 -0.0954 -0.1985
   74loPI   GL2 1174   9.276  14.302   9.556 -0.0115 -0.1139  0.2167
   74loPI   C1A 1175   9.424  14.481   9.077 -0.0044 -0.3064 -0.0093
   74loPI   C2A 1176   9.224  14.478   8.665  0.1397 -0.1977 -0.2561
   74loPI   C3A 1177   9.003  14.364   8.256  0.0495  0.0404 -0.0212
   74loPI   C4A 1178   8.651  14.602   8.025  0.0411  0.0222 -0.1016
   74loPI   C5A 1179   8.476  14.743   7.755  0.0594 -0.2254 -0.0348
   74loPI   C6A 1180   8.515  14.914   7.333 -0.1641 -0.1410 -0.1949
   74loPI   C1B 1181   8.904  14.147   9.279  0.1402  0.2852  0.1982
   74loPI   C2B 1182   8.809  14.153   8.826  0.0970 -0.1401 -0.1473
   74loPI   C3B 1183   8.545  14.127   8.382  0.1824 -0.0756 -0.2848
   74loPI   C4B 1184   8.277  14.227   8.106  0.2678  0.1999  0.1470
   75loPI    C1 1185   8.865   5.830   9.568 -0.5254 -0.0078  0.0175
   75loPI    C2 1186   8.925   5.813   9.963 -0.1628  0.0234 -0.0336
   75loPI    C3 1187   9.182   5.634   9.714 -0.1987  0.2935 -0.2694
   75loPI   PO4 1188   8.821   6.002   9.468  0.1817 -0.0302  0.0701
   75loPI   GL1 1189   8.909   6.161   9.158  0.0949  0.3717  0.1414
   75loPI   GL2 1190   8.551   6.307   9.042  0.0146 -0.0635 -0.1380
   75loPI   C1A 1191   9.105   5.946   8.759  0.2667 -0.0211 -0.0386
   75loPI   C2A 1192   9.216   5.981   8.424  0.1868  0.0449 -0.0863
   75loPI   C3A 1193   9.213   6.007   7.952 -0.0007 -0.1605  0.0279
   75loPI   C4A 1194   9.208   6.150   7.517  0.2115  0.3248  0.1794
   75loPI   C5A 1195   9.160   6.271   7.180 -0.2484 -0.2528  0.0462
   75loPI   C6A 1196   8.998   6.514   6.872  0.2320  0.3487 -0.1043
   75loPI   C1B 1197   8.634   6.067   8.611 -0.0495  0.0296  0.2135
   75loPI   C2B 1198   8.744   5.976   8.216  0.0772 -0.0762  0.3153
   75loPI   C3B 1199   8.724   6.094   7.876 -0.2473  0.0330 -0.0272
   75loPI   C4B 1200   8.677   6.071   7.405  0.0092  0.0983  0.1308
   76loPI    C1 1201  15.745  10.540   9.960 -0.0656 -0.0630  0.0969
   76loPI    C2 1202  16.076  10.391  10.128 -0.0098  0.0405  0.0801
   76loPI    C3 1203  15.890  10.703  10.295 -0.0820  0.0018  0.0725
   76loPI   PO4 1204  15.864  10.416   9.693 -0.2291 -0.1715  0.1751
   76loPI   GL1 1205  15.837  10.251   9.195 -0.0758  0.2587  0.1730
   76loPI   GL2 1206  15.521  10.244   9.187 -0.2935 -0.1922  0.3344
   76loPI   C1A 1207  15.938  10.280   8.738 -0.0291  0.3263 -0.0844
   76loPI   C2A 1208  15.867  10.368   8.296 -0.1860 -0.3297  0.2201
   76loPI   C3A 1209  15.845  10.189   7.950 -0.0687 -0.1425 -0.0495
   76loPI   C4A 1210  15.704   9.758   7.817 -0.1090  0.0356 -0.1873
   76loPI   C5A 1211  15.907   9.691   7.536  0.0875 -0.1265 -0.1528
   76loPI   C6A 1212  16.162   9.722   7.207 -0.3229 -0.0771  0.2845
   76loPI   C1B 1213  15.450  10.219   8.796  0.1043 -0.1439 -0.1092
   76loPI   C2B 1214  15.188  10.403   8.480 -0.1707 -0.1603 -0.1303
   76loPI   C3B 1215  15.119  10.529   8.067  0.3376  0.0482 -0.2250
   76loPI   C4B 1216  15.113  10.639   7.564 -0.2369  0.1200  0.3160
   77loPI    C1 1217  10.388   6.149   9.310  0.2258 -0.0510  0.1273
   77loPI    C2 1218  10.540   6.208   9.675  0.1530  0.2126  0.1167
   77loPI    C3 1219  10.157   6.295   9.602  0.1349  0.0460  0.0077
   77loPI   PO4 1220  10.615   5.994   9.206  0.2766 -0.0502  0.0138
   77loPI   GL1 1221  10.814   5.669   8.753 -0.3603  0.3963  0.2092
   77loPI   GL2 1222  10.815   5.967   8.752 -0.0651 -0.1919  0.0537
   77loPI   C1A 1223  11.024   5.814   8.314  0.3663 -0.1324 -0.2118
   77loPI   C2A 1224  10.821   5.811   7.939  0.0959 -0.1079  0.0229
   77loPI   C3A 1225  10.621   5.805   7.647  0.2671  0.0953  0.1035
   77loPI   C4A 1226  10.570   5.724   7.217  0.0365 -0.4109  0.1673
   77loPI   C5A 1227  10.555   5.788   6.723  0.0569  0.2951 -0.3324
   77loPI   C6A 1228  10.798   5.876   6.453  0.3066 -0.0172  0.5145
   77loPI   C1B 1229  10.592   5.965   8.377 -0.1402  0.2815 -0.2549
   77loPI   C2B 1230  10.181   5.823   8.278  0.0234  0.2576  0.0636
   77loPI   C3B 1231  10.067   5.689   7.849  0.1351  0.1008  0.1940
   77loPI   C4B 1232   9.840   5.335   7.496 -0.1501 -0.0239  0.0800
   78loPI    C1 1233   2.197  18.517  10.354 -0.2236 -0.1522  0.0589
   78loPI    C2 1234   2.498  18.517  10.617  0.0070  0.1265 -0.1985
   78loPI    C3 1235   2.361  18.171  10.470  0.0326 -0.0169  0.1079
   78loPI   PO4 1236   2.299  18.658  10.186  0.1021 -0.0533  0.1331
   78loPI   GL1 1237   2.189  18.943   9.772  0.1513  0.1950 -0.1010
   78loPI   GL2 1238   2.153  18.597   9.662  0.2621  0.0553 -0.2233
   78loPI   C1A 1239   2.094  19.040   9.378  0.0433  0.3661 -0.0457
   78loPI   C2A 1240   1.946  19.049   8.962  0.0917  0.0805  0.2697
   78loPI   C3A 1241   1.816  18.932   8.536  0.0158 -0.0858 -0.0745
   78loPI   C4A 1242   1.810  18.918   8.108 -0.2925  0.0137  0.0912
   78loPI   C5A 1243   1.513  19.153   7.803  0.1397  0.0615  0.1115
   78loPI   C6A 1244   1.184  19.497   7.651  0.2366  0.1328 -0.5977
   78loPI   C1B 1245   2.180  18.581   9.248  0.0447 -0.1040 -0.2071
   78loPI   C2B 1246   2.127  18.553   8.809 -0.3007  0.0980  0.0793
   78loPI   C3B 1247   2.001  18.488   8.335  0.2636 -0.2298 -0.1617
   78loPI   C4B 1248   1.841  18.172   7.982  0.1362  0.2281  0.0647
   79loPI    C1 1249   3.667   4.598  10.277  0.1611 -0.1185  0.2695
   79loPI    C2 1250   3.791   4.249  10.427  0.1637 -0.1958  0.0906
   79loPI    C3 1251   4.058   4.517  10.299  0.1604 -0.1447  0.1899
   79loPI   PO4 1252   3.491   4.585  10.072  0.0372 -0.2409 -0.0441
   79loPI   GL1 1253   3.557   4.571   9.621 -0.2492 -0.2600 -0.0378
   79loPI   GL2 1254   3.263   4.763   9.559 -0.3954 -0.1056  0.0552
   79loPI   C1A 1255   3.741   4.604   9.202  0.0743  0.0551  0.0401
   79loPI   C2A 1256   3.727   4.612   8.719 -0.1720  0.0118 -0.2685
   79loPI   C3A 1257   3.748   4.730   8.302  0.0351 -0.3917  0.3414
   79loPI   C4A 1258   3.667   4.457   8.013 -0.3123 -0.0814  0.3352
   79loPI   C5A 1259   3.760   4.240   7.621  0.0606  0.2167  0.0849
   79loPI   C6A 1260   3.946   4.355   7.224  0.0173  0.2861 -0.1339
   79loPI   C1B 1261   3.261   4.772   9.032 -0.2699 -0.0457 -0.0849
   79loPI   C2B 1262   3.279   4.774   8.551 -0.2533  0.2039  0.1498
   79loPI   C3B 1263   3.209   4.805   8.159 -0.1118  0.4053 -0.1499
   79loPI   C4B 1264   3.034   4.735   7.798  0.2520 -0.1530 -0.3011
   80loPI    C1 1265  12.809  11.406   9.821 -0.1490 -0.0087 -0.0944
   80loPI    C2 1266  12.732  11.022   9.900  0.2551 -0.0507  0.1266
   80loPI    C3 1267  12.734  11.290  10.197 -0.0428  0.1297 -0.0294
   80loPI   PO4 1268  12.766  11.527   9.654 -0.3497 -0.2435  0.0844
   80loPI   GL1 1269  12.833  11.647   9.323 -0.1230  0.4205  0.2223
   80loPI   GL2 1270  13.199  11.663   9.506  0.0759 -0.0316  0.4496
   80loPI   C1A 1271  12.726  11.762   8.943  0.1896 -0.2277  0.1402
   80loPI   C2A 1272  12.677  11.582   8.555  0.0010  0.1176 -0.3130
   80loPI   C3A 1273  12.705  11.574   8.104 -0.0013  0.1358 -0.2456
   80loPI   C4A 1274  12.382  11.816   7.795  0.0135  0.5267 -0.0039
   80loPI   C5A 1275  12.236  11.810   7.350  0.0564 -0.0335  0.2576
   80loPI   C6A 1276  12.232  11.688   7.024 -0.1134  0.0882  0.1602
   80loPI   C1B 1277  13.377  11.762   9.207 -0.2592  0.2745  0.0785
   80loPI   C2B 1278  13.225  11.706   8.802  0.3552 -0.1584  0.0365
   80loPI   C3B 1279  12.953  11.956   8.301 -0.5468  0.0246  0.1663
   80loPI   C4B 1280  12.736  12.351   8.027 -0.0311 -0.2256  0.2060
   81loPI    C1 1281   4.542   9.299   9.964  0.1209 -0.3265  0.2129
   81loPI    C2 1282   4.640   8.945  10.124 -0.0996 -0.2941  0.4251
   81loPI    C3 1283   4.407   9.199  10.327 -0.2131 -0.1636  0.1372
   81loPI   PO4 1284   4.530   9.203   9.633  0.3075  0.0098 -0.0460
   81loPI   GL1 1285   4.313   9.123   9.272 -0.1072 -0.2698  0.0618
   81loPI   GL2 1286   4.545   8.808   9.219  0.1998 -0.0735 -0.2300
   81loPI   C1A 1287   4.506   9.149   8.845 -0.1613 -0.0142  0.3792
   81loPI   C2A 1288   4.790   9.349   8.537  0.0793 -0.1035  0.0362
   81loPI   C3A 1289   4.865   9.584   8.180 -0.0227  0.0466  0.0525
   81loPI   C4A 1290   4.766   9.672   7.716 -0.2454  0.4119 -0.1638
   81loPI   C5A 1291   4.291   9.808   7.619 -0.2432 -0.0590 -0.3023
   81loPI   C6A 1292   4.181  10.303   7.525 -0.1092  0.0040  0.1291
   81loPI   C1B 1293   4.154   8.827   8.883  0.3624  0.0140 -0.0307
   81loPI   C2B 1294   3.979   8.742   8.391  0.1949  0.2528  0.2269
   81loPI   C3B 1295   3.860   8.745   7.957 -0.1065 -0.1329 -0.0216
   81loPI   C4B 1296   4.071   8.940   7.678  0.1354 -0.0753 -0.1377
   82loPI    C1 1297  10.609   2.515   9.732 -0.0758  0.0126  0.0692
   82loPI    C2 1298  10.571   2.190   9.962  0.2391 -0.0139  0.0882
   82loPI    C3 1299  10.809   2.490  10.077  0.1309  0.1230 -0.0407
   82loPI   PO4 1300  10.658   2.467   9.563  0.0669  0.1815 -0.2112
   82loPI   GL1 1301  10.631   2.641   9.229 -0.2809  0.1878 -0.1086
   82loPI   GL2 1302  10.786   2.921   9.110 -0.1474 -0.2857  0.2788
   82loPI   C1A 1303  10.444   2.677   8.811 -0.1982  0.0409  0.5147
   82loPI   C2A 1304  10.418   2.727   8.399  0.3075 -0.0877 -0.1464
   82loPI   C3A 1305  10.405   2.698   7.933 -0.0032  0.4401  0.0675
   82loPI   C4A 1306  10.568   2.598   7.494 -0.0544  0.1074 -0.0533
   82loPI   C5A 1307  10.661   2.627   7.030 -0.0637 -0.2562 -0.0464
   82loPI   C6A 1308  10.687   2.428   6.725  0.0769  0.0147 -0.0921
   82loPI   C1B 1309  10.868   2.825   8.645  0.0585 -0.1587  0.1325
   82loPI   C2B 1310  10.868   2.830   8.257  0.0486  0.1029 -0.1606
   82loPI   C3B 1311  10.894   2.742   7.835  0.1282 -0.4200 -0.0657
   82loPI   C4B 1312  11.100   2.802   7.484  0.1608 -0.0655 -0.2352
   83loPI    C1 1313  17.982   8.243  10.021 -0.0524  0.0092  0.1061
   83loPI    C2 1314  17.940   8.587  10.221  0.0015  0.0330  0.0767
   83loPI    C3 1315  18.281   8.380  10.249 -0.0881 -0.0968  0.2173
   83loPI   PO4 1316  17.927   8.273   9.823 -0.3909 -0.1368 -0.1078
   83loPI   GL1 1317  17.619   8.367   9.476  0.3148  0.0934  0.1791
   83loPI   GL2 1318  17.500   8.691   9.366 -0.1432 -0.1581  0.0265
   83loPI   C1A 1319  17.656   8.150   9.182  0.1454  0.1129  0.0718
   83loPI   C2A 1320  17.803   8.041   8.760 -0.1473  0.0587  0.0086
   83loPI   C3A 1321  17.891   8.121   8.256 -0.0579  0.2621 -0.1930
   83loPI   C4A 1322  17.560   8.155   7.953 -0.0255  0.0116 -0.0610
   83loPI   C5A 1323  17.184   8.257   7.676  0.1302  0.0999  0.2852
   83loPI   C6A 1324  16.691   8.132   7.533  0.2127 -0.0209  0.0402
   83loPI   C1B 1325  17.658   8.785   8.889 -0.1784 -0.1893 -0.4970
   83loPI   C2B 1326  17.784   9.003   8.453 -0.3861 -0.0919  0.3642
   83loPI   C3B 1327  17.722   9.046   7.992  0.1709  0.0188  0.0619
   83loPI   C4B 1328  17.685   9.389   7.657 -0.0929  0.0984  0.0923
   84loPI    C1 1329  16.678   0.847   9.938 -0.0144 -0.1218 -0.1844
   84loPI    C2 1330  16.809   0.973  10.294  0.0598  0.0074 -0.2569
   84loPI    C3 1331  16.618   0.622  10.264 -0.0245  0.0367 -0.0762
   84loPI   PO4 1332  16.928   0.849   9.732 -0.0162  0.0633 -0.2012
   84loPI   GL1 1333  17.126   0.762   9.323  0.4119 -0.1615 -0.1091
   84loPI   GL2 1334  17.478   0.682   9.310 -0.3564  0.1182 -0.0580
   84loPI   C1A 1335  17.101   0.627   8.967 -0.4853  0.0350  0.0956
   84loPI   C2A 1336  17.243   0.689   8.564  0.0867  0.1655  0.1962
   84loPI   C3A 1337  17.204   0.573   8.104  0.0573  0.3222 -0.0672
   84loPI   C4A 1338  17.449   0.455   7.684  0.0016 -0.1553 -0.0649
   84loPI   C5A 1339  17.362   0.132   7.429  0.2466  0.0954  0.4626
   84loPI   C6A 1340  17.602  -0.122   7.129  0.0700 -0.0650  0.0112
   84loPI   C1B 1341  17.610   0.779   8.931  0.1039 -0.0213  0.0526
   84loPI   C2B 1342  17.710   0.811   8.604  0.0668  0.0762  0.1039
   84loPI   C3B 1343  17.737   0.679   8.200  0.1578 -0.0087  0.0117
   84loPI   C4B 1344  17.842   0.927   7.837 -0.2271  0.0870  0.0873
   85loPI    C1 1345   2.335   3.211  10.177  0.2667  0.2141  0.2301
   85loPI    C2 1346   2.041   3.396  10.376  0.2321  0.2677  0.1299
   85loPI    C3 1347   2.037   2.998  10.337 -0.0116  0.2947 -0.1639
   85loPI   PO4 1348   2.364   3.361   9.948  0.3634 -0.1153  0.0121
   85loPI   GL1 1349   2.615   3.484   9.559 -0.3449  0.1426 -0.2157
   85loPI   GL2 1350   2.407   3.759   9.673 -0.0938 -0.0108 -0.1821
   85loPI   C1A 1351   2.744   3.659   9.252 -0.0600 -0.3065  0.1475
   85loPI   C2A 1352   2.614   3.672   8.746  0.0754 -0.2376  0.0774
   85loPI   C3A 1353   2.636   3.460   8.351 -0.2032  0.0605  0.1096
   85loPI   C4A 1354   2.635   3.383   8.000 -0.2152  0.0855 -0.2471
   85loPI   C5A 1355   2.511   3.543   7.657 -0.3924  0.0727 -0.0422
   85loPI   C6A 1356   2.714   3.910   7.522  0.1799  0.1132  0.0530
   85loPI   C1B 1357   2.256   3.650   9.212 -0.0905  0.2621 -0.0994
   85loPI   C2B 1358   2.127   3.551   8.797 -0.1020  0.2308 -0.0400
   85loPI   C3B 1359   2.174   3.674   8.444  0.0631 -0.2079 -0.0377
   85loPI   C4B 1360   2.383   3.817   8.114 -0.0307 -0.1667 -0.0470
   86loPI    C1 1361   8.533  11.843   9.980 -0.0189 -0.0542  0.0366
   86loPI    C2 1362   8.781  11.885  10.290  0.2499  0.1843 -0.2043
   86loPI    C3 1363   8.542  11.565  10.267  0.1638  0.2048  0.2868
   86loPI   PO4 1364   8.620  11.957   9.822  0.1867 -0.0114 -0.3647
   86loPI   GL1 1365   8.941  11.901   9.547 -0.5436 -0.1949  0.2091
   86loPI   GL2 1366   8.947  12.188   9.322 -0.2175  0.2185 -0.2698
   86loPI   C1A 1367   8.600  11.894   9.145  0.1782 -0.1178  0.0697
   86loPI   C2A 1368   8.516  11.707   8.793  0.1714  0.0403 -0.1736
   86loPI   C3A 1369   8.454  11.520   8.342  0.1400  0.0007 -0.0622
   86loPI   C4A 1370   8.314  11.640   7.891  0.1047  0.0554  0.0031
   86loPI   C5A 1371   8.059  11.457   7.588  0.2412  0.1781  0.0959
   86loPI   C6A 1372   7.638  11.306   7.392  0.1505  0.3195 -0.2073
   86loPI   C1B 1373   8.824  12.233   8.850  0.1771  0.0551  0.0800
   86loPI   C2B 1374   8.969  11.941   8.519 -0.0182  0.2449 -0.0284
   86loPI   C3B 1375   8.927  11.626   8.461 -0.1619  0.0993 -0.0382
   86loPI   C4B 1376   8.879  11.393   8.104  0.1913  0.2318  0.1885
   87loPI    C1 1377   5.830   2.492   9.823 -0.3035  0.0052 -0.1387
   87loPI    C2 1378   5.831   2.120   9.971 -0.1187  0.0007 -0.1489
   87loPI    C3 1379   5.863   2.434  10.217 -0.1662  0.0059 -0.1493
   87loPI   PO4 1380   5.939   2.456   9.626  0.3333 -0.0702 -0.0343
   87loPI   GL1 1381   5.675   2.463   9.195  0.4011  0.1263  0.3487
   87loPI   GL2 1382   5.586   2.813   9.251 -0.3842  0.2561  0.1974
   87loPI   C1A 1383   5.741   2.422   8.772 -0.2719 -0.3214  0.0475
   87loPI   C2A 1384   5.649   2.166   8.441 -0.0631 -0.2615 -0.2160
   87loPI   C3A 1385   5.793   2.334   7.947  0.1926 -0.0248 -0.4405
   87loPI   C4A 1386   5.633   2.124   7.582 -0.0893 -0.4860  0.2031
   87loPI   C5A 1387   5.291   1.831   7.621  0.3461 -0.1415 -0.0313
   87loPI   C6A 1388   4.889   1.823   7.524 -0.0938  0.1253 -0.0101
   87loPI   C1B 1389   5.978   2.836   8.981  0.1582  0.0011  0.2384
   87loPI   C2B 1390   6.096   3.112   8.638  0.1424 -0.2462  0.0348
   87loPI   C3B 1391   5.874   3.300   8.295 -0.0207 -0.3801  0.0350
   87loPI   C4B 1392   5.596   3.189   8.092  0.2907  0.1387 -0.3567
   88loPI    C1 1393  14.523  16.342  10.160 -0.0433  0.0144 -0.1041
   88loPI    C2 1394  14.378  16.254  10.522 -0.0476 -0.0586 -0.1234
   88loPI    C3 1395  14.546  16.611  10.455 -0.1618  0.0029 -0.0839
   88loPI   PO4 1396  14.296  16.174  10.004  0.0019 -0.4407 -0.1858
   88loPI   GL1 1397  14.368  16.014   9.645  0.2516  0.0407 -0.0355
   88loPI   GL2 1398  14.528  16.340   9.573 -0.0960 -0.1657 -0.3522
   88loPI   C1A 1399  14.355  16.032   9.160  0.2951 -0.0617  0.0405
   88loPI   C2A 1400  14.226  16.366   8.953 -0.0379 -0.1937  0.1946
   88loPI   C3A 1401  14.179  16.514   8.485 -0.1666 -0.2292  0.2693
   88loPI   C4A 1402  14.319  16.443   8.070 -0.0594 -0.1069  0.0155
   88loPI   C5A 1403  14.360  16.138   7.841 -0.2387 -0.0414  0.1771
   88loPI   C6A 1404  14.421  15.899   7.407 -0.0342 -0.1141 -0.2094
   88loPI   C1B 1405  14.567  16.582   9.244 -0.2726 -0.4098  0.0606
   88loPI   C2B 1406  14.567  16.659   8.798  0.1470 -0.1599 -0.0792
   88loPI   C3B 1407  14.655  16.694   8.415  0.2002 -0.0177 -0.2271
   88loPI   C4B 1408  14.737  16.798   7.911 -0.0780  0.2362  0.1624
   89loPI    C1 1409   8.974  18.668  10.001 -0.0194  0.0363 -0.2045
   89loPI    C2 1410   9.138  18.315  10.090  0.3028  0.2365  0.0172
   89loPI    C3 1411   8.751  18.336   9.993  0.2305 -0.1487  0.2012
   89loPI   PO4 1412   9.174  18.798   9.873 -0.2024 -0.1618  0.0442
   89loPI   GL1 1413   9.402  18.601   9.482 -0.1910  0.0615 -0.0682
   89loPI   GL2 1414   9.483  18.979   9.506 -0.0011 -0.1174 -0.2939
   89loPI   C1A 1415   9.141  18.515   9.122  0.2226 -0.2527  0.0493
   89loPI   C2A 1416   9.028  18.497   8.614  0.0494 -0.2906  0.2482
   89loPI   C3A 1417   8.848  18.326   8.237  0.0370  0.0182  0.1741
   89loPI   C4A 1418   8.956  18.274   7.787 -0.0084 -0.0122 -0.0000
   89loPI   C5A 1419   9.354  18.467   7.650 -0.0951  0.0954  0.2605
   89loPI   C6A 1420   9.673  18.740   7.845  0.1552 -0.0733 -0.0061
   89loPI   C1B 1421   9.391  18.939   9.097 -0.0378  0.2062 -0.1203
   89loPI   C2B 1422   9.518  18.699   8.799  0.2596 -0.2923  0.0075
   89loPI   C3B 1423   9.832  18.669   8.358 -0.0504  0.0266  0.2085
   89loPI   C4B 1424  10.114  18.586   7.972 -0.1037 -0.1707  0.0434
   90loPI    C1 1425  15.754  16.456  10.108  0.0737  0.2567 -0.0260
   90loPI    C2 1426  15.765  16.331  10.488  0.0913  0.1657 -0.0564
   90loPI    C3 1427  15.550  16.654  10.391 -0.0428  0.0956  0.0043
   90loPI   PO4 1428  16.041  16.517  10.032 -0.1785  0.1590  0.1087
   90loPI   GL1 1429  16.230  16.570   9.710 -0.1598  0.2479 -0.1247
   90loPI   GL2 1430  16.375  16.319   9.578  0.1357  0.0276 -0.1718
   90loPI   C1A 1431  16.337  16.809   9.374  0.1437 -0.1027  0.1845
   90loPI   C2A 1432  16.479  16.772   8.977  0.0947  0.1302 -0.0520
   90loPI   C3A 1433  16.403  16.971   8.581 -0.4397 -0.1429 -0.4564
   90loPI   C4A 1434  15.998  17.128   8.481  0.0314 -0.1176  0.2195
   90loPI   C5A 1435  15.978  17.274   8.063 -0.1016  0.2664 -0.1048
   90loPI   C6A 1436  15.968  17.028   7.685  0.1254  0.0802 -0.0906
   90loPI   C1B 1437  16.362  16.319   9.150 -0.2899  0.0109 -0.3344
   90loPI   C2B 1438  16.386  16.334   8.665  0.2332  0.0058  0.0659
   90loPI   C3B 1439  16.507  16.325   8.279 -0.2843  0.0109 -0.0949
   90loPI   C4B 1440  16.440  16.150   7.899 -0.1405  0.2478  0.0589
   91loPI    C1 1441   2.659  14.420  10.194 -0.1192  0.1513 -0.1982
   91loPI    C2 1442   2.981  14.583  10.367 -0.0571  0.0563 -0.2241
   91loPI    C3 1443   2.620  14.635  10.530  0.0080 -0.0805 -0.0323
   91loPI   PO4 1444   2.726  14.424   9.917 -0.0097  0.0755 -0.1104
   91loPI   GL1 1445   2.651  14.383   9.478 -0.0992  0.2903  0.1395
   91loPI   GL2 1446   2.448  14.260   9.399  0.0583  0.0713  0.2408
   91loPI   C1A 1447   2.599  14.704   9.128 -0.2696 -0.2590  0.2416
   91loPI   C2A 1448   2.619  14.719   8.586  0.4263  0.0955 -0.1189
   91loPI   C3A 1449   2.429  14.907   8.163  0.1015  0.0077 -0.1625
   91loPI   C4A 1450   2.405  15.151   7.861  0.3516 -0.0189 -0.0054
   91loPI   C5A 1451   1.998  15.247   7.600  0.1308 -0.3466  0.3740
   91loPI   C6A 1452   2.005  15.453   7.297  0.0577 -0.1841  0.0563
   91loPI   C1B 1453   2.528  13.959   9.096  0.0409 -0.1554  0.0349
   91loPI   C2B 1454   2.603  13.854   8.624  0.1354 -0.2292 -0.0457
   91loPI   C3B 1455   2.778  13.939   8.255 -0.1216 -0.0514  0.0882
   91loPI   C4B 1456   2.888  13.804   7.805 -0.1751  0.1067 -0.1533
   92loPI    C1 1457   9.338   0.328   9.923  0.1127 -0.1904  0.0825
   92loPI    C2 1458   9.345   0.449  10.305  0.1432  0.0395  0.0109
   92loPI    C3 1459   9.522   0.106  10.200  0.1845  0.0040  0.1932
   92loPI   PO4 1460   9.104   0.484   9.838 -0.0219  0.1987  0.1769
   92loPI   GL1 1461   9.074   0.450   9.490  0.1514  0.0665 -0.1176
   92loPI   GL2 1462   8.975   0.103   9.454 -0.2850 -0.2330  0.0035
   92loPI   C1A 1463   9.184   0.482   9.051 -0.1085 -0.0795  0.0609
   92loPI   C2A 1464   9.295   0.650   8.702  0.0616  0.1161  0.1227
   92loPI   C3A 1465   9.163   0.430   8.416  0.0993 -0.5618  0.1673
   92loPI   C4A 1466   8.774   0.343   8.176  0.3840 -0.2424 -0.0623
   92loPI   C5A 1467   8.675   0.249   7.748  0.0523 -0.1864  0.1254
   92loPI   C6A 1468   8.749   0.156   7.409 -0.0563 -0.1574  0.0724
   92loPI   C1B 1469   8.915   0.018   9.027 -0.0310 -0.1532 -0.2370
   92loPI   C2B 1470   9.123   0.001   8.677 -0.0078 -0.3478 -0.2980
   92loPI   C3B 1471   9.425   0.034   8.351 -0.1865  0.2797 -0.4216
   92loPI   C4B 1472   9.503   0.337   8.008 -0.1282 -0.0155 -0.1666
   93loPI    C1 1473  16.579  18.394  10.178 -0.2149 -0.2671 -0.0883
   93loPI    C2 1474  16.369  18.651  10.400 -0.1355 -0.1911 -0.1005
   93loPI    C3 1475  16.764  18.617  10.453 -0.1034 -0.1157 -0.2831
   93loPI   PO4 1476  16.640  18.425   9.927  0.0994 -0.2335 -0.0296
   93loPI   GL1 1477  16.949  18.484   9.612  0.1426 -0.1248 -0.1523
   93loPI   GL2 1478  16.955  18.824   9.621  0.1738  0.3190 -0.0068
   93loPI   C1A 1479  16.900  18.234   9.167  0.3175  0.1350  0.0785
   93loPI   C2A 1480  17.032  18.262   8.769  0.3139  0.4213 -0.0925
   93loPI   C3A 1481  16.923  18.021   8.458 -0.5916 -0.0837  0.0935
   93loPI   C4A 1482  16.909  17.892   7.960 -0.2374 -0.1005 -0.2070
   93loPI   C5A 1483  16.904  17.548   7.663 -0.0935  0.2819 -0.2352
   93loPI   C6A 1484  16.942  17.308   7.256 -0.1487  0.2323 -0.2495
   93loPI   C1B 1485  17.115  18.727   9.140 -0.1610  0.1359 -0.0325
   93loPI   C2B 1486  17.272  18.701   8.731  0.1020  0.1585  0.2509
   93loPI   C3B 1487  17.339  18.817   8.360  0.1229 -0.0491  0.0266
   93loPI   C4B 1488  17.550  18.576   8.049 -0.2515  0.0049 -0.0532
   94loPI    C1 1489   3.707   5.965  10.237  0.2213  0.0521 -0.1803
   94loPI    C2 1490   3.909   5.717   9.997 -0.0492 -0.0668 -0.2890
   94loPI    C3 1491   3.911   5.659  10.392  0.2110 -0.0058 -0.2800
   94loPI   PO4 1492   3.594   6.076  10.041  0.0121 -0.3816 -0.0699
   94loPI   GL1 1493   3.521   6.166   9.613  0.2198 -0.1890  0.1708
   94loPI   GL2 1494   3.180   6.202   9.663  0.1797  0.0667  0.1598
   94loPI   C1A 1495   3.565   5.848   9.220  0.3826  0.1262 -0.6090
   94loPI   C2A 1496   3.758   5.605   8.880  0.0163  0.1877 -0.1579
   94loPI   C3A 1497   3.703   5.734   8.494  0.0590  0.2072 -0.1173
   94loPI   C4A 1498   3.605   5.680   7.989 -0.1576 -0.1038 -0.0641
   94loPI   C5A 1499   3.339   5.669   7.621  0.2174  0.2088  0.1166
   94loPI   C6A 1500   3.258   5.398   7.212  0.1443  0.1939  0.1508
   94loPI   C1B 1501   2.941   5.860   9.384  0.0636 -0.2897  0.1981
   94loPI   C2B 1502   2.898   5.696   8.921  0.0514  0.0255 -0.2309
   94loPI   C3B 1503   2.885   5.683   8.440  0.3099  0.1955 -0.1698
   94loPI   C4B 1504   2.919   5.661   8.005 -0.0810 -0.0080 -0.2435
   95loPI    C1 1505  12.342  17.547  10.286  0.0224 -0.0401  0.0801
   95loPI    C2 1506  12.128  17.809  10.499 -0.0386 -0.1275  0.1269
   95loPI    C3 1507  12.527  17.835  10.493 -0.0495  0.0300  0.0471
   95loPI   PO4 1508  12.170  17.608  10.054 -0.3623  0.2658 -0.3692
   95loPI   GL1 1509  12.358  17.596   9.719 -0.1535  0.0276 -0.1788
   95loPI   GL2 1510  12.465  17.526   9.413 -0.3325  0.1439  0.0044
   95loPI   C1A 1511  12.184  17.889   9.273  0.1514  0.1485 -0.1391
   95loPI   C2A 1512  11.817  17.653   8.988 -0.1032  0.0671 -0.1812
   95loPI   C3A 1513  11.667  17.523   8.684  0.3627 -0.0467  0.0738
   95loPI   C4A 1514  11.368  17.469   8.352  0.1267  0.3447  0.0319
   95loPI   C5A 1515  11.184  17.090   8.126 -0.2514 -0.2355  0.2314
   95loPI   C6A 1516  11.146  16.866   7.795 -0.1361 -0.0411  0.0977
   95loPI   C1B 1517  12.273  17.287   9.071  0.0520  0.2485 -0.2356
   95loPI   C2B 1518  11.959  17.025   8.866  0.4484 -0.2380 -0.1431
   95loPI   C3B 1519  11.910  17.048   8.465 -0.3421  0.0405  0.1899
   95loPI   C4B 1520  11.954  16.944   8.008 -0.1099  0.0725  0.2607
   96loPI    C1 1521  15.198  14.111  10.235  0.3748 -0.1327 -0.1908
   96loPI    C2 1522  15.471  13.904  10.442  0.2215 -0.0991  0.0488
   96loPI    C3 1523  15.505  14.301  10.406  0.0790 -0.0640  0.2822
   96loPI   PO4 1524  15.178  13.996  10.004 -0.1852  0.2875 -0.0158
   96loPI   GL1 1525  15.311  14.223   9.670 -0.0034  0.1793  0.0546
   96loPI   GL2 1526  15.240  14.518   9.698  0.0323  0.4465 -0.1844
   96loPI   C1A 1527  15.491  14.206   9.352 -0.0224  0.1677  0.6161
   96loPI   C2A 1528  15.521  14.064   8.888 -0.1312 -0.1869  0.1755
   96loPI   C3A 1529  15.455  14.123   8.379 -0.2383  0.1777 -0.0868
   96loPI   C4A 1530  15.499  14.443   8.077  0.3405  0.0648  0.1140
   96loPI   C5A 1531  15.794  14.674   7.749 -0.0929  0.1054 -0.0857
   96loPI   C6A 1532  15.663  14.887   7.372 -0.0311  0.1049 -0.0325
   96loPI   C1B 1533  15.284  14.672   9.316 -0.2688 -0.4670  0.0366
   96loPI   C2B 1534  15.357  14.921   9.025  0.2038  0.1321 -0.1432
   96loPI   C3B 1535  15.472  15.074   8.576  0.3105 -0.1131 -0.1815
   96loPI   C4B 1536  15.512  15.398   8.251 -0.1334 -0.0694  0.1828
   97loPI    C1 1537   9.832   4.235   9.723  0.0050  0.1427 -0.0576
   97loPI    C2 1538   9.859   3.944   9.996 -0.1294  0.1966  0.0139
   97loPI    C3 1539   9.716   4.303  10.100 -0.0845  0.2491 -0.1036
   97loPI   PO4 1540   9.946   4.103   9.542 -0.1016  0.2780 -0.0233
   97loPI   GL1 1541   9.977   4.173   9.152  0.3538 -0.0561 -0.2137
   97loPI   GL2 1542  10.252   4.305   9.031 -0.0374 -0.0865 -0.0808
   97loPI   C1A 1543   9.727   4.129   8.784 -0.1140 -0.1547 -0.1440
   97loPI   C2A 1544   9.421   4.201   8.515  0.1712  0.3889 -0.2467
   97loPI   C3A 1545   9.392   4.207   8.040 -0.3883 -0.1357  0.1476
   97loPI   C4A 1546   9.593   4.140   7.675  0.1998 -0.1988 -0.1791
   97loPI   C5A 1547   9.906   4.090   7.365  0.0306 -0.0494  0.0643
   97loPI   C6A 1548  10.104   3.914   7.049 -0.2429  0.3375 -0.1516
   97loPI   C1B 1549  10.198   4.189   8.637 -0.2487 -0.1097 -0.1163
   97loPI   C2B 1550   9.954   4.069   8.289  0.0878 -0.2909 -0.0259
   97loPI   C3B 1551  10.047   4.377   7.858 -0.0503  0.2327  0.0241
   97loPI   C4B 1552  10.458   4.504   7.717 -0.0372  0.4484 -0.4500
   98loPI    C1 1553  14.331   7.686  10.187 -0.2131  0.1903 -0.1034
   98loPI    C2 1554  14.489   7.969  10.422  0.0720 -0.0275 -0.0268
   98loPI    C3 1555  14.573   7.584  10.489 -0.3867 -0.1410 -0.0721
   98loPI   PO4 1556  14.253   7.793   9.958 -0.0371  0.0257  0.2233
   98loPI   GL1 1557  14.190   7.847   9.560  0.2771  0.0762  0.4488
   98loPI   GL2 1558  14.565   7.857   9.563  0.1186 -0.0097 -0.3192
   98loPI   C1A 1559  14.051   7.887   9.097 -0.0933 -0.2350 -0.1073
   98loPI   C2A 1560  14.142   7.950   8.628  0.2024  0.1533 -0.1153
   98loPI   C3A 1561  14.281   8.210   8.328  0.0701 -0.2501  0.2115
   98loPI   C4A 1562  14.625   8.210   7.993 -0.0572  0.0906  0.2069
   98loPI   C5A 1563  14.597   8.004   7.545 -0.1161 -0.0495 -0.3271
   98loPI   C6A 1564  14.830   8.119   7.187 -0.4600  0.2819  0.1812
   98loPI   C1B 1565  14.546   7.736   9.134  0.0021 -0.1609 -0.1122
   98loPI   C2B 1566  14.614   7.636   8.691  0.0561 -0.0039 -0.0868
   98loPI   C3B 1567  14.422   7.718   8.329  0.2046  0.4183 -0.0026
   98loPI   C4B 1568  14.316   7.830   7.942 -0.0434  0.1415  0.1755
   99loPI    C1 1569  13.473   3.971   9.792 -0.0181 -0.0238  0.1393
   99loPI    C2 1570  13.418   4.305  10.005  0.0968  0.0383  0.0720
   99loPI    C3 1571  13.789   4.184   9.914  0.0601 -0.1663  0.1889
   99loPI   PO4 1572  13.312   3.965   9.661  0.2467  0.2649  0.0037
   99loPI   GL1 1573  13.225   4.289   9.365  0.2033 -0.4223  0.2915
   99loPI   GL2 1574  13.485   4.407   9.495 -0.1070  0.0599 -0.1576
   99loPI   C1A 1575  13.174   4.258   8.920 -0.1145 -0.1311 -0.0286
   99loPI   C2A 1576  13.255   4.135   8.520 -0.0286  0.3112  0.0140
   99loPI   C3A 1577  13.046   4.238   8.230  0.2290  0.1246  0.4119
   99loPI   C4A 1578  12.837   3.930   7.899 -0.2793 -0.4197 -0.2826
   99loPI   C5A 1579  12.732   4.110   7.538 -0.1780 -0.0651  0.0643
   99loPI   C6A 1580  12.557   4.367   7.288  0.0776  0.3285  0.1764
   99loPI   C1B 1581  13.625   4.343   9.061 -0.1520 -0.2401  0.0212
   99loPI   C2B 1582  13.639   4.434   8.625  0.0805 -0.3760  0.3175
   99loPI   C3B 1583  13.609   4.187   8.148 -0.0389 -0.0478  0.0420
   99loPI   C4B 1584  13.363   4.120   7.758  0.0499  0.2908 -0.1240
  100loPI    C1 1585   1.711   2.472  10.299  0.0346 -0.4009  0.0246
  100loPI    C2 1586   1.760   2.190  10.578 -0.0982 -0.2029  0.2522
  100loPI    C3 1587   1.392   2.286  10.453 -0.0653 -0.0184  0.2948
  100loPI   PO4 1588   1.876   2.490  10.078  0.0072  0.2962  0.1716
  100loPI   GL1 1589   1.808   2.459   9.710  0.0803 -0.0839 -0.0742
  100loPI   GL2 1590   1.719   2.133   9.600  0.4522 -0.0703  0.2342
  100loPI   C1A 1591   1.885   2.485   9.370 -0.0756 -0.1816  0.0266
  100loPI   C2A 1592   1.741   2.155   9.084 -0.1352  0.0669 -0.2367
  100loPI   C3A 1593   1.746   1.982   8.797 -0.1775  0.0819 -0.1949
  100loPI   C4A 1594   1.556   1.944   8.463 -0.1719  0.0948 -0.2294
  100loPI   C5A 1595   1.615   2.048   8.102  0.3797 -0.1194 -0.2786
  100loPI   C6A 1596   1.616   2.248   7.700  0.0915  0.1523 -0.0577
  100loPI   C1B 1597   1.414   1.947   9.352  0.0303  0.2212 -0.1866
  100loPI   C2B 1598   1.249   1.843   8.927 -0.1199  0.2949 -0.0997
  100loPI   C3B 1599   1.007   1.919   8.484 -0.0218 -0.2685  0.0630
  100loPI   C4B 1600   0.822   1.879   8.010  0.0206 -0.2464 -0.0847
  101loPI    C1 1601   1.931  17.619  10.156  0.0931  0.1926 -0.1221
  101loPI    C2 1602   2.297  17.690  10.302  0.0908 -0.0289 -0.0039
  101loPI    C3 1603   2.223  17.349  10.106 -0.1084 -0.0858  0.1669
  101loPI   PO4 1604   1.900  17.791  10.000  0.1947  0.0845  0.3389
  101loPI   GL1 1605   1.990  17.986   9.607 -0.1412 -0.0117  0.1474
  101loPI   GL2 1606   1.942  17.567   9.594  0.4059  0.0803 -0.0392
  101loPI   C1A 1607   2.062  18.060   9.282  0.0017  0.0927  0.2050
  101loPI   C2A 1608   2.072  17.982   8.762 -0.3970 -0.1642 -0.0802
  101loPI   C3A 1609   2.037  17.955   8.389  0.3102 -0.1116 -0.3378
  101loPI   C4A 1610   2.381  18.121   8.098 -0.3375  0.1703 -0.0751
  101loPI   C5A 1611   2.498  18.417   7.810 -0.0249  0.0915 -0.0163
  101loPI   C6A 1612   2.840  18.635   7.638  0.3648 -0.1348  0.1233
  101loPI   C1B 1613   2.050  17.502   9.183 -0.2788 -0.0054  0.0834
  101loPI   C2B 1614   2.054  17.485   8.783 -0.1022  0.3004 -0.0435
  101loPI   C3B 1615   1.808  17.453   8.433  0.4628  0.0408 -0.0208
  101loPI   C4B 1616   1.870  17.588   8.066  0.2786 -0.0624 -0.1315
  102loPI    C1 1617   4.299  15.768  10.304  0.0571  0.1055  0.0906
  102loPI    C2 1618   4.600  16.030  10.287 -0.0591  0.2386  0.0611
  102loPI    C3 1619   4.483  15.882  10.640  0.1458  0.0616  0.0572
  102loPI   PO4 1620   4.246  15.751  10.000  0.4466  0.0813 -0.0332
  102loPI   GL1 1621   4.254  15.586   9.574 -0.0171  0.0473 -0.0272
  102loPI   GL2 1622   4.642  15.636   9.519  0.0524 -0.3068 -0.2431
  102loPI   C1A 1623   4.098  15.693   9.148 -0.2813 -0.1085  0.1121
  102loPI   C2A 1624   4.095  15.688   8.783 -0.1995  0.0549  0.0824
  102loPI   C3A 1625   4.142  15.757   8.361  0.1409 -0.3569  0.2308
  102loPI   C4A 1626   4.013  15.833   8.029 -0.0571 -0.2041  0.6324
  102loPI   C5A 1627   4.034  15.981   7.616  0.0605  0.2524  0.1341
  102loPI   C6A 1628   4.309  16.292   7.538  0.0820  0.0246  0.0249
  102loPI   C1B 1629   4.625  15.779   9.162  0.4247  0.0490 -0.0298
  102loPI   C2B 1630   4.800  15.861   8.829 -0.1864  0.2705 -0.1017
  102loPI   C3B 1631   4.624  15.941   8.374 -0.2006  0.0101 -0.0347
  102loPI   C4B 1632   4.468  15.913   7.975  0.0112  0.3437  0.1971
  103loPI    C1 1633  15.971   0.304   9.911  0.0325 -0.1311  0.1769
  103loPI    C2 1634  16.282   0.555   9.896 -0.1428  0.0801  0.0097
  103loPI    C3 1635  15.981   0.625  10.151 -0.0784 -0.0966  0.1361
  103loPI   PO4 1636  16.012   0.155   9.728  0.0517  0.0171  0.1716
  103loPI   GL1 1637  16.286   0.106   9.289  0.1914 -0.0875 -0.2023
  103loPI   GL2 1638  16.563  -0.210   9.314  0.1104 -0.0372 -0.1358
  103loPI   C1A 1639  16.212  -0.282   8.976  0.3551 -0.3023 -0.3971
  103loPI   C2A 1640  15.957  -0.338   8.595 -0.0254 -0.0008  0.0754
  103loPI   C3A 1641  15.952  -0.058   8.139 -0.1793 -0.0749 -0.1140
  103loPI   C4A 1642  16.108  -0.102   7.783 -0.0137  0.1215  0.0357
  103loPI   C5A 1643  15.926  -0.376   7.452  0.2513  0.0607 -0.0740
  103loPI   C6A 1644  15.642  -0.763   7.396  0.0568 -0.1890  0.2390
  103loPI   C1B 1645  16.661  -0.308   8.816 -0.2905  0.0682 -0.0255
  103loPI   C2B 1646  16.810  -0.398   8.354 -0.0801  0.0966 -0.0930
  103loPI   C3B 1647  17.084  -0.564   8.127 -0.2253  0.1146 -0.1399
  103loPI   C4B 1648  17.360  -0.873   8.109  0.0226  0.4944 -0.1851
  104loPI    C1 1649  15.300  11.127   9.888 -0.0281 -0.1750 -0.0866
  104loPI    C2 1650  15.288  11.222  10.276 -0.0121  0.0297 -0.1350
  104loPI    C3 1651  14.956  11.247  10.054  0.0554  0.2594 -0.2134
  104loPI   PO4 1652  15.434  10.894   9.840  0.0379 -0.0501 -0.1403
  104loPI   GL1 1653  15.433  10.692   9.542  0.1545  0.3564  0.1395
  104loPI   GL2 1654  15.405  11.018   9.364 -0.1676  0.1956 -0.0750
  104loPI   C1A 1655  15.161  10.666   9.096 -0.3039  0.0400  0.1854
  104loPI   C2A 1656  14.860  10.431   8.870 -0.0656 -0.2671 -0.1076
  104loPI   C3A 1657  14.610  10.257   8.533 -0.2881 -0.2696  0.0750
  104loPI   C4A 1658  14.701  10.268   8.155  0.3007 -0.0887 -0.1224
  104loPI   C5A 1659  14.796  10.192   7.711  0.0378 -0.0953 -0.0654
  104loPI   C6A 1660  14.828  10.168   7.242  0.2085 -0.2177  0.1998
  104loPI   C1B 1661  15.522  11.250   8.999  0.0897 -0.0988  0.1447
  104loPI   C2B 1662  15.536  11.337   8.561  0.0408  0.0384  0.1636
  104loPI   C3B 1663  15.625  11.262   8.118  0.0820 -0.4859  0.4112
  104loPI   C4B 1664  15.658  11.138   7.728  0.0491 -0.1893  0.1141
  105loPI    C1 1665  14.153   5.293   9.924 -0.0291 -0.1842 -0.1124
  105loPI    C2 1666  13.990   5.572   9.688 -0.2911  0.0502  0.3323
  105loPI    C3 1667  14.384   5.507   9.677 -0.3017  0.0313 -0.1872
  105loPI   PO4 1668  14.022   5.050   9.866 -0.0241 -0.1408 -0.2357
  105loPI   GL1 1669  13.849   4.784   9.545 -0.2772  0.1903 -0.0712
  105loPI   GL2 1670  14.013   4.401   9.538 -0.2251  0.0450  0.0128
  105loPI   C1A 1671  13.723   4.959   9.155 -0.0554 -0.1299 -0.0329
  105loPI   C2A 1672  13.793   4.936   8.738  0.0314 -0.0665 -0.0977
  105loPI   C3A 1673  13.661   4.853   8.364 -0.0610 -0.1344 -0.0981
  105loPI   C4A 1674  13.579   4.651   7.991 -0.3946  0.2864  0.0911
  105loPI   C5A 1675  13.826   4.464   7.573 -0.0739  0.1780  0.2316
  105loPI   C6A 1676  14.170   4.173   7.263  0.2311 -0.1066  0.0548
  105loPI   C1B 1677  14.114   4.586   9.118 -0.2810 -0.0063  0.1256
  105loPI   C2B 1678  14.111   4.561   8.609  0.3136  0.1198  0.0495
  105loPI   C3B 1679  14.093   4.783   8.215 -0.0582 -0.1185  0.3442
  105loPI   C4B 1680  14.005   4.866   7.759 -0.2232  0.0058 -0.1483
  106loPI    C1 1681  11.174   6.018   9.165 -0.0646  0.1766  0.0583
  106loPI    C2 1682  11.126   6.093   9.555  0.1723  0.1291  0.0979
  106loPI    C3 1683  10.992   5.749   9.399  0.3801 -0.0034  0.2070
  106loPI   PO4 1684  11.152   6.224   9.053  0.2520 -0.2434 -0.1657
  106loPI   GL1 1685  11.500   6.434   8.815  0.1973 -0.3642  0.0151
  106loPI   GL2 1686  11.630   6.283   8.926 -0.0332  0.4611 -0.0138
  106loPI   C1A 1687  11.525   6.464   8.371  0.0573 -0.1280 -0.1213
  106loPI   C2A 1688  11.313   6.677   8.128 -0.3004 -0.0569  0.0316
  106loPI   C3A 1689  11.289   6.881   7.748 -0.2500  0.2407  0.0629
  106loPI   C4A 1690  10.892   6.740   7.457  0.0561  0.0845  0.2281
  106loPI   C5A 1691  10.582   6.951   7.210 -0.1552 -0.0593 -0.1702
  106loPI   C6A 1692  10.583   7.275   6.992 -0.0398  0.1745 -0.3723
  106loPI   C1B 1693  11.940   6.321   8.601  0.3810 -0.1442  0.3879
  106loPI   C2B 1694  11.975   6.295   8.172 -0.0984 -0.2974  0.0303
  106loPI   C3B 1695  11.996   6.273   7.682 -0.1804  0.1312  0.0783
  106loPI   C4B 1696  12.148   6.318   7.188  0.1455  0.0547  0.0954
  107loPI    C1 1697   5.760   8.214   9.998  0.1231  0.0480  0.1747
  107loPI    C2 1698   5.570   7.877   9.898  0.0873  0.1094  0.0334
  107loPI    C3 1699   5.580   7.995  10.280  0.1638 -0.0899  0.0946
  107loPI   PO4 1700   5.788   8.458   9.771 -0.0350 -0.1681  0.1370
  107loPI   GL1 1701   6.047   8.602   9.473  0.2002  0.0576 -0.3409
  107loPI   GL2 1702   5.938   8.886   9.475  0.0156  0.2616 -0.0491
  107loPI   C1A 1703   6.320   8.558   9.076 -0.0086 -0.0826  0.2247
  107loPI   C2A 1704   6.288   8.524   8.624  0.0456  0.0280  0.1892
  107loPI   C3A 1705   6.119   8.552   8.151  0.2106 -0.0664 -0.2197
  107loPI   C4A 1706   6.226   8.373   7.684  0.1694 -0.0615 -0.3446
  107loPI   C5A 1707   6.545   8.168   7.577  0.1398 -0.2114  0.0270
  107loPI   C6A 1708   6.598   7.710   7.437 -0.1420  0.0397 -0.3740
  107loPI   C1B 1709   6.036   8.959   8.940 -0.3200 -0.2311 -0.2183
  107loPI   C2B 1710   6.127   8.942   8.435 -0.1025 -0.1589 -0.0160
  107loPI   C3B 1711   6.046   9.066   8.001 -0.3026  0.1458 -0.1790
  107loPI   C4B 1712   6.088   9.298   7.617 -0.2804  0.1025 -0.2384
  108loPI    C1 1713  13.541   3.550  10.030 -0.1059  0.1559 -0.3085
  108loPI    C2 1714  13.782   3.810  10.215 -0.0189 -0.0592 -0.1144
  108loPI    C3 1715  13.387   3.832  10.268 -0.0020 -0.0519  0.0134
  108loPI   PO4 1716  13.760   3.426   9.911  0.1164 -0.1219  0.0644
  108loPI   GL1 1717  13.824   3.446   9.507 -0.0057  0.1697  0.1456
  108loPI   GL2 1718  14.062   3.511   9.267 -0.1881  0.2037  0.2691
  108loPI   C1A 1719  13.688   3.267   9.066  0.1307  0.4573  0.3043
  108loPI   C2A 1720  13.692   3.209   8.584  0.1047  0.2518 -0.1535
  108loPI   C3A 1721  13.582   3.281   8.044 -0.1431 -0.1290  0.1612
  108loPI   C4A 1722  13.379   3.508   7.610 -0.0690 -0.2010 -0.2502
  108loPI   C5A 1723  12.932   3.637   7.458 -0.0783 -0.1161  0.0117
  108loPI   C6A 1724  12.686   3.538   7.120 -0.0417 -0.2689 -0.0742
  108loPI   C1B 1725  13.994   3.592   8.863  0.2457 -0.1936 -0.1669
  108loPI   C2B 1726  13.874   3.622   8.478  0.2082 -0.2492  0.0254
  108loPI   C3B 1727  13.952   3.708   8.075  0.0575  0.2489 -0.2647
  108loPI   C4B 1728  13.839   3.887   7.694 -0.0177  0.1300  0.1265
  109loPI    C1 1729  17.338  13.413  10.166  0.0404  0.0317  0.0937
  109loPI    C2 1730  16.963  13.276  10.144  0.1309 -0.2137  0.0482
  109loPI    C3 1731  17.238  13.073  10.352  0.2331 -0.0216  0.1023
  109loPI   PO4 1732  17.395  13.435   9.859 -0.1348  0.1423 -0.3590
  109loPI   GL1 1733  17.599  13.606   9.508 -0.0677 -0.2999  0.0506
  109loPI   GL2 1734  17.730  13.803   9.414 -0.0308  0.1262  0.0315
  109loPI   C1A 1735  17.268  13.744   9.212 -0.2724  0.3833  0.1423
  109loPI   C2A 1736  17.212  13.869   8.832 -0.2352  0.1873 -0.1316
  109loPI   C3A 1737  17.094  14.047   8.473  0.0359  0.2494  0.1218
  109loPI   C4A 1738  16.930  14.132   8.075 -0.1617 -0.0660  0.1584
  109loPI   C5A 1739  16.864  14.357   7.755 -0.2924  0.1695  0.1579
  109loPI   C6A 1740  16.487  14.408   7.706  0.3880  0.3686 -0.0400
  109loPI   C1B 1741  17.710  13.966   9.033  0.1601 -0.1006  0.2064
  109loPI   C2B 1742  17.616  13.921   8.602 -0.0376  0.3053  0.1941
  109loPI   C3B 1743  17.456  13.981   8.118 -0.2100  0.2602 -0.0622
  109loPI   C4B 1744  17.303  14.116   7.743  0.0497  0.1411 -0.0170
  110loPI    C1 1745   4.216   0.570  10.373 -0.2676  0.0696 -0.1673
  110loPI    C2 1746   4.033   0.582  10.728  0.0634 -0.1022  0.0140
  110loPI    C3 1747   4.344   0.822  10.656 -0.0418 -0.0233 -0.1848
  110loPI   PO4 1748   4.065   0.353  10.295 -0.2891 -0.2448  0.2365
  110loPI   GL1 1749   3.873   0.236   9.877  0.0957  0.0565  0.0685
  110loPI   GL2 1750   3.775   0.461   9.721 -0.1465  0.2459 -0.0726
  110loPI   C1A 1751   4.097   0.045   9.522 -0.1543 -0.2501  0.2466
  110loPI   C2A 1752   4.071   0.007   9.107  0.0397  0.4715  0.1345
  110loPI   C3A 1753   4.101  -0.201   8.685  0.3870 -0.3368  0.1858
  110loPI   C4A 1754   4.023  -0.252   8.209 -0.0406  0.1202  0.1355
  110loPI   C5A 1755   3.948  -0.356   7.813 -0.0768 -0.0384 -0.0856
  110loPI   C6A 1756   3.488  -0.602   7.779 -0.1099  0.3773  0.1490
  110loPI   C1B 1757   3.984   0.523   9.327  0.1860  0.1819 -0.0903
  110loPI   C2B 1758   3.903   0.435   8.925 -0.2157 -0.3145 -0.2524
  110loPI   C3B 1759   3.931   0.261   8.540  0.2155  0.0223 -0.0216
  110loPI   C4B 1760   3.688   0.086   8.244 -0.0425 -0.3050  0.0600
  111loPI    C1 1761  13.182  12.385  10.305  0.0891  0.0289 -0.0127
  111loPI    C2 1762  12.920  12.109  10.429  0.3000 -0.1316  0.0808
  111loPI    C3 1763  13.275  12.145  10.611  0.3292  0.1099 -0.0197
  111loPI   PO4 1764  13.004  12.657  10.296 -0.0508 -0.1001 -0.1810
  111loPI   GL1 1765  13.039  12.982  10.094  0.1284 -0.1232  0.1966
  111loPI   GL2 1766  13.227  13.167   9.970 -0.2076  0.3101 -0.2199
  111loPI   C1A 1767  13.041  12.915   9.569  0.0873 -0.1703  0.1427
  111loPI   C2A 1768  13.099  13.184   9.221  0.0106  0.2624 -0.0633
  111loPI   C3A 1769  12.985  13.485   8.962  0.1209  0.1589 -0.0011
  111loPI   C4A 1770  12.939  13.488   8.545  0.1691 -0.1065 -0.4773
  111loPI   C5A 1771  12.777  13.440   8.237 -0.0726  0.0761  0.1248
  111loPI   C6A 1772  12.630  13.388   7.771 -0.3161 -0.1347 -0.2126
  111loPI   C1B 1773  12.825  13.307   9.725 -0.2807 -0.1750 -0.2247
  111loPI   C2B 1774  12.609  13.097   9.354 -0.2412 -0.3754 -0.0056
  111loPI   C3B 1775  12.660  13.099   8.906 -0.2522 -0.3027 -0.0126
  111loPI   C4B 1776  12.630  13.022   8.443  0.4312 -0.1877  0.0580
  112loPI    C1 1777   5.621  11.684   9.892  0.0923 -0.2814 -0.1341
  112loPI    C2 1778   5.757  11.636  10.265 -0.0379  0.0396 -0.0415
  112loPI    C3 1779   5.368  11.583  10.185 -0.0015 -0.0798 -0.1436
  112loPI   PO4 1780   5.720  11.580   9.736 -0.2288  0.1634 -0.1147
  112loPI   GL1 1781   6.188  11.374   9.572 -0.1545  0.1825 -0.1703
  112loPI   GL2 1782   6.151  11.636   9.575  0.0021 -0.2209  0.1068
  112loPI   C1A 1783   6.366  11.099   9.346  0.3961  0.0320 -0.0047
  112loPI   C2A 1784   6.416  10.960   8.934 -0.2259  0.1139 -0.2679
  112loPI   C3A 1785   6.201  11.064   8.515  0.2546 -0.1656  0.2078
  112loPI   C4A 1786   5.923  11.118   8.238  0.0061  0.1519 -0.0537
  112loPI   C5A 1787   5.483  11.024   8.131 -0.0044  0.3430  0.1651
  112loPI   C6A 1788   5.031  10.947   8.061 -0.1363 -0.3469 -0.2824
  112loPI   C1B 1789   6.249  11.968   9.220 -0.0382  0.1270 -0.1045
  112loPI   C2B 1790   6.587  12.007   8.867 -0.2160  0.1049  0.1480
  112loPI   C3B 1791   6.574  11.804   8.464 -0.0484  0.0525 -0.0361
  112loPI   C4B 1792   6.294  11.481   8.290  0.0948 -0.0778  0.1079
  113loPI    C1 1793  14.985  18.729  10.347  0.0631  0.0316  0.2734
  113loPI    C2 1794  14.605  18.846  10.298  0.1138  0.1058  0.0429
  113loPI    C3 1795  14.862  19.079  10.498  0.0553  0.0868  0.1406
  113loPI   PO4 1796  14.906  18.535  10.009 -0.0799  0.1287  0.0022
  113loPI   GL1 1797  14.869  18.538   9.604 -0.1032  0.3110  0.0589
  113loPI   GL2 1798  15.211  18.704   9.551  0.0351  0.2233 -0.1296
  113loPI   C1A 1799  14.984  18.486   9.180 -0.1216  0.0704 -0.0865
  113loPI   C2A 1800  14.955  18.493   8.646  0.3920  0.0282  0.0754
  113loPI   C3A 1801  15.040  18.737   8.356  0.1366  0.0796 -0.0302
  113loPI   C4A 1802  14.995  18.885   7.963  0.2790 -0.0088 -0.1894
  113loPI   C5A 1803  15.248  19.140   7.648 -0.4644  0.0304  0.2204
  113loPI   C6A 1804  15.690  19.165   7.604  0.1005 -0.1470  0.0797
  113loPI   C1B 1805  15.325  18.891   9.152  0.0782 -0.1775 -0.2466
  113loPI   C2B 1806  15.367  19.124   8.786  0.0822  0.1255 -0.0726
  113loPI   C3B 1807  15.564  19.061   8.430  0.3651 -0.6341  0.1211
  113loPI   C4B 1808  15.381  19.160   8.127 -0.0109  0.3202 -0.0547
  114loPI    C1 1809   2.570  10.870  10.211  0.1318  0.1785 -0.1072
  114loPI    C2 1810   2.923  11.045  10.282  0.0681  0.2796 -0.0387
  114loPI    C3 1811   2.655  11.007  10.577  0.1990 -0.2073  0.0267
  114loPI   PO4 1812   2.501  10.916   9.875 -0.1402  0.1190  0.0825
  114loPI   GL1 1813   2.551  11.276   9.477  0.0560  0.2603  0.1998
  114loPI   GL2 1814   2.549  11.018   9.428  0.5810  0.2825 -0.0493
  114loPI   C1A 1815   2.871  11.562   9.195 -0.0578  0.5323  0.1402
  114loPI   C2A 1816   3.320  11.727   9.051  0.1207  0.0412 -0.0790
  114loPI   C3A 1817   3.491  11.771   8.613  0.0687 -0.1136  0.4352
  114loPI   C4A 1818   3.543  11.666   8.183  0.1082  0.1381  0.1021
  114loPI   C5A 1819   3.307  11.676   7.679  0.3238 -0.0997  0.0206
  114loPI   C6A 1820   3.230  11.743   7.201  0.0023  0.0304  0.2232
  114loPI   C1B 1821   2.691  11.009   9.056  0.1963  0.0225 -0.0208
  114loPI   C2B 1822   2.911  10.939   8.610 -0.2098  0.2780 -0.2595
  114loPI   C3B 1823   2.760  11.024   8.125 -0.0716  0.0298 -0.1878
  114loPI   C4B 1824   2.526  11.029   7.720 -0.1385 -0.1173  0.2001
  115loPI    C1 1825  18.142   6.365   9.952 -0.1182  0.1048  0.0422
  115loPI    C2 1826  18.048   6.175  10.291 -0.4235  0.0431 -0.0731
  115loPI    C3 1827  18.099   6.572  10.291 -0.2027  0.0166  0.0860
  115loPI   PO4 1828  18.315   6.257   9.840  0.2655  0.0131  0.1091
  115loPI   GL1 1829  18.646   5.962   9.655  0.0583 -0.2310  0.0059
  115loPI   GL2 1830  18.516   6.015   9.469 -0.2036 -0.1577 -0.4244
  115loPI   C1A 1831  18.745   5.638   9.276  0.0224 -0.0931 -0.0856
  115loPI   C2A 1832  18.649   5.730   8.783  0.1744 -0.2157 -0.3459
  115loPI   C3A 1833  18.809   5.739   8.468  0.2381 -0.2383  0.1023
  115loPI   C4A 1834  18.999   5.710   8.016  0.2030  0.2081  0.1852
  115loPI   C5A 1835  19.188   5.691   7.547  0.1459 -0.0232  0.0261
  115loPI   C6A 1836  19.237   5.996   7.310 -0.1303  0.0510 -0.0862
  115loPI   C1B 1837  18.703   6.140   9.118  0.0740  0.1829 -0.3663
  115loPI   C2B 1838  18.846   6.230   8.714 -0.1663 -0.3420  0.4314
  115loPI   C3B 1839  19.137   6.129   8.309  0.1391 -0.0958 -0.1627
  115loPI   C4B 1840  19.478   5.826   8.108  0.1566  0.1579  0.3335
  116loPI    C1 1841   5.285  11.067  10.053  0.1494  0.1156 -0.4216
  116loPI    C2 1842   5.219  10.788   9.773 -0.0593 -0.0678 -0.1936
  116loPI    C3 1843   5.223  10.687  10.160  0.1738  0.1932 -0.1243
  116loPI   PO4 1844   5.510  11.133  10.019  0.0430 -0.3349 -0.2891
  116loPI   GL1 1845   5.619  11.147   9.562  0.3243 -0.1327  0.3281
  116loPI   GL2 1846   5.911  10.980   9.491 -0.0887  0.0273  0.0574
  116loPI   C1A 1847   5.351  10.904   9.293  0.1734 -0.1909  0.3405
  116loPI   C2A 1848   5.247  10.905   8.980  0.0830 -0.1160  0.0031
  116loPI   C3A 1849   5.147  11.030   8.576  0.0327  0.1959  0.2231
  116loPI   C4A 1850   4.774  11.101   8.503  0.2505 -0.2766 -0.1383
  116loPI   C5A 1851   4.582  11.436   8.303  0.0446 -0.1834  0.2116
  116loPI   C6A 1852   4.635  11.687   7.958 -0.1464  0.0025 -0.0264
  116loPI   C1B 1853   5.964  10.750   9.133  0.0154  0.0851  0.1417
  116loPI   C2B 1854   6.037  10.640   8.669 -0.2461 -0.0197  0.1046
  116loPI   C3B 1855   5.901  10.362   8.364 -0.1545 -0.1225  0.0920
  116loPI   C4B 1856   5.822  10.529   7.938 -0.3428  0.1319 -0.1379
  117loPI    C1 1857  10.812   1.363   9.986 -0.0144 -0.0595 -0.1162
  117loPI    C2 1858  10.615   1.710   9.962 -0.0627 -0.0641  0.1729
  117loPI    C3 1859  10.840   1.630  10.282  0.3024 -0.1175 -0.0907
  117loPI   PO4 1860  10.747   1.371   9.645 -0.2582 -0.3592  0.0920
  117loPI   GL1 1861  10.662   1.310   9.254  0.0105 -0.1511  0.2796
  117loPI   GL2 1862  10.471   1.032   9.340 -0.4547  0.1954 -0.0745
  117loPI   C1A 1863  10.858   1.217   8.951 -0.1126 -0.2467 -0.3580
  117loPI   C2A 1864  11.168   1.189   8.788  0.2507  0.2053 -0.3570
  117loPI   C3A 1865  11.342   1.269   8.364  0.0534 -0.1324  0.2666
  117loPI   C4A 1866  11.397   1.308   7.980  0.0681 -0.1091  0.2021
  117loPI   C5A 1867  11.635   1.566   7.661 -0.3298  0.3755  0.1673
  117loPI   C6A 1868  11.840   1.708   7.351  0.1293  0.2650 -0.3071
  117loPI   C1B 1869  10.301   1.141   8.896 -0.2769  0.1520 -0.0820
  117loPI   C2B 1870  10.608   1.318   8.530 -0.0671  0.0213 -0.1829
  117loPI   C3B 1871  10.870   1.331   8.225 -0.1004 -0.1168 -0.1980
  117loPI   C4B 1872  10.947   1.449   7.918  0.0909 -0.0807  0.1288
  118loPI    C1 1873  13.187   7.633  10.050  0.3293  0.1960  0.1659
  118loPI    C2 1874  13.015   7.950   9.876  0.0953  0.0722  0.1680
  118loPI    C3 1875  13.065   7.942  10.273  0.0897  0.1010  0.1693
  118loPI   PO4 1876  13.419   7.579   9.828 -0.2167 -0.0521 -0.0972
  118loPI   GL1 1877  13.524   7.761   9.462 -0.0352 -0.1791 -0.0211
  118loPI   GL2 1878  13.230   7.868   9.442  0.1194  0.4891  0.0444
  118loPI   C1A 1879  13.637   7.617   9.150 -0.1969  0.3098  0.0643
  118loPI   C2A 1880  13.755   7.659   8.638 -0.0366  0.3878 -0.0485
  118loPI   C3A 1881  13.910   7.681   8.244  0.1446  0.1065  0.1473
  118loPI   C4A 1882  13.896   7.517   7.850 -0.1096  0.1295 -0.0004
  118loPI   C5A 1883  13.661   7.436   7.571  0.0722 -0.3099  0.2215
  118loPI   C6A 1884  13.327   7.149   7.436 -0.1865  0.2212  0.2338
  118loPI   C1B 1885  13.265   7.912   9.036 -0.1385 -0.0070  0.1618
  118loPI   C2B 1886  13.280   7.854   8.719  0.1110 -0.0813 -0.1355
  118loPI   C3B 1887  13.376   7.820   8.374  0.1993 -0.0264 -0.0440
  118loPI   C4B 1888  13.465   7.563   8.066  0.4455 -0.0431  0.0627
  119loPI    C1 1889  14.116  10.673   9.856 -0.3623 -0.3231  0.0564
  119loPI    C2 1890  14.047  10.498  10.209 -0.0304  0.0831  0.3333
  119loPI    C3 1891  14.195  10.869  10.196 -0.0804  0.0918 -0.2382
  119loPI   PO4 1892  14.254  10.581   9.709  0.0202 -0.0960 -0.3126
  119loPI   GL1 1893  14.434  10.571   9.263 -0.0987  0.3060  0.2139
  119loPI   GL2 1894  14.506  10.865   9.269  0.0504  0.0679 -0.0665
  119loPI   C1A 1895  14.203  10.396   8.926  0.0082  0.2154  0.0409
  119loPI   C2A 1896  14.090  10.393   8.485  0.0222 -0.1330 -0.2664
  119loPI   C3A 1897  14.193  10.145   8.237  0.1380 -0.2220 -0.3218
  119loPI   C4A 1898  14.051   9.924   7.894  0.1867 -0.0531 -0.2127
  119loPI   C5A 1899  13.645   9.820   7.508  0.0123 -0.0973  0.0679
  119loPI   C6A 1900  13.306   9.517   7.408  0.3002  0.2646  0.0276
  119loPI   C1B 1901  14.684  10.866   8.796 -0.0262  0.1166  0.2575
  119loPI   C2B 1902  14.839  10.752   8.438 -0.0609 -0.1642 -0.0029
  119loPI   C3B 1903  14.745  10.869   8.037 -0.0289  0.5038  0.0745
  119loPI   C4B 1904  14.697  10.935   7.648  0.4436  0.4100 -0.3763
  120loPI    C1 1905  17.441   6.413   9.863 -0.2874  0.0196 -0.0888
  120loPI    C2 1906  17.643   6.443  10.207  0.0176 -0.2390 -0.2397
  120loPI    C3 1907  17.283   6.270  10.201 -0.1434  0.0777  0.0041
  120loPI   PO4 1908  17.613   6.315   9.703  0.0431 -0.2826 -0.1515
  120loPI   GL1 1909  17.785   5.996   9.404 -0.4119  0.1352 -0.0736
  120loPI   GL2 1910  18.122   5.808   9.293 -0.0357 -0.2484 -0.1402
  120loPI   C1A 1911  17.747   5.820   8.949 -0.2335 -0.0232  0.0911
  120loPI   C2A 1912  17.752   5.891   8.538  0.3440  0.3124  0.1211
  120loPI   C3A 1913  17.987   5.987   8.144 -0.1337  0.0179  0.0567
  120loPI   C4A 1914  18.269   5.962   7.711  0.3197  0.0286  0.3222
  120loPI   C5A 1915  18.659   6.115   7.530  0.3113  0.2643  0.0496
  120loPI   C6A 1916  19.029   6.123   7.740  0.2796  0.1144  0.1789
  120loPI   C1B 1917  18.279   5.436   8.990  0.0069 -0.1289 -0.2225
  120loPI   C2B 1918  18.312   5.513   8.508 -0.1069 -0.2259 -0.1783
  120loPI   C3B 1919  18.322   5.622   8.074 -0.0148  0.1500  0.2333
  120loPI   C4B 1920  18.560   5.511   7.720  0.2675  0.1888 -0.1285
  121loPI    C1 1921  13.986  14.122  10.024 -0.0021  0.0507  0.2152
  121loPI    C2 1922  13.859  14.493   9.945  0.0122 -0.0247 -0.1817
  121loPI    C3 1923  13.944  14.386  10.321 -0.3062  0.2736 -0.0199
  121loPI   PO4 1924  14.188  14.146   9.878  0.1969  0.3663  0.0778
  121loPI   GL1 1925  14.268  14.217   9.497 -0.2658 -0.0463 -0.0569
  121loPI   GL2 1926  13.946  14.166   9.506  0.0157 -0.1578 -0.0109
  121loPI   C1A 1927  14.453  14.301   9.049  0.2145 -0.1575  0.1527
  121loPI   C2A 1928  14.518  14.498   8.710 -0.0790 -0.2495 -0.0371
  121loPI   C3A 1929  14.581  14.702   8.360  0.2234  0.2172 -0.2500
  121loPI   C4A 1930  14.694  14.969   7.986 -0.1352 -0.1103 -0.0755
  121loPI   C5A 1931  14.411  15.318   7.756  0.0115 -0.0016  0.0847
  121loPI   C6A 1932  14.142  15.641   7.806 -0.4201  0.0285 -0.2278
  121loPI   C1B 1933  14.051  14.057   8.997 -0.0304  0.0696 -0.1313
  121loPI   C2B 1934  14.233  14.050   8.652 -0.0402 -0.4692 -0.1751
  121loPI   C3B 1935  14.213  14.231   8.328 -0.3168 -0.3336 -0.0214
  121loPI   C4B 1936  14.293  14.570   8.005 -0.1076  0.4195 -0.3801
  122loPI    C1 1937   7.526  18.594  10.320 -0.1898  0.0991  0.0249
  122loPI    C2 1938   7.286  18.860  10.499 -0.0568  0.1515  0.1268
  122loPI    C3 1939   7.609  18.720  10.691 -0.0315  0.0459  0.0083
  122loPI   PO4 1940   7.571  18.730   9.983  0.0791 -0.1054  0.2799
  122loPI   GL1 1941   7.753  19.008   9.723 -0.3842 -0.5271 -0.1926
  122loPI   GL2 1942   7.942  18.918   9.527  0.1803  0.0791  0.1115
  122loPI   C1A 1943   7.778  19.279   9.225  0.1077 -0.1672  0.0571
  122loPI   C2A 1944   7.654  19.404   8.830  0.1284  0.0353  0.0145
  122loPI   C3A 1945   7.751  19.429   8.435  0.1264 -0.0177 -0.1840
  122loPI   C4A 1946   8.097  19.352   8.022 -0.0266  0.1348 -0.3923
  122loPI   C5A 1947   8.262  18.927   7.962  0.1547 -0.1643  0.1791
  122loPI   C6A 1948   8.641  18.658   7.890  0.1695  0.0761 -0.1202
  122loPI   C1B 1949   7.935  18.746   9.125  0.2979 -0.3389  0.2688
  122loPI   C2B 1950   8.104  18.573   8.738  0.4011  0.1979 -0.1121
  122loPI   C3B 1951   8.313  18.443   8.269  0.0345 -0.0723 -0.3356
  122loPI   C4B 1952   8.408  18.177   7.987  0.0221  0.0970  0.1215
  123loPI    C1 1953   4.449   4.964  10.147  0.0633 -0.0112 -0.1679
  123loPI    C2 1954   4.710   5.215   9.978 -0.1757  0.3317 -0.0399
  123loPI    C3 1955   4.773   5.080  10.350  0.1724 -0.1485 -0.2617
  123loPI   PO4 1956   4.412   4.728   9.936  0.2385 -0.1360 -0.0913
  123loPI   GL1 1957   4.524   4.465   9.522  0.1510  0.1879  0.0253
  123loPI   GL2 1958   4.166   4.392   9.488 -0.3122 -0.3142 -0.1886
  123loPI   C1A 1959   4.714   4.492   9.134  0.0100 -0.0123 -0.0009
  123loPI   C2A 1960   4.704   4.555   8.734 -0.2071 -0.1934  0.1686
  123loPI   C3A 1961   4.681   4.535   8.224  0.2388  0.2524 -0.1558
  123loPI   C4A 1962   4.731   4.450   7.788  0.1423  0.3721  0.1730
  123loPI   C5A 1963   4.938   4.478   7.396 -0.3014  0.1342 -0.1861
  123loPI   C6A 1964   5.253   4.681   7.206 -0.0436 -0.0535 -0.0395
  123loPI   C1B 1965   4.261   4.607   9.061  0.0638  0.1715 -0.2306
  123loPI   C2B 1966   4.244   4.547   8.612 -0.0458 -0.0038 -0.0556
  123loPI   C3B 1967   4.151   4.492   8.186 -0.1126  0.1992  0.0354
  123loPI   C4B 1968   4.194   4.223   7.890 -0.0957 -0.0639 -0.1460
  124loPI    C1 1969  18.605   9.467   9.804  0.1361  0.1171 -0.1646
  124loPI    C2 1970  18.690   9.633  10.158  0.0299  0.1219 -0.1412
  124loPI    C3 1971  18.840   9.790   9.822 -0.0152  0.2249 -0.1134
  124loPI   PO4 1972  18.700   9.115   9.844 -0.0594  0.3133 -0.0001
  124loPI   GL1 1973  18.798   8.874   9.637  0.2692 -0.2812 -0.0238
  124loPI   GL2 1974  19.069   8.890   9.568 -0.2659  0.1828  0.3466
  124loPI   C1A 1975  18.625   8.846   9.176  0.0268 -0.2602 -0.1110
  124loPI   C2A 1976  18.676   8.722   8.733 -0.0521  0.0682  0.2358
  124loPI   C3A 1977  18.812   8.827   8.339 -0.3054  0.0420  0.2036
  124loPI   C4A 1978  18.903   8.917   7.915 -0.0485  0.1002  0.2098
  124loPI   C5A 1979  18.694   9.197   7.591  0.0208 -0.1183  0.1270
  124loPI   C6A 1980  18.417   9.379   7.320  0.0218 -0.0540 -0.1771
  124loPI   C1B 1981  19.154   8.954   9.223 -0.3915 -0.0114  0.0480
  124loPI   C2B 1982  19.168   8.955   8.819 -0.1370 -0.1674  0.2432
  124loPI   C3B 1983  19.262   8.905   8.436 -0.0071  0.3034 -0.1150
  124loPI   C4B 1984  19.357   9.048   7.980  0.2923  0.0073  0.0069
  125loPI    C1 1985   8.182  16.661  10.314 -0.1653 -0.0141 -0.1061
  125loPI    C2 1986   8.576  16.727  10.327 -0.1231 -0.2143 -0.2980
  125loPI    C3 1987   8.392  16.550  10.635 -0.0863 -0.0090 -0.1558
  125loPI   PO4 1988   8.227  16.626   9.986  0.2889  0.1896 -0.0224
  125loPI   GL1 1989   8.168  16.523   9.584  0.0100 -0.0708  0.1477
  125loPI   GL2 1990   7.925  16.402   9.665  0.4601  0.2010 -0.0177
  125loPI   C1A 1991   8.348  16.390   9.344 -0.0506  0.2164  0.2713
  125loPI   C2A 1992   8.287  16.138   9.009 -0.1060  0.1798  0.1161
  125loPI   C3A 1993   8.386  16.119   8.575  0.1666  0.3110  0.3575
  125loPI   C4A 1994   8.395  16.423   8.240 -0.3364  0.2363 -0.0040
  125loPI   C5A 1995   8.599  16.527   8.004 -0.2429  0.0628  0.1959
  125loPI   C6A 1996   8.785  16.389   7.581 -0.2018 -0.0087  0.0315
  125loPI   C1B 1997   7.816  16.128   9.344 -0.2742 -0.0262  0.0548
  125loPI   C2B 1998   7.768  16.019   8.931 -0.2737  0.0868  0.1352
  125loPI   C3B 1999   7.606  15.907   8.415  0.2910  0.0552  0.1001
  125loPI   C4B 2000   7.791  15.574   8.150 -0.3456  0.2558  0.1966
  126loPI    C1 2001  10.540  12.730  10.521  0.0677  0.0572 -0.0605
  126loPI    C2 2002  10.190  12.861  10.663  0.1842  0.0417  0.2484
  126loPI    C3 2003  10.257  12.468  10.627  0.0814  0.0487 -0.0448
  126loPI   PO4 2004  10.593  12.976  10.293 -0.0932 -0.1419  0.1873
  126loPI   GL1 2005  10.596  12.867   9.842  0.0767 -0.1181 -0.1799
  126loPI   GL2 2006  10.823  12.909   9.657 -0.1657 -0.1605  0.0617
  126loPI   C1A 2007  10.291  12.926   9.515  0.1043 -0.0809  0.1108
  126loPI   C2A 2008  10.123  13.215   9.233 -0.2852 -0.3568  0.2080
  126loPI   C3A 2009   9.796  13.084   8.897  0.1357  0.0650  0.0484
  126loPI   C4A 2010   9.377  12.915   8.639 -0.1208 -0.0075  0.1685
  126loPI   C5A 2011   9.328  12.991   8.234  0.2346 -0.0328  0.2851
  126loPI   C6A 2012   9.176  13.037   7.852  0.0328  0.4257 -0.1827
  126loPI   C1B 2013  11.139  12.877   9.234  0.0830  0.0054 -0.4273
  126loPI   C2B 2014  11.156  12.853   8.868  0.2699  0.1195  0.2204
  126loPI   C3B 2015  10.979  12.728   8.493 -0.0392 -0.2808 -0.0113
  126loPI   C4B 2016  11.084  12.507   8.143 -0.1188  0.0063 -0.1955
  127loPI    C1 2017   9.488  18.169  10.360 -0.1336  0.2374 -0.2820
  127loPI    C2 2018   9.513  18.269  10.747 -0.0545 -0.2983 -0.1406
  127loPI    C3 2019   9.157  18.184  10.584 -0.1549  0.4106 -0.3238
  127loPI   PO4 2020   9.725  18.237  10.278 -0.2238  0.3221 -0.3575
  127loPI   GL1 2021   9.859  18.112   9.886  0.3462 -0.0106  0.1313
  127loPI   GL2 2022   9.705  17.793   9.937 -0.0146  0.0590 -0.1177
  127loPI   C1A 2023   9.560  18.119   9.565 -0.1271  0.2040  0.1668
  127loPI   C2A 2024   9.626  18.006   9.128 -0.0647 -0.1645 -0.2091
  127loPI   C3A 2025   9.576  17.830   8.774 -0.1772 -0.1473  0.2503
  127loPI   C4A 2026   9.482  17.645   8.326 -0.1135  0.3644 -0.2774
  127loPI   C5A 2027   9.298  17.301   8.124 -0.0814 -0.3873  0.2510
  127loPI   C6A 2028   9.010  16.982   7.984  0.1218  0.3140 -0.0464
  127loPI   C1B 2029   9.828  17.660   9.517  0.0088 -0.1162  0.1479
  127loPI   C2B 2030   9.828  17.553   9.113  0.1053  0.2789  0.4792
  127loPI   C3B 2031   9.812  17.338   8.675  0.2402 -0.0952 -0.1092
  127loPI   C4B 2032   9.766  17.143   8.428 -0.3062 -0.0163  0.0574
  128loPI    C1 2033  16.410   9.266   9.755 -0.0387 -0.0381  0.0430
  128loPI    C2 2034  16.786   9.174   9.852 -0.0719 -0.3111 -0.0774
  128loPI    C3 2035  16.599   9.474  10.039  0.1782 -0.2230  0.0364
  128loPI   PO4 2036  16.244   8.993   9.744  0.1041  0.0369  0.0723
  128loPI   GL1 2037  16.009   8.858   9.440  0.2362  0.2871 -0.3560
  128loPI   GL2 2038  16.085   9.133   9.265  0.0278  0.0712  0.0142
  128loPI   C1A 2039  16.172   8.634   9.100  0.1982 -0.1122 -0.1677
  128loPI   C2A 2040  16.210   8.404   8.722  0.0823 -0.0649 -0.0680
  128loPI   C3A 2041  16.195   8.314   8.297 -0.0139 -0.2443  0.2547
  128loPI   C4A 2042  16.129   8.374   7.908  0.0772  0.1060  0.0165
  128loPI   C5A 2043  16.086   8.165   7.494 -0.0421  0.2715 -0.4090
  128loPI   C6A 2044  15.896   7.859   7.279  0.0167  0.1522  0.0429
  128loPI   C1B 2045  16.187   9.108   8.855  0.5038  0.0165  0.0867
  128loPI   C2B 2046  16.278   8.839   8.498  0.1621  0.1726 -0.0742
  128loPI   C3B 2047  16.256   8.844   8.070  0.1304  0.2210  0.1998
  128loPI   C4B 2048  16.497   8.632   7.649  0.1297 -0.1746 -0.0227
  129loPI    C1 2049   4.975   1.115   9.688  0.0375  0.1775 -0.1867
  129loPI    C2 2050   5.204   1.346   9.922  0.0277  0.1413 -0.1413
  129loPI    C3 2051   5.371   1.056   9.702  0.0348  0.1647 -0.1669
  129loPI   PO4 2052   4.783   1.339   9.619 -0.0665 -0.0810 -0.1828
  129loPI   GL1 2053   4.758   1.592   9.227  0.3002 -0.0087 -0.1968
  129loPI   GL2 2054   4.412   1.449   9.222  0.1340 -0.1210 -0.4344
  129loPI   C1A 2055   4.822   1.554   8.768  0.1788 -0.3478  0.1100
  129loPI   C2A 2056   4.836   1.365   8.340 -0.4571 -0.1286 -0.0766
  129loPI   C3A 2057   4.855   1.279   7.874  0.1244  0.3990 -0.1580
  129loPI   C4A 2058   4.971   1.132   7.423 -0.0470 -0.2342  0.0539
  129loPI   C5A 2059   4.945   0.986   7.004  0.1221  0.2322 -0.1511
  129loPI   C6A 2060   5.062   0.501   6.858 -0.1170 -0.1177 -0.1130
  129loPI   C1B 2061   4.350   1.357   8.851  0.2036  0.1397  0.0765
  129loPI   C2B 2062   4.140   1.415   8.465  0.4810 -0.1339 -0.0018
  129loPI   C3B 2063   3.987   1.552   8.053  0.7325 -0.2121  0.0065
  129loPI   C4B 2064   3.870   1.729   7.715  0.1880 -0.1549 -0.1066
  130loPI    C1 2065   5.636  18.514  10.168  0.0960 -0.1357 -0.0828
  130loPI    C2 2066   5.705  18.897  10.075  0.0084 -0.1560 -0.2333
  130loPI    C3 2067   5.918  18.720  10.363 -0.0079  0.0301 -0.1053
  130loPI   PO4 2068   5.514  18.449   9.916  0.3452 -0.3257 -0.0335
  130loPI   GL1 2069   5.592  18.452   9.558  0.1084 -0.1002  0.1900
  130loPI   GL2 2070   5.813  18.362   9.413  0.0570  0.1331 -0.3551
  130loPI   C1A 2071   5.403  18.640   9.168 -0.1370 -0.1983 -0.1539
  130loPI   C2A 2072   5.250  18.451   8.915  0.2894  0.2803  0.0976
  130loPI   C3A 2073   5.178  18.592   8.449 -0.0228 -0.4484 -0.5319
  130loPI   C4A 2074   5.346  18.694   8.053  0.1130  0.2359 -0.1981
  130loPI   C5A 2075   5.776  18.753   7.675  0.1579 -0.4176 -0.3826
  130loPI   C6A 2076   5.759  18.911   7.291 -0.3155 -0.0124  0.1619
  130loPI   C1B 2077   5.781  18.231   9.013 -0.1216 -0.0370 -0.0891
  130loPI   C2B 2078   5.973  18.033   8.732 -0.1070 -0.2257 -0.1296
  130loPI   C3B 2079   6.024  17.944   8.361 -0.0294 -0.0112  0.1651
  130loPI   C4B 2080   6.015  17.875   7.948 -0.1099 -0.2213  0.2592
  131loPI    C1 2081  12.134   7.614   9.921  0.0663  0.0359 -0.1132
  131loPI    C2 2082  12.289   7.416   9.610 -0.2669 -0.1276 -0.1805
  131loPI    C3 2083  12.144   7.215   9.924 -0.1372  0.0299 -0.0167
  131loPI   PO4 2084  12.027   7.800   9.800 -0.3746  0.2425  0.0563
  131loPI   GL1 2085  12.001   7.748   9.309 -0.0887 -0.0715  0.1465
  131loPI   GL2 2086  11.701   7.700   9.268 -0.1023  0.2035 -0.0812
  131loPI   C1A 2087  12.298   7.581   8.949  0.4305 -0.0610  0.1201
  131loPI   C2A 2088  12.378   7.645   8.445 -0.0100  0.3122 -0.0050
  131loPI   C3A 2089  12.366   7.605   7.964  0.3287  0.0705  0.1476
  131loPI   C4A 2090  12.527   7.499   7.509  0.1289  0.2946  0.0336
  131loPI   C5A 2091  12.326   7.216   7.228 -0.0582 -0.0659  0.3063
  131loPI   C6A 2092  12.231   6.810   7.016 -0.1145 -0.0302 -0.2929
  131loPI   C1B 2093  11.593   7.569   8.933 -0.1215  0.0845 -0.1786
  131loPI   C2B 2094  11.604   7.450   8.520 -0.1830 -0.2005  0.0290
  131loPI   C3B 2095  11.656   7.292   8.013 -0.1369  0.1559 -0.1569
  131loPI   C4B 2096  11.667   7.197   7.628 -0.1578 -0.1583  0.1120
  132loPI    C1 2097  16.101  15.940  10.686  0.0545  0.1366  0.0017
  132loPI    C2 2098  16.402  15.697  10.788 -0.2199 -0.2482 -0.0870
  132loPI    C3 2099  16.282  15.983  11.040 -0.0085 -0.3166  0.0942
  132loPI   PO4 2100  16.153  16.110  10.419 -0.3449  0.0303  0.3706
  132loPI   GL1 2101  16.077  16.034   9.958 -0.3742 -0.2514  0.0357
  132loPI   GL2 2102  15.799  16.157   9.745  0.2614  0.2129  0.2331
  132loPI   C1A 2103  16.232  15.774   9.589  0.4156 -0.2264 -0.2774
  132loPI   C2A 2104  16.398  15.436   9.407  0.3807 -0.1420  0.0750
  132loPI   C3A 2105  16.406  15.320   8.934  0.2495  0.0369  0.1930
  132loPI   C4A 2106  16.430  15.410   8.602 -0.1626  0.0045  0.1234
  132loPI   C5A 2107  16.388  15.490   8.165  0.0661  0.0029  0.2151
  132loPI   C6A 2108  16.210  15.678   7.759  0.1025 -0.2596  0.4938
  132loPI   C1B 2109  15.796  15.923   9.315 -0.1363  0.1196  0.1085
  132loPI   C2B 2110  16.154  15.718   9.074 -0.1384 -0.0187  0.1907
  132loPI   C3B 2111  16.527  15.829   8.892  0.0376  0.1107  0.0250
  132loPI   C4B 2112  16.559  15.896   8.450 -0.1477 -0.0294  0.1480
  133loPI    C1 2113   1.906  14.608   9.807  0.0520  0.2128 -0.0127
  133loPI    C2 2114   2.103  14.513  10.142  0.1093  0.1721 -0.0578
  133loPI    C3 2115   2.164  14.303   9.807 -0.2104 -0.0122 -0.0044
  133loPI   PO4 2116   1.952  14.916   9.736 -0.2744  0.0966  0.1303
  133loPI   GL1 2117   1.827  15.194   9.282  0.0589 -0.2793  0.1045
  133loPI   GL2 2118   1.501  15.244   9.288 -0.3072 -0.4790 -0.2421
  133loPI   C1A 2119   1.860  15.191   8.882  0.3404 -0.0794 -0.3710
  133loPI   C2A 2120   1.864  15.243   8.516 -0.1150  0.1628  0.0604
  133loPI   C3A 2121   1.995  15.135   8.146 -0.1237 -0.0195 -0.1852
  133loPI   C4A 2122   1.994  14.821   7.894 -0.3934  0.1553 -0.1054
  133loPI   C5A 2123   2.238  14.667   7.607  0.0115  0.0241  0.3612
  133loPI   C6A 2124   2.208  14.394   7.352 -0.0392  0.0822 -0.0612
  133loPI   C1B 2125   1.363  15.308   8.875 -0.2871  0.2233  0.3360
  133loPI   C2B 2126   1.407  15.271   8.297  0.1216  0.2761  0.0811
  133loPI   C3B 2127   1.599  15.268   7.890  0.1061 -0.4058  0.0959
  133loPI   C4B 2128   1.435  15.134   7.537 -0.4334  0.0219 -0.1349
  134loPI    C1 2129   5.326  13.185  10.156  0.0962  0.2232 -0.0940
  134loPI    C2 2130   5.354  13.024  10.521 -0.0646  0.0163 -0.1705
  134loPI    C3 2131   5.164  13.373  10.470  0.1949  0.1829 -0.0185
  134loPI   PO4 2132   5.463  12.972   9.999  0.0254  0.2596 -0.0054
  134loPI   GL1 2133   5.521  12.713   9.642  0.1189  0.0170  0.3330
  134loPI   GL2 2134   5.248  13.030   9.572  0.0804  0.0072  0.1866
  134loPI   C1A 2135   5.088  12.600   9.408  0.0042 -0.1350 -0.1691
  134loPI   C2A 2136   5.042  12.446   9.012 -0.0003  0.0921 -0.2118
  134loPI   C3A 2137   5.198  12.443   8.638 -0.3332  0.2313 -0.0347
  134loPI   C4A 2138   5.224  12.592   8.287  0.1643  0.1091 -0.2147
  134loPI   C5A 2139   5.090  12.676   7.909  0.3883 -0.4109  0.1996
  134loPI   C6A 2140   4.770  12.605   7.562 -0.0651 -0.3077 -0.0666
  134loPI   C1B 2141   5.314  13.071   9.115  0.2676 -0.1063  0.0398
  134loPI   C2B 2142   5.189  13.052   8.666  0.1662  0.0968  0.0865
  134loPI   C3B 2143   5.218  13.104   8.160 -0.1748  0.0962 -0.2019
  134loPI   C4B 2144   5.345  13.459   7.684  0.0226 -0.0145  0.3917
  135loPI    C1 2145  17.631   9.976  10.006  0.1514  0.0393 -0.1612
  135loPI    C2 2146  17.608   9.587  10.098 -0.2998 -0.0029 -0.4238
  135loPI    C3 2147  17.344   9.846  10.252  0.1306  0.2438 -0.0756
  135loPI   PO4 2148  17.793   9.974   9.799 -0.1171 -0.1215  0.2850
  135loPI   GL1 2149  18.052   9.843   9.529  0.2724 -0.3320  0.1321
  135loPI   GL2 2150  18.348   9.703   9.487  0.2055 -0.5638 -0.0405
  135loPI   C1A 2151  17.997  10.016   8.933  0.2619  0.0033  0.3892
  135loPI   C2A 2152  18.018   9.915   8.547  0.1969 -0.1001 -0.1239
  135loPI   C3A 2153  17.999   9.889   8.191  0.2485 -0.0308  0.2425
  135loPI   C4A 2154  17.945   9.938   7.776  0.1181 -0.1069  0.5081
  135loPI   C5A 2155  17.708  10.136   7.439 -0.0580 -0.1378  0.0590
  135loPI   C6A 2156  17.653  10.272   7.052 -0.3422 -0.1866  0.0701
  135loPI   C1B 2157  18.405   9.757   9.087 -0.1642  0.1375 -0.1961
  135loPI   C2B 2158  18.429   9.755   8.618  0.0223  0.1293  0.0972
  135loPI   C3B 2159  18.469   9.794   8.205 -0.0585 -0.0637 -0.0791
  135loPI   C4B 2160  18.545   9.737   7.759  0.1311  0.1215 -0.1529
  136loPI    C1 2161   6.388   1.087   9.953  0.0458  0.3284  0.3587
  136loPI    C2 2162   6.083   0.950  10.172  0.0376  0.0709  0.1906
  136loPI    C3 2163   6.446   0.986  10.335  0.0210 -0.0723  0.2603
  136loPI   PO4 2164   6.266   1.239   9.831 -0.2475  0.0138 -0.2637
  136loPI   GL1 2165   6.485   1.075   9.487 -0.0579 -0.2701  0.2692
  136loPI   GL2 2166   6.752   0.764   9.421  0.0052  0.0355 -0.1478
  136loPI   C1A 2167   6.251   0.791   9.145 -0.2346 -0.0743  0.1644
  136loPI   C2A 2168   6.259   0.612   8.793 -0.2254  0.1054  0.1416
  136loPI   C3A 2169   6.414   0.652   8.310  0.1712  0.0124  0.1685
  136loPI   C4A 2170   6.297   0.671   7.918  0.2018  0.0333 -0.0755
  136loPI   C5A 2171   6.199   0.829   7.571  0.2124  0.0779  0.1505
  136loPI   C6A 2172   5.934   1.121   7.450  0.1022 -0.2545 -0.0847
  136loPI   C1B 2173   6.696   0.548   9.068  0.4192 -0.1627  0.0141
  136loPI   C2B 2174   6.719   0.370   8.592  0.0006  0.0354  0.0951
  136loPI   C3B 2175   6.750   0.325   8.150  0.2643 -0.2652  0.0962
  136loPI   C4B 2176   6.773  -0.005   7.785 -0.1591  0.1236  0.1227
  137loPI    C1 2177  12.124   1.531  10.025 -0.2109  0.0551  0.0042
  137loPI    C2 2178  12.141   1.922   9.945 -0.0362 -0.0044 -0.2657
  137loPI    C3 2179  11.831   1.773  10.148 -0.0481  0.2892 -0.0608
  137loPI   PO4 2180  12.236   1.498   9.657  0.0872 -0.0498 -0.0258
  137loPI   GL1 2181  12.088   1.456   9.263 -0.0483  0.1859 -0.0325
  137loPI   GL2 2182  12.054   1.734   9.117  0.1630  0.1252  0.2445
  137loPI   C1A 2183  12.215   1.296   8.862 -0.1780 -0.4109  0.1955
  137loPI   C2A 2184  12.536   1.589   8.576 -0.0415 -0.2755 -0.1977
  137loPI   C3A 2185  12.812   1.750   8.158 -0.0426 -0.4410 -0.1136
  137loPI   C4A 2186  12.931   1.721   7.716  0.0014  0.0407  0.1448
  137loPI   C5A 2187  13.267   1.998   7.445  0.1830  0.1253 -0.0693
  137loPI   C6A 2188  12.983   2.088   7.060  0.4624  0.0388 -0.1079
  137loPI   C1B 2189  12.010   1.682   8.545  0.3310 -0.0095 -0.4199
  137loPI   C2B 2190  12.301   1.456   8.204  0.4210  0.0206 -0.3290
  137loPI   C3B 2191  12.355   1.369   7.923  0.2846  0.4335  0.0708
  137loPI   C4B 2192  12.223   1.193   7.516 -0.3408 -0.2823  0.0996
  138loPI    C1 2193  16.521   7.055   9.818  0.0548  0.0748 -0.1979
  138loPI    C2 2194  16.807   7.325   9.748  0.1157  0.1177  0.1977
  138loPI    C3 2195  16.824   7.095  10.075 -0.0893 -0.1646  0.0145
  138loPI   PO4 2196  16.557   6.889   9.651  0.0962 -0.0530  0.0832
  138loPI   GL1 2197  16.732   6.744   9.325  0.0060 -0.0764  0.4367
  138loPI   GL2 2198  16.861   7.003   9.238  0.0809 -0.1764 -0.0022
  138loPI   C1A 2199  16.550   6.488   8.986  0.0753  0.0286  0.3109
  138loPI   C2A 2200  16.226   6.433   8.771  0.1109  0.1027  0.2710
  138loPI   C3A 2201  15.921   6.503   8.423  0.2812  0.0371 -0.0586
  138loPI   C4A 2202  15.678   6.367   8.040 -0.1026 -0.2327  0.0777
  138loPI   C5A 2203  15.355   6.384   7.777  0.2049  0.3360 -0.2089
  138loPI   C6A 2204  14.951   6.467   7.747  0.3088  0.0369  0.0404
  138loPI   C1B 2205  16.965   6.875   8.747 -0.1296  0.3005  0.0460
  138loPI   C2B 2206  16.905   6.926   8.302 -0.2870 -0.1149  0.0612
  138loPI   C3B 2207  16.731   6.879   7.898  0.0191  0.3697 -0.0458
  138loPI   C4B 2208  16.355   6.674   7.635 -0.0683 -0.2852 -0.0062
  139loPI    C1 2209  12.432  14.486  10.534  0.0524 -0.0339 -0.1170
  139loPI    C2 2210  12.039  14.518  10.601  0.1226  0.0152  0.2974
  139loPI    C3 2211  12.292  14.786  10.758  0.3170  0.0340 -0.0382
  139loPI   PO4 2212  12.356  14.364  10.256 -0.0077 -0.1500  0.1254
  139loPI   GL1 2213  12.438  14.251   9.914 -0.1100 -0.1156  0.1217
  139loPI   GL2 2214  12.229  14.476   9.758  0.0514  0.2609 -0.1308
  139loPI   C1A 2215  12.449  13.992   9.644 -0.0283  0.2011 -0.2911
  139loPI   C2A 2216  12.397  13.964   9.181  0.2838  0.0352  0.0278
  139loPI   C3A 2217  12.465  13.570   8.958  0.3410  0.1316 -0.3424
  139loPI   C4A 2218  12.338  13.408   8.597 -0.1978 -0.0059 -0.1870
  139loPI   C5A 2219  12.260  13.377   8.190  0.2106 -0.1512 -0.0802
  139loPI   C6A 2220  12.219  13.593   7.889  0.0528  0.0025  0.1703
  139loPI   C1B 2221  12.182  14.448   9.407 -0.0007 -0.1132  0.2436
  139loPI   C2B 2222  12.243  14.464   8.921 -0.1497 -0.0044 -0.0368
  139loPI   C3B 2223  12.295  14.297   8.409 -0.1724 -0.0649  0.0065
  139loPI   C4B 2224  12.244  14.411   7.977 -0.2640  0.0327  0.1198
  140loPI    C1 2225  17.394   0.628   9.866 -0.3101  0.0942 -0.0804
  140loPI    C2 2226  17.474   0.513  10.241 -0.1749 -0.1859 -0.1926
  140loPI    C3 2227  17.095   0.572  10.126 -0.2097  0.0123  0.0183
  140loPI   PO4 2228  17.672   0.664   9.797 -0.1637 -0.3499  0.0059
  140loPI   GL1 2229  17.813   0.937   9.591 -0.0685 -0.1156 -0.0333
  140loPI   GL2 2230  17.628   1.180   9.298  0.1829  0.0246 -0.0079
  140loPI   C1A 2231  18.013   0.885   9.214 -0.1254  0.3408 -0.2139
  140loPI   C2A 2232  18.124   0.900   8.858 -0.0292  0.0059  0.3693
  140loPI   C3A 2233  18.203   0.892   8.478 -0.0121  0.1395  0.0082
  140loPI   C4A 2234  18.267   0.755   8.115  0.2962  0.0246  0.0955
  140loPI   C5A 2235  17.965   0.448   7.807  0.2010  0.0902  0.1634
  140loPI   C6A 2236  17.817   0.386   7.345 -0.0342  0.0420 -0.1506
  140loPI   C1B 2237  17.731   1.279   8.882  0.0678 -0.2461 -0.2201
  140loPI   C2B 2238  17.818   1.246   8.491 -0.3526  0.0210  0.2649
  140loPI   C3B 2239  17.731   1.387   8.063  0.1069  0.0510 -0.2029
  140loPI   C4B 2240  17.774   1.432   7.602 -0.0594 -0.1714 -0.1853
  141loPI    C1 2241   4.295   7.149  10.155  0.0884 -0.1121  0.0275
  141loPI    C2 2242   4.137   7.516  10.157 -0.0034 -0.1497 -0.1397
  141loPI    C3 2243   4.417   7.418  10.425  0.0380  0.0488 -0.1084
  141loPI   PO4 2244   4.123   6.992   9.959 -0.5888 -0.2258  0.2390
  141loPI   GL1 2245   3.831   6.874   9.663  0.3313  0.2783 -0.1362
  141loPI   GL2 2246   3.995   7.058   9.459 -0.1912 -0.4342  0.0667
  141loPI   C1A 2247   3.768   6.536   9.299 -0.0712 -0.1655  0.0618
  141loPI   C2A 2248   3.666   6.334   8.895  0.0644 -0.4336  0.0173
  141loPI   C3A 2249   3.638   6.285   8.481  0.1818  0.0069 -0.0092
  141loPI   C4A 2250   3.696   6.170   8.051  0.2217  0.2689  0.2539
  141loPI   C5A 2251   3.833   6.028   7.623  0.0613  0.2135  0.1914
  141loPI   C6A 2252   3.702   6.279   7.288  0.1217 -0.1232 -0.0113
  141loPI   C1B 2253   3.643   7.021   9.208 -0.1597  0.2537 -0.2662
  141loPI   C2B 2254   3.684   6.860   8.857  0.1018 -0.2967 -0.2486
  141loPI   C3B 2255   3.576   6.774   8.471 -0.1509  0.4254  0.0430
  141loPI   C4B 2256   3.358   6.572   8.146 -0.0337  0.0908 -0.0560
  142loPI    C1 2257  10.085  18.667  10.290  0.1169  0.1568  0.1186
  142loPI    C2 2258   9.726  18.694  10.464 -0.0286  0.2019 -0.1825
  142loPI    C3 2259  10.014  18.954  10.559 -0.1501  0.3119 -0.1113
  142loPI   PO4 2260  10.067  18.603   9.962 -0.0232 -0.0486  0.2985
  142loPI   GL1 2261  10.204  18.857   9.593  0.0978 -0.0824  0.0764
  142loPI   GL2 2262  10.291  19.092   9.561  0.3809 -0.1776 -0.1483
  142loPI   C1A 2263   9.918  18.820   9.202  0.2666 -0.2887  0.2575
  142loPI   C2A 2264  10.147  18.728   8.813  0.0968 -0.2686  0.0528
  142loPI   C3A 2265  10.372  18.859   8.286  0.1501 -0.0373 -0.2835
  142loPI   C4A 2266  10.659  18.773   7.903  0.3792 -0.2449 -0.2700
  142loPI   C5A 2267  11.004  18.964   7.861  0.3509  0.0353  0.1226
  142loPI   C6A 2268  11.332  18.953   8.023  0.0448 -0.0859  0.0659
  142loPI   C1B 2269  10.479  19.227   9.113 -0.3270 -0.2053  0.4966
  142loPI   C2B 2270  10.493  19.134   8.713 -0.1968 -0.3982 -0.1029
  142loPI   C3B 2271  10.782  19.250   8.399  0.0967 -0.3771  0.1153
  142loPI   C4B 2272  11.110  19.416   8.098 -0.0804  0.2097  0.0667
  143loPI    C1 2273   1.998   9.233   9.860  0.1329  0.0675 -0.0160
  143loPI    C2 2274   1.792   8.939  10.037 -0.1160  0.1832 -0.1104
  143loPI    C3 2275   2.152   9.042  10.177 -0.0904 -0.0674  0.0134
  143loPI   PO4 2276   2.009   9.128   9.560  0.2430 -0.0090 -0.4668
  143loPI   GL1 2277   1.630   9.323   9.383 -0.0165 -0.2167 -0.2233
  143loPI   GL2 2278   1.707   9.253   9.106 -0.2833  0.1323 -0.2989
  143loPI   C1A 2279   1.564   9.711   9.145 -0.1151  0.2913 -0.1803
  143loPI   C2A 2280   1.664   9.676   8.681  0.1246 -0.0320  0.0197
  143loPI   C3A 2281   1.620   9.711   8.302  0.1853 -0.2529  0.1915
  143loPI   C4A 2282   1.675   9.785   7.854  0.2369  0.1692 -0.1329
  143loPI   C5A 2283   1.329  10.051   7.632  0.0209  0.0122  0.2154
  143loPI   C6A 2284   0.882  10.072   7.576 -0.0144 -0.0007 -0.0285
  143loPI   C1B 2285   1.985   9.314   8.877 -0.1027 -0.0714 -0.0555
  143loPI   C2B 2286   1.981   9.351   8.468  0.1387 -0.1524 -0.1708
  143loPI   C3B 2287   1.861   9.315   8.051  0.1023 -0.4795 -0.1111
  143loPI   C4B 2288   1.756   9.335   7.643 -0.1044  0.1403 -0.1374
  144loPI    C1 2289  14.373  18.297  10.133 -0.2152  0.0412  0.0873
  144loPI    C2 2290  14.552  18.338  10.489 -0.0798  0.3498 -0.0135
  144loPI    C3 2291  14.712  18.099  10.211  0.1578  0.5875 -0.0861
  144loPI   PO4 2292  14.421  18.461   9.969 -0.1617  0.1508  0.1906
  144loPI   GL1 2293  14.233  18.477   9.572 -0.3856 -0.2293  0.1138
  144loPI   GL2 2294  14.027  18.162   9.466  0.0920  0.2215  0.0290
  144loPI   C1A 2295  14.529  18.566   9.282  0.0775 -0.1130  0.1710
  144loPI   C2A 2296  14.538  18.618   8.844  0.1211  0.0982  0.0865
  144loPI   C3A 2297  14.560  18.722   8.347 -0.1593 -0.1185  0.0611
  144loPI   C4A 2298  14.595  18.540   8.037  0.1229  0.2345  0.0819
  144loPI   C5A 2299  14.702  18.462   7.627  0.4889 -0.1248 -0.1705
  144loPI   C6A 2300  14.232  18.377   7.389 -0.0244 -0.1333 -0.2605
  144loPI   C1B 2301  14.325  18.010   9.119 -0.2551 -0.1625  0.1068
  144loPI   C2B 2302  14.394  18.112   8.727 -0.0600 -0.1069 -0.1039
  144loPI   C3B 2303  14.355  18.132   8.271  0.1953  0.6026 -0.2651
  144loPI   C4B 2304  14.364  18.058   7.766 -0.0094  0.1465  0.0132
  145loPI    C1 2305  14.905   4.652  10.047  0.0597 -0.1263 -0.1416
  145loPI    C2 2306  14.562   4.858  10.036  0.1186 -0.0245 -0.0858
  145loPI    C3 2307  14.582   4.514  10.238  0.0180 -0.0893 -0.1848
  145loPI   PO4 2308  14.999   4.755   9.778  0.0631 -0.1310  0.0017
  145loPI   GL1 2309  15.015   4.753   9.404  0.1511 -0.0608  0.2261
  145loPI   GL2 2310  14.684   4.629   9.264 -0.0256  0.0109  0.2387
  145loPI   C1A 2311  15.397   4.714   9.156 -0.1672  0.1468  0.3710
  145loPI   C2A 2312  15.520   4.779   8.784  0.0308  0.3181  0.1510
  145loPI   C3A 2313  15.319   4.831   8.454 -0.0474  0.1552 -0.0026
  145loPI   C4A 2314  15.423   5.099   8.145 -0.0962 -0.0244  0.2278
  145loPI   C5A 2315  15.242   5.354   7.698  0.0076  0.1750 -0.2648
  145loPI   C6A 2316  15.130   5.856   7.698  0.0505 -0.2755  0.0172
  145loPI   C1B 2317  14.584   4.725   8.815  0.0018  0.2506 -0.1875
  145loPI   C2B 2318  14.586   4.743   8.306  0.2804 -0.0886  0.1764
  145loPI   C3B 2319  14.523   4.631   7.925  0.0519  0.1358 -0.0589
  145loPI   C4B 2320  14.394   4.664   7.441  0.4136  0.1428  0.3384
  146loPI    C1 2321  16.921   8.466   9.797  0.1236  0.1044 -0.0993
  146loPI    C2 2322  16.634   8.674   9.981  0.2387  0.0768  0.1141
  146loPI    C3 2323  16.567   8.296   9.870  0.1011  0.1579 -0.0838
  146loPI   PO4 2324  17.112   8.808   9.662 -0.0655  0.1904  0.1740
  146loPI   GL1 2325  17.108   9.110   9.344 -0.1322  0.1438 -0.3219
  146loPI   GL2 2326  17.109   9.284   9.469  0.2132 -0.1314  0.2330
  146loPI   C1A 2327  17.119   8.875   8.935 -0.0696 -0.2335 -0.1110
  146loPI   C2A 2328  17.114   8.968   8.530 -0.3107 -0.1219 -0.2777
  146loPI   C3A 2329  17.286   9.098   8.213 -0.0350  0.2493 -0.2118
  146loPI   C4A 2330  17.201   9.175   7.752 -0.1632  0.2199 -0.4315
  146loPI   C5A 2331  16.762   9.168   7.671 -0.0566 -0.2140 -0.1098
  146loPI   C6A 2332  16.550   9.008   7.201  0.0043 -0.1725  0.0449
  146loPI   C1B 2333  17.061   9.538   9.097  0.5044 -0.0074 -0.2320
  146loPI   C2B 2334  16.725   9.667   8.786  0.2808 -0.2927  0.2194
  146loPI   C3B 2335  16.524   9.656   8.343  0.0464 -0.1620 -0.0759
  146loPI   C4B 2336  16.327   9.372   8.062  0.0403  0.0896 -0.3084
  147loPI    C1 2337  12.282  17.162   9.912 -0.2855  0.0540  0.0221
  147loPI    C2 2338  12.227  16.776  10.002 -0.0351 -0.0035 -0.0639
  147loPI    C3 2339  12.137  17.058  10.270  0.0020 -0.1340  0.0870
  147loPI   PO4 2340  12.124  17.166   9.654 -0.1528  0.1625 -0.2137
  147loPI   GL1 2341  11.777  17.306   9.424  0.1230 -0.1001 -0.0330
  147loPI   GL2 2342  11.498  17.595   9.524  0.1304  0.1393  0.4573
  147loPI   C1A 2343  11.579  17.139   9.081  0.1668 -0.0663  0.0601
  147loPI   C2A 2344  11.383  17.034   8.686 -0.0281  0.3937  0.1995
  147loPI   C3A 2345  11.436  16.684   8.316 -0.1122 -0.0081  0.0792
  147loPI   C4A 2346  11.542  16.565   7.914 -0.0204  0.0988 -0.0287
  147loPI   C5A 2347  11.362  16.302   7.712 -0.0164 -0.3363  0.0136
  147loPI   C6A 2348  11.457  15.848   7.463 -0.0914 -0.1665 -0.2402
  147loPI   C1B 2349  11.265  17.658   9.101  0.1592  0.3457 -0.2053
  147loPI   C2B 2350  11.231  17.792   8.715  0.1588 -0.0789  0.0664
  147loPI   C3B 2351  11.011  17.835   8.331 -0.0089 -0.0039  0.0135
  147loPI   C4B 2352  11.069  17.796   7.984 -0.1366  0.0966  0.1155
  148loPI    C1 2353   8.907   0.964  10.382 -0.1127  0.0852  0.2444
  148loPI    C2 2354   8.512   0.961  10.317 -0.0332 -0.0701 -0.2815
  148loPI    C3 2355   8.681   1.270  10.505 -0.3925  0.0313 -0.1155
  148loPI   PO4 2356   8.939   0.874  10.118 -0.2109 -0.2179  0.2989
  148loPI   GL1 2357   8.827   0.931   9.663 -0.2372 -0.2240  0.1496
  148loPI   GL2 2358   8.630   1.016   9.441  0.1168  0.0062 -0.1682
  148loPI   C1A 2359   9.073   0.911   9.299 -0.1185 -0.0802 -0.2796
  148loPI   C2A 2360   9.262   1.102   8.900 -0.0813 -0.3756 -0.0831
  148loPI   C3A 2361   9.278   1.120   8.429  0.3030 -0.1317  0.0362
  148loPI   C4A 2362   9.366   1.015   8.029 -0.0210  0.0812 -0.0136
  148loPI   C5A 2363   9.587   0.976   7.546 -0.1405 -0.0400 -0.0730
  148loPI   C6A 2364   9.460   0.925   7.178 -0.0137 -0.1452 -0.0383
  148loPI   C1B 2365   8.422   1.097   9.067 -0.3155  0.2728 -0.0963
  148loPI   C2B 2366   8.372   1.022   8.671 -0.1424  0.0192  0.2206
  148loPI   C3B 2367   8.371   1.077   8.278 -0.1456 -0.2297 -0.0425
  148loPI   C4B 2368   8.655   1.187   7.843 -0.1692  0.0950  0.0673
  149loPI    C1 2369   6.131  18.272  10.376  0.1425 -0.1107 -0.1714
  149loPI    C2 2370   6.136  17.899  10.523  0.2462 -0.0364  0.0178
  149loPI    C3 2371   5.787  18.085  10.459  0.1961 -0.1405 -0.0140
  149loPI   PO4 2372   6.312  18.228  10.150 -0.0127  0.0545  0.3295
  149loPI   GL1 2373   6.381  18.224   9.693  0.0455 -0.0202  0.2815
  149loPI   GL2 2374   6.209  18.069   9.461 -0.2845  0.4153 -0.0382
  149loPI   C1A 2375   6.285  18.590   9.420  0.2432 -0.1331  0.0363
  149loPI   C2A 2376   6.216  18.476   8.992  0.2708  0.1558 -0.1353
  149loPI   C3A 2377   6.242  18.385   8.525  0.1261 -0.0979 -0.0583
  149loPI   C4A 2378   6.332  18.491   8.216 -0.3095 -0.2181 -0.0560
  149loPI   C5A 2379   6.501  18.470   7.787  0.1275 -0.0068  0.0606
  149loPI   C6A 2380   6.802  18.111   7.560 -0.1890  0.0194 -0.0623
  149loPI   C1B 2381   6.533  18.119   9.219 -0.2575  0.2861 -0.2688
  149loPI   C2B 2382   6.539  18.022   8.786 -0.0006 -0.1875  0.0286
  149loPI   C3B 2383   6.581  17.994   8.397  0.0636 -0.1161 -0.0544
  149loPI   C4B 2384   6.527  17.996   8.059 -0.0354 -0.0522 -0.2455
  150loPI    C1 2385  14.150   7.206  10.100  0.1576 -0.1356 -0.0211
  150loPI    C2 2386  13.921   7.069  10.398  0.1222 -0.0754 -0.0207
  150loPI    C3 2387  14.301   7.174  10.469  0.0852  0.0305  0.0239
  150loPI   PO4 2388  14.145   6.977   9.937  0.0862  0.1355  0.1818
  150loPI   GL1 2389  14.139   7.003   9.455  0.0193 -0.2183  0.1740
  150loPI   GL2 2390  13.958   7.222   9.309 -0.2200  0.1728  0.2587
  150loPI   C1A 2391  14.465   7.030   9.214  0.0532 -0.1227 -0.0187
  150loPI   C2A 2392  14.569   7.135   8.758 -0.2627  0.0284 -0.3080
  150loPI   C3A 2393  14.597   7.185   8.369  0.0846  0.1209 -0.0102
  150loPI   C4A 2394  14.985   7.104   8.127  0.2629  0.0010  0.0730
  150loPI   C5A 2395  15.244   6.927   7.853  0.0779 -0.0159  0.0071
  150loPI   C6A 2396  15.697   6.748   7.690 -0.1615  0.0259 -0.1724
  150loPI   C1B 2397  14.161   7.429   9.009 -0.1986 -0.0596 -0.1782
  150loPI   C2B 2398  14.153   7.318   8.606  0.3512 -0.1213  0.0728
  150loPI   C3B 2399  14.185   7.316   8.141 -0.1622 -0.2215 -0.2581
  150loPI   C4B 2400  14.373   7.192   7.823 -0.0253 -0.0132 -0.0619
  151loPI    C1 2401   9.547   2.722   9.974  0.0813  0.2766  0.1189
  151loPI    C2 2402   9.621   3.004  10.248  0.0539  0.1615  0.2458
  151loPI    C3 2403   9.467   2.652  10.360  0.2230  0.0422  0.1076
  151loPI   PO4 2404   9.748   2.760   9.736 -0.1447  0.0681  0.0092
  151loPI   GL1 2405   9.701   2.663   9.310  0.2917 -0.0565  0.2209
  151loPI   GL2 2406   9.421   2.625   9.099  0.1758 -0.2289 -0.2056
  151loPI   C1A 2407  10.013   2.774   9.025 -0.1712 -0.4400  0.0224
  151loPI   C2A 2408   9.998   2.829   8.663  0.0777  0.5314  0.0172
  151loPI   C3A 2409   9.965   2.881   8.246 -0.2095 -0.0988 -0.1212
  151loPI   C4A 2410   9.730   2.777   7.873  0.0119 -0.0775 -0.0346
  151loPI   C5A 2411  10.012   2.707   7.591 -0.1352  0.0828 -0.1707
  151loPI   C6A 2412  10.142   2.450   7.240  0.1560 -0.0834  0.0135
  151loPI   C1B 2413   9.522   2.609   8.760  0.0224  0.1303  0.1205
  151loPI   C2B 2414   9.579   2.577   8.352 -0.1868  0.3143  0.1274
  151loPI   C3B 2415   9.704   2.297   8.045 -0.1316  0.0514 -0.0530
  151loPI   C4B 2416   9.667   2.329   7.620 -0.5564 -0.2856  0.0269
  152loPI    C1 2417  13.542   1.512  10.385  0.0882 -0.0473 -0.3130
  152loPI    C2 2418  13.647   1.898  10.404  0.1123 -0.0607 -0.1604
  152loPI    C3 2419  13.307   1.775  10.575  0.1743 -0.1312 -0.0871
  152loPI   PO4 2420  13.736   1.467  10.090  0.1855  0.3512  0.1506
  152loPI   GL1 2421  13.933   1.534   9.628  0.1076  0.2455  0.1965
  152loPI   GL2 2422  14.039   1.783   9.471  0.0637  0.2650  0.2254
  152loPI   C1A 2423  14.007   1.385   9.202  0.1969 -0.0440  0.2724
  152loPI   C2A 2424  14.036   1.528   8.719 -0.2218  0.1451  0.4428
  152loPI   C3A 2425  14.112   1.571   8.223  0.1154  0.1676 -0.1301
  152loPI   C4A 2426  14.322   1.772   7.826 -0.0257 -0.0966  0.1248
  152loPI   C5A 2427  14.274   2.105   7.583  0.0309 -0.0547 -0.2832
  152loPI   C6A 2428  14.341   2.491   7.502  0.4118  0.0984  0.1599
  152loPI   C1B 2429  13.987   1.879   9.097 -0.1183 -0.1082 -0.1240
  152loPI   C2B 2430  14.024   2.102   8.746 -0.0531  0.0984 -0.0336
  152loPI   C3B 2431  14.133   2.043   8.318  0.1256 -0.3329 -0.1426
  152loPI   C4B 2432  14.190   2.343   8.007  0.1489 -0.0581 -0.0511
  153loPI    C1 2433   7.530  15.908  10.133  0.1294 -0.2988  0.0004
  153loPI    C2 2434   7.894  16.009  10.000  0.0296  0.0085 -0.0470
  153loPI    C3 2435   7.850  15.865  10.371  0.2322 -0.2926 -0.1355
  153loPI   PO4 2436   7.418  16.114  10.060  0.1297  0.1022 -0.0805
  153loPI   GL1 2437   7.226  16.299   9.777  0.0489 -0.0403  0.0853
  153loPI   GL2 2438   7.406  16.526   9.715  0.0294  0.0712 -0.1576
  153loPI   C1A 2439   7.333  16.276   9.273  0.1098  0.1950  0.0340
  153loPI   C2A 2440   7.437  16.398   8.911  0.0760 -0.0760 -0.0727
  153loPI   C3A 2441   7.252  16.316   8.602 -0.4273  0.1773 -0.0256
  153loPI   C4A 2442   7.278  16.211   8.236 -0.1413  0.1516 -0.0394
  153loPI   C5A 2443   7.478  16.554   7.912  0.1529 -0.2631  0.3886
  153loPI   C6A 2444   7.644  16.911   7.962 -0.2465  0.2223 -0.1041
  153loPI   C1B 2445   7.340  16.874   9.508  0.1832  0.0880  0.0164
  153loPI   C2B 2446   7.441  17.009   9.187 -0.1468  0.1386  0.1773
  153loPI   C3B 2447   7.531  16.862   8.872 -0.1309 -0.4197  0.2187
  153loPI   C4B 2448   7.548  16.747   8.502  0.1608  0.0224 -0.0065
  154loPI    C1 2449   9.397  16.943  10.606 -0.1866  0.0454  0.1239
  154loPI    C2 2450   9.561  17.265  10.777  0.0766 -0.0735  0.1005
  154loPI    C3 2451   9.596  16.907  10.951  0.2258 -0.1729 -0.1283
  154loPI   PO4 2452   9.222  17.131  10.442  0.1505  0.2399  0.1054
  154loPI   GL1 2453   9.178  17.198  10.041 -0.1914 -0.1833 -0.0883
  154loPI   GL2 2454   8.857  16.999   9.967  0.1082  0.0420 -0.1152
  154loPI   C1A 2455   9.188  16.921   9.649  0.0507  0.0256  0.0847
  154loPI   C2A 2456   8.876  16.677   9.287 -0.0182  0.0118  0.1232
  154loPI   C3A 2457   8.718  16.399   8.946 -0.1546  0.3403  0.0534
  154loPI   C4A 2458   8.783  15.979   8.867  0.0878  0.3006 -0.0914
  154loPI   C5A 2459   8.755  15.715   8.598 -0.1473  0.0667 -0.2057
  154loPI   C6A 2460   8.481  15.641   8.402 -0.2789 -0.3426 -0.0415
  154loPI   C1B 2461   8.607  16.929   9.643  0.0185  0.1685 -0.0210
  154loPI   C2B 2462   8.367  16.854   9.283  0.2793 -0.1284 -0.0740
  154loPI   C3B 2463   8.225  16.813   8.850  0.0921  0.1133 -0.4712
  154loPI   C4B 2464   8.131  16.835   8.443 -0.3765 -0.2438 -0.1014
  155loPI    C1 2465  13.048   0.281   9.977  0.3488 -0.1941 -0.0151
  155loPI    C2 2466  12.655   0.249  10.048  0.3355  0.1769  0.1012
  155loPI    C3 2467  12.915   0.018  10.247  0.1846  0.0050  0.1008
  155loPI   PO4 2468  13.059   0.335   9.697 -0.1444  0.1651  0.0481
  155loPI   GL1 2469  12.854   0.338   9.383 -0.3279  0.0820 -0.3109
  155loPI   GL2 2470  12.473   0.364   9.326 -0.0264  0.0879 -0.4015
  155loPI   C1A 2471  12.908   0.196   9.004 -0.2536 -0.0779 -0.0989
  155loPI   C2A 2472  12.963   0.175   8.550  0.2271  0.2597  0.2317
  155loPI   C3A 2473  12.916   0.243   8.091 -0.1500 -0.0524 -0.0929
  155loPI   C4A 2474  13.090   0.279   7.687  0.1837 -0.4200  0.0329
  155loPI   C5A 2475  12.868   0.077   7.353 -0.1111  0.0282 -0.2480
  155loPI   C6A 2476  12.553  -0.146   7.081 -0.3453  0.1216 -0.2642
  155loPI   C1B 2477  12.480   0.416   8.896 -0.1465 -0.1019 -0.1255
  155loPI   C2B 2478  12.525   0.479   8.520  0.1305 -0.2307 -0.0108
  155loPI   C3B 2479  12.395   0.419   8.162  0.3006 -0.2442 -0.0613
  155loPI   C4B 2480  12.605   0.264   7.746 -0.1621  0.1775 -0.0951
  156loPI    C1 2481   4.302  15.251  10.140 -0.1012 -0.2406  0.2138
  156loPI    C2 2482   4.218  14.916  10.341 -0.2512 -0.1376  0.3238
  156loPI    C3 2483   4.192  15.272  10.524 -0.1894 -0.0584  0.1800
  156loPI   PO4 2484   4.152  15.194   9.859 -0.0974  0.1744 -0.0672
  156loPI   GL1 2485   3.844  15.048   9.507  0.5418 -0.1887  0.2805
  156loPI   GL2 2486   3.834  15.245   9.412  0.3728 -0.2594  0.4269
  156loPI   C1A 2487   3.518  14.857   9.278 -0.0346 -0.1896 -0.3194
  156loPI   C2A 2488   3.171  14.699   9.127 -0.1495 -0.3420  0.3930
  156loPI   C3A 2489   3.036  14.742   8.785 -0.0212  0.1692  0.1579
  156loPI   C4A 2490   3.314  14.620   8.397  0.1043  0.0307  0.0462
  156loPI   C5A 2491   3.629  14.381   8.271  0.1684  0.2477  0.2559
  156loPI   C6A 2492   3.944  14.156   8.021 -0.0176 -0.1691 -0.0030
  156loPI   C1B 2493   3.916  15.108   8.996 -0.2815 -0.0395 -0.1319
  156loPI   C2B 2494   4.055  15.214   8.589  0.0493  0.1703 -0.2034
  156loPI   C3B 2495   3.930  15.311   8.182  0.0835  0.0757 -0.2744
  156loPI   C4B 2496   3.878  15.129   7.813 -0.2359 -0.0326  0.0643
  157loPI    C1 2497   7.319  17.903   9.917  0.0789  0.1195  0.0034
  157loPI    C2 2498   7.677  17.748   9.834 -0.0501 -0.1546 -0.0513
  157loPI    C3 2499   7.468  17.612  10.147 -0.0806  0.0476  0.0176
  157loPI   PO4 2500   7.380  18.226   9.800  0.0068 -0.1167 -0.1492
  157loPI   GL1 2501   7.588  18.423   9.448  0.1034  0.0758 -0.3996
  157loPI   GL2 2502   7.832  18.419   9.556  0.1861  0.0760 -0.1627
  157loPI   C1A 2503   7.692  18.223   9.061  0.3570  0.1023  0.0575
  157loPI   C2A 2504   7.860  18.092   8.648  0.2414 -0.1416  0.1709
  157loPI   C3A 2505   7.894  18.055   8.215 -0.4713 -0.1925 -0.0436
  157loPI   C4A 2506   7.658  17.796   7.903  0.3621 -0.0584 -0.2310
  157loPI   C5A 2507   7.803  17.577   7.442  0.2728 -0.0715 -0.1250
  157loPI   C6A 2508   7.565  17.552   7.068 -0.0625 -0.1820  0.2102
  157loPI   C1B 2509   8.175  18.352   9.307  0.1177 -0.0727 -0.2429
  157loPI   C2B 2510   8.228  18.043   8.983 -0.1607 -0.2934 -0.2459
  157loPI   C3B 2511   8.233  17.763   8.782 -0.1968  0.0480  0.0689
  157loPI   C4B 2512   8.125  17.506   8.406 -0.2356 -0.4276 -0.2673
  158loPI    C1 2513  12.537   7.880   9.856 -0.0099 -0.0294  0.2247
  158loPI    C2 2514  12.658   7.537  10.023  0.3071 -0.0938 -0.1223
  158loPI    C3 2515  12.531   7.838  10.253  0.2937 -0.3419  0.2017
  158loPI   PO4 2516  12.642   7.858   9.562  0.2399  0.6019 -0.1256
  158loPI   GL1 2517  12.779   7.884   9.158 -0.0311 -0.0034  0.0132
  158loPI   GL2 2518  12.516   7.992   9.103 -0.1405  0.0573  0.3820
  158loPI   C1A 2519  12.835   7.626   8.788 -0.0935 -0.0076 -0.0351
  158loPI   C2A 2520  12.868   7.701   8.431  0.1445  0.0026  0.1130
  158loPI   C3A 2521  12.864   7.536   8.089  0.3049  0.1049  0.4288
  158loPI   C4A 2522  13.053   7.581   7.556  0.0047 -0.0157 -0.0903
  158loPI   C5A 2523  13.371   7.614   7.210 -0.2437 -0.0432  0.3242
  158loPI   C6A 2524  13.746   7.299   7.126 -0.2185 -0.2103  0.0267
  158loPI   C1B 2525  12.453   8.110   8.668 -0.0930 -0.3478 -0.1532
  158loPI   C2B 2526  12.531   8.051   8.193 -0.2563  0.0253  0.1807
  158loPI   C3B 2527  12.717   7.934   7.735 -0.0206  0.1062  0.0528
  158loPI   C4B 2528  12.672   8.064   7.383  0.2362  0.0298 -0.0698
  159loPI    C1 2529   4.972   2.396  10.018  0.0617  0.1720  0.0367
  159loPI    C2 2530   5.346   2.256  10.023 -0.0332 -0.0935 -0.1265
  159loPI    C3 2531   5.194   2.430  10.349  0.1984 -0.0716 -0.0281
  159loPI   PO4 2532   4.922   2.363   9.746 -0.0392  0.0391  0.2121
  159loPI   GL1 2533   4.844   2.245   9.404  0.0344  0.0025 -0.0625
  159loPI   GL2 2534   5.208   2.240   9.303  0.1008 -0.1323 -0.1463
  159loPI   C1A 2535   4.788   2.095   9.054 -0.0836 -0.1184  0.0405
  159loPI   C2A 2536   4.792   2.177   8.665  0.0350 -0.0186 -0.1920
  159loPI   C3A 2537   4.758   2.294   8.206  0.0794  0.0214 -0.1249
  159loPI   C4A 2538   4.579   2.164   7.852  0.0177 -0.0181  0.4168
  159loPI   C5A 2539   4.428   1.856   7.742 -0.0871  0.0355  0.1374
  159loPI   C6A 2540   4.202   1.694   7.379 -0.0902 -0.1225 -0.4249
  159loPI   C1B 2541   5.265   2.366   8.797  0.0431  0.1952 -0.3091
  159loPI   C2B 2542   5.201   2.079   8.390  0.2927 -0.2439  0.1065
  159loPI   C3B 2543   5.286   2.135   7.990 -0.1018  0.0226  0.0773
  159loPI   C4B 2544   5.014   2.365   7.669  0.0987  0.1340  0.0123
  160loPI    C1 2545   9.950   1.040   9.868 -0.0897  0.0137  0.3360
  160loPI    C2 2546  10.348   1.079   9.861 -0.1366  0.5936  0.3593
  160loPI    C3 2547  10.170   0.902  10.172  0.1192 -0.0385  0.1641
  160loPI   PO4 2548   9.872   1.019   9.688  0.2355 -0.0033 -0.1689
  160loPI   GL1 2549   9.862   0.984   9.222  0.0679 -0.1932 -0.2939
  160loPI   GL2 2550   9.838   1.323   9.122  0.1465  0.1625 -0.1355
  160loPI   C1A 2551   9.791   0.804   8.724  0.2096 -0.1614  0.0656
  160loPI   C2A 2552   9.776   0.646   8.365 -0.1870 -0.2221 -0.1786
  160loPI   C3A 2553   9.955   0.662   7.951 -0.3490 -0.2138 -0.0965
  160loPI   C4A 2554  10.257   0.805   7.674 -0.2296  0.1153  0.1072
  160loPI   C5A 2555  10.641   0.682   7.508 -0.0603 -0.2035 -0.2277
  160loPI   C6A 2556  10.989   0.469   7.599 -0.1081 -0.1321 -0.2157
  160loPI   C1B 2557   9.843   1.306   8.709 -0.1264  0.0041 -0.1269
  160loPI   C2B 2558  10.023   1.148   8.397 -0.0679  0.0327  0.3438
  160loPI   C3B 2559  10.392   1.304   8.029  0.1469  0.1861 -0.2711
  160loPI   C4B 2560  10.462   1.191   7.557 -0.1525 -0.1426  0.1070
  161loPI    C1 2561   3.396  10.234  10.348  0.0527 -0.0102  0.1430
  161loPI    C2 2562   3.633  10.222  10.670 -0.1014 -0.3968  0.2475
  161loPI    C3 2563   3.352   9.942  10.618 -0.3559 -0.1007 -0.0140
  161loPI   PO4 2564   3.572  10.331  10.084 -0.2321 -0.0042 -0.2859
  161loPI   GL1 2565   3.695  10.359   9.645 -0.0227 -0.2462  0.1556
  161loPI   GL2 2566   3.393  10.549   9.616  0.1492 -0.0331 -0.0082
  161loPI   C1A 2567   3.578  10.302   9.201 -0.0902  0.2080  0.1679
  161loPI   C2A 2568   3.581  10.322   8.801  0.1417 -0.0987  0.1420
  161loPI   C3A 2569   3.681  10.450   8.387  0.3201  0.2650  0.1396
  161loPI   C4A 2570   3.725  10.437   7.949  0.2047 -0.0309  0.2410
  161loPI   C5A 2571   3.330  10.610   7.687 -0.3879  0.0262  0.2883
  161loPI   C6A 2572   3.067  10.831   7.793 -0.2570 -0.0934 -0.5050
  161loPI   C1B 2573   3.139  10.805   9.333 -0.0808 -0.1501  0.1422
  161loPI   C2B 2574   3.147  11.201   8.977 -0.3497  0.0114 -0.0633
  161loPI   C3B 2575   2.983  11.440   8.696  0.0766 -0.1024  0.2890
  161loPI   C4B 2576   2.891  11.534   8.233  0.1396 -0.1148 -0.0594
  162loPI    C1 2577  16.795   6.143  10.075  0.1687 -0.0354 -0.0341
  162loPI    C2 2578  17.000   5.811  10.163  0.0031 -0.1222  0.0273
  162loPI    C3 2579  16.604   5.823  10.219 -0.0125  0.0376 -0.1093
  162loPI   PO4 2580  16.892   6.244   9.824  0.3796 -0.3143 -0.1445
  162loPI   GL1 2581  16.743   6.231   9.376  0.2752  0.2504 -0.0071
  162loPI   GL2 2582  17.174   6.325   9.408 -0.0577  0.0502 -0.1244
  162loPI   C1A 2583  16.782   6.039   9.122 -0.2140  0.4079  0.1078
  162loPI   C2A 2584  16.772   6.041   8.727  0.0416  0.1319  0.0428
  162loPI   C3A 2585  16.609   6.103   8.329  0.3940 -0.1595  0.2805
  162loPI   C4A 2586  16.675   6.365   7.901 -0.2174 -0.2409  0.1304
  162loPI   C5A 2587  16.839   6.476   7.462  0.2169 -0.1878  0.1291
  162loPI   C6A 2588  16.901   6.193   7.069  0.1551  0.0743  0.0268
  162loPI   C1B 2589  17.104   6.402   8.926 -0.1295 -0.2029 -0.2992
  162loPI   C2B 2590  16.732   6.521   8.550  0.1312  0.2022 -0.0992
  162loPI   C3B 2591  16.441   6.643   8.286 -0.1018 -0.4061 -0.1869
  162loPI   C4B 2592  16.121   6.800   8.054 -0.2223 -0.2809  0.0055
  163loPI    C1 2593  16.981  11.322  10.035 -0.2657  0.3388 -0.1139
  163loPI    C2 2594  16.868  11.552  10.343  0.1355  0.0814  0.2368
  163loPI    C3 2595  17.132  11.257  10.400  0.0069 -0.1507 -0.3052
  163loPI   PO4 2596  16.728  11.330   9.859 -0.2703  0.1778  0.0744
  163loPI   GL1 2597  16.532  11.514   9.527 -0.1406 -0.0917  0.0142
  163loPI   GL2 2598  16.156  11.645   9.482 -0.0889 -0.2288  0.1268
  163loPI   C1A 2599  16.703  11.256   9.155  0.1009 -0.0847 -0.1211
  163loPI   C2A 2600  16.538  11.121   8.677 -0.4415  0.2046  0.1005
  163loPI   C3A 2601  16.647  11.293   8.291  0.4701  0.3116  0.1891
  163loPI   C4A 2602  16.462  11.593   7.943 -0.3083 -0.2986  0.1799
  163loPI   C5A 2603  16.409  11.932   7.805  0.0753 -0.0566  0.3223
  163loPI   C6A 2604  16.091  12.082   7.724  0.1473  0.0535  0.0386
  163loPI   C1B 2605  16.301  11.764   9.134 -0.3910  0.1122  0.0329
  163loPI   C2B 2606  16.542  11.705   8.780 -0.1927  0.2064  0.1855
  163loPI   C3B 2607  16.406  11.701   8.450 -0.1165 -0.1021  0.0588
  163loPI   C4B 2608  16.137  11.837   8.267 -0.0706 -0.0187  0.0368
  164loPI    C1 2609   2.488  12.080   9.733 -0.0443 -0.0045 -0.0962
  164loPI    C2 2610   2.710  11.771   9.612  0.0663  0.1017 -0.1666
  164loPI    C3 2611   2.330  11.713   9.722  0.1003 -0.0661 -0.1343
  164loPI   PO4 2612   2.538  12.377   9.537 -0.1806  0.2123  0.1030
  164loPI   GL1 2613   2.647  12.378   9.089 -0.2236  0.0624 -0.0686
  164loPI   GL2 2614   2.301  12.344   8.932 -0.0038  0.1565  0.2085
  164loPI   C1A 2615   2.773  12.466   8.682 -0.0239  0.2338 -0.2574
  164loPI   C2A 2616   2.772  12.476   8.205  0.1298  0.1743 -0.3253
  164loPI   C3A 2617   2.947  12.536   7.804  0.2215  0.1150 -0.1395
  164loPI   C4A 2618   3.351  12.535   7.662  0.4008 -0.2323  0.3163
  164loPI   C5A 2619   3.793  12.501   7.798 -0.4445 -0.2074  0.1051
  164loPI   C6A 2620   4.208  12.630   7.869 -0.0059 -0.0143 -0.1832
  164loPI   C1B 2621   2.465  12.027   8.682 -0.1580 -0.2646  0.0164
  164loPI   C2B 2622   2.495  11.677   8.442  0.3149  0.0975  0.1385
  164loPI   C3B 2623   2.461  11.405   8.045  0.0002  0.3445  0.2877
  164loPI   C4B 2624   2.881  11.459   7.752 -0.1170  0.1823 -0.0744
  165loPI    C1 2625   4.901  13.789   9.993  0.0684 -0.2683  0.2396
  165loPI    C2 2626   4.704  14.062  10.209  0.3304 -0.0464  0.2037
  165loPI    C3 2627   4.865  13.743  10.389 -0.0635 -0.2357  0.2319
  165loPI   PO4 2628   4.695  13.802   9.768  0.0329 -0.2259 -0.2251
  165loPI   GL1 2629   4.424  13.812   9.421  0.2652  0.2098 -0.1400
  165loPI   GL2 2630   4.634  14.100   9.349  0.2435 -0.2509 -0.1372
  165loPI   C1A 2631   4.536  13.867   8.944  0.1816 -0.2945 -0.0633
  165loPI   C2A 2632   4.595  13.923   8.538  0.2045 -0.4640 -0.0105
  165loPI   C3A 2633   4.520  14.030   8.137 -0.6127  0.0020  0.1071
  165loPI   C4A 2634   4.530  13.676   7.719  0.0702  0.0539  0.2416
  165loPI   C5A 2635   4.565  13.426   7.472  0.0669  0.2491  0.3009
  165loPI   C6A 2636   4.489  13.339   7.033 -0.0395  0.2195 -0.2232
  165loPI   C1B 2637   4.646  14.337   9.015  0.2058 -0.0671  0.3881
  165loPI   C2B 2638   4.673  14.418   8.521 -0.0317  0.0068  0.0319
  165loPI   C3B 2639   4.799  14.426   8.204  0.0095 -0.1865 -0.2470
  165loPI   C4B 2640   4.588  14.629   7.813  0.1062  0.0340  0.0498
  166loPI    C1 2641   2.083  12.471   9.626  0.3985 -0.1641  0.0069
  166loPI    C2 2642   2.301  12.715   9.856 -0.0849  0.2426  0.0512
  166loPI    C3 2643   1.904  12.702   9.900 -0.1290 -0.0903 -0.3851
  166loPI   PO4 2644   2.075  12.555   9.348  0.1928 -0.0075 -0.0366
  166loPI   GL1 2645   1.695  12.613   9.143 -0.2586 -0.1045  0.1521
  166loPI   GL2 2646   1.802  12.208   9.134  0.0012 -0.0084 -0.4332
  166loPI   C1A 2647   1.731  12.806   8.674  0.2454  0.2086  0.3091
  166loPI   C2A 2648   1.893  12.783   8.310  0.1407  0.0692  0.0957
  166loPI   C3A 2649   2.109  12.570   7.969 -0.0638 -0.2552  0.0514
  166loPI   C4A 2650   2.411  12.515   7.797  0.1756 -0.0133  0.0328
  166loPI   C5A 2651   2.552  12.388   7.362 -0.0015 -0.0436 -0.0647
  166loPI   C6A 2652   2.543  12.297   6.950  0.0023  0.0527  0.0513
  166loPI   C1B 2653   1.813  12.315   8.715 -0.2473  0.1098 -0.1616
  166loPI   C2B 2654   1.817  12.297   8.271  0.0455 -0.2499 -0.0468
  166loPI   C3B 2655   1.812  12.191   7.848  0.1065  0.0819 -0.3758
  166loPI   C4B 2656   2.121  12.061   7.524 -0.0608  0.0508  0.2306
  167loPI    C1 2657   6.295  14.179  10.431  0.1650  0.0321 -0.0453
  167loPI    C2 2658   6.199  14.564  10.386 -0.1912 -0.0320  0.1273
  167loPI    C3 2659   6.550  14.463  10.549  0.0694  0.2124 -0.2667
  167loPI   PO4 2660   6.299  14.065  10.092 -0.2482  0.0391  0.3735
  167loPI   GL1 2661   6.127  14.137   9.650 -0.2908 -0.1835  0.1639
  167loPI   GL2 2662   6.479  14.139   9.586 -0.1913 -0.0457  0.1358
  167loPI   C1A 2663   6.077  14.195   9.158 -0.1121  0.1786 -0.0127
  167loPI   C2A 2664   6.163  14.222   8.717  0.0380  0.2592 -0.2790
  167loPI   C3A 2665   6.000  14.387   8.244  0.0901 -0.0979  0.1187
  167loPI   C4A 2666   5.974  14.319   7.811  0.4028 -0.0081  0.3809
  167loPI   C5A 2667   6.127  14.620   7.649  0.1423 -0.1666  0.2271
  167loPI   C6A 2668   6.043  15.061   7.564 -0.3909  0.0069 -0.1468
  167loPI   C1B 2669   6.391  14.511   9.391  0.1414  0.0109  0.2520
  167loPI   C2B 2670   6.286  14.629   9.000  0.1067  0.0093 -0.1257
  167loPI   C3B 2671   6.360  14.721   8.494  0.2115  0.0053 -0.0277
  167loPI   C4B 2672   6.297  14.885   8.123  0.2863  0.2607 -0.3224
  168loPI    C1 2673  18.813   8.395   9.940 -0.2261  0.1392 -0.3415
  168loPI    C2 2674  18.724   8.696  10.188 -0.0352 -0.1395  0.0752
  168loPI    C3 2675  19.102   8.639  10.071 -0.0654 -0.2373  0.0239
  168loPI   PO4 2676  18.619   8.275   9.921  0.1369  0.2534 -0.2014
  168loPI   GL1 2677  18.404   8.158   9.610  0.2590 -0.0221  0.2027
  168loPI   GL2 2678  18.612   8.382   9.472 -0.1032 -0.0383  0.1522
  168loPI   C1A 2679  18.164   8.014   9.170  0.0451 -0.3186 -0.0566
  168loPI   C2A 2680  18.221   7.768   8.793 -0.2695 -0.1771  0.2699
  168loPI   C3A 2681  18.410   7.881   8.441  0.0192 -0.4370  0.5171
  168loPI   C4A 2682  18.325   7.901   8.038 -0.2651  0.1495  0.0612
  168loPI   C5A 2683  18.100   8.184   7.783 -0.0429 -0.1411 -0.1250
  168loPI   C6A 2684  17.727   8.117   7.476  0.0053 -0.1192 -0.0909
  168loPI   C1B 2685  18.478   8.368   9.098  0.2334  0.1191 -0.0396
  168loPI   C2B 2686  18.376   8.283   8.680 -0.1167  0.0982 -0.1493
  168loPI   C3B 2687  18.517   8.339   8.180  0.1372 -0.4579 -0.1339
  168loPI   C4B 2688  18.652   8.259   7.774  0.0145 -0.2185 -0.0382
  169loPI    C1 2689  16.482  14.522  10.163 -0.1453  0.0039 -0.0665
  169loPI    C2 2690  16.119  14.353  10.164 -0.1540  0.0223 -0.0882
  169loPI    C3 2691  16.193  14.668  10.399 -0.0901 -0.1124  0.0744
  169loPI   PO4 2692  16.624  14.619   9.870 -0.1630 -0.0371  0.1949
  169loPI   GL1 2693  16.538  14.919   9.579 -0.1186 -0.0859  0.1572
  169loPI   GL2 2694  16.675  15.037   9.279  0.2126  0.0215 -0.1482
  169loPI   C1A 2695  16.194  14.998   9.286  0.1965 -0.2663 -0.0714
  169loPI   C2A 2696  15.920  14.922   9.011 -0.4800  0.1313  0.0761
  169loPI   C3A 2697  15.955  15.109   8.668 -0.0631  0.0467 -0.1777
  169loPI   C4A 2698  15.971  15.271   8.292 -0.0404 -0.0699  0.0240
  169loPI   C5A 2699  15.976  15.232   7.914  0.1792  0.1011  0.3460
  169loPI   C6A 2700  16.059  15.258   7.469  0.0099  0.1202  0.0262
  169loPI   C1B 2701  16.784  15.050   8.836 -0.0585  0.1996  0.0558
  169loPI   C2B 2702  16.822  15.225   8.351  0.0281  0.2207  0.1691
  169loPI   C3B 2703  16.705  15.223   7.910 -0.0008 -0.0825  0.1108
  169loPI   C4B 2704  16.585  15.317   7.538  0.2603  0.4690 -0.0420
  170loPI    C1 2705  17.940   5.372  10.199  0.2031 -0.1860  0.0592
  170loPI    C2 2706  17.952   5.706  10.418 -0.0438 -0.1770  0.0620
  170loPI    C3 2707  18.242   5.433  10.454  0.2702  0.1281 -0.0916
  170loPI   PO4 2708  17.751   5.494   9.923 -0.1142  0.1183 -0.1939
  170loPI   GL1 2709  17.767   5.287   9.513 -0.2118  0.0723  0.1851
  170loPI   GL2 2710  17.493   5.574   9.405  0.0354 -0.0007 -0.0227
  170loPI   C1A 2711  17.795   5.372   9.124  0.0780 -0.2685 -0.2340
  170loPI   C2A 2712  17.812   5.419   8.698 -0.0816  0.1721  0.0297
  170loPI   C3A 2713  17.859   5.470   8.340 -0.0087 -0.1842  0.0246
  170loPI   C4A 2714  17.616   5.525   8.094 -0.1328  0.1724 -0.0984
  170loPI   C5A 2715  17.666   5.754   7.678 -0.0299  0.0471  0.0296
  170loPI   C6A 2716  17.707   6.174   7.481  0.1016  0.5208 -0.0369
  170loPI   C1B 2717  17.295   5.371   9.064 -0.0415 -0.0874 -0.0055
  170loPI   C2B 2718  17.321   5.459   8.628 -0.1820 -0.0101  0.0320
  170loPI   C3B 2719  17.178   5.347   8.227 -0.2926  0.2330  0.3177
  170loPI   C4B 2720  16.958   5.133   7.861  0.2279  0.1536  0.0237
  171loPI    C1 2721  11.007  15.062  10.755 -0.0323 -0.3127  0.1739
  171loPI    C2 2722  10.999  15.289  11.085 -0.0339 -0.1716  0.0774
  171loPI    C3 2723  11.338  15.109  10.975  0.0130 -0.0721  0.0578
  171loPI   PO4 2724  10.938  15.114  10.571 -0.0987 -0.1499  0.2968
  171loPI   GL1 2725  10.930  15.175  10.254 -0.0868  0.0968 -0.1499
  171loPI   GL2 2726  10.711  14.953  10.015  0.0054  0.0950  0.2203
  171loPI   C1A 2727  10.841  15.410   9.863 -0.3908 -0.0643  0.1813
  171loPI   C2A 2728  10.912  15.298   9.438  0.2768 -0.1398  0.2366
  171loPI   C3A 2729  10.958  15.252   9.024  0.1501 -0.3036 -0.0758
  171loPI   C4A 2730  10.991  15.276   8.559  0.0487 -0.1010 -0.0532
  171loPI   C5A 2731  11.061  15.119   8.158  0.2602  0.1505  0.2095
  171loPI   C6A 2732  11.220  14.791   7.906  0.0604 -0.2321  0.1464
  171loPI   C1B 2733  10.555  15.028   9.618 -0.0225  0.0005 -0.4873
  171loPI   C2B 2734  10.584  14.787   9.253  0.3087  0.4276  0.0942
  171loPI   C3B 2735  10.653  14.886   8.767 -0.1469  0.4709 -0.2742
  171loPI   C4B 2736  10.572  14.993   8.363 -0.1785  0.1071 -0.2304
  172loPI    C1 2737  18.799  11.727   9.858 -0.1597 -0.3090 -0.0456
  172loPI    C2 2738  18.534  11.617  10.137 -0.0754 -0.1478  0.1002
  172loPI    C3 2739  18.789  11.916  10.210 -0.1797  0.0249 -0.2213
  172loPI   PO4 2740  18.510  11.800   9.597 -0.3062  0.3512  0.1434
  172loPI   GL1 2741  18.312  11.693   9.124  0.1574 -0.0945 -0.1171
  172loPI   GL2 2742  18.548  11.893   9.105 -0.3905 -0.1136  0.1362
  172loPI   C1A 2743  18.052  11.573   8.784 -0.5981 -0.3266  0.2706
  172loPI   C2A 2744  17.831  11.794   8.568  0.0624 -0.0263 -0.2058
  172loPI   C3A 2745  17.741  11.900   8.145 -0.5119  0.0148 -0.0311
  172loPI   C4A 2746  17.824  11.860   7.794  0.3397 -0.0719  0.1154
  172loPI   C5A 2747  18.107  11.785   7.456  0.0252  0.0462 -0.2074
  172loPI   C6A 2748  18.326  12.033   7.324 -0.0697  0.2453 -0.0841
  172loPI   C1B 2749  18.463  11.844   8.653  0.0247 -0.2171 -0.1893
  172loPI   C2B 2750  18.257  11.781   8.226  0.2048 -0.4794  0.4048
  172loPI   C3B 2751  18.291  11.556   7.816  0.0456 -0.0172  0.1502
  172loPI   C4B 2752  18.322  11.185   7.496 -0.0476  0.4648 -0.3192
  173loPI    C1 2753   0.064  16.000  10.313 -0.0281  0.0139  0.3279
  173loPI    C2 2754   0.199  16.367  10.400 -0.0495  0.0864  0.0653
  173loPI    C3 2755  -0.134  16.231  10.574 -0.0520  0.1981  0.1497
  173loPI   PO4 2756   0.101  16.058  10.022  0.0332  0.1469 -0.0153
  173loPI   GL1 2757   0.001  15.940   9.653 -0.1705 -0.3158  0.0226
  173loPI   GL2 2758  -0.150  16.236   9.642 -0.2612  0.0626 -0.0353
  173loPI   C1A 2759  -0.048  16.050   9.204  0.4976 -0.1250 -0.0409
  173loPI   C2A 2760  -0.095  16.290   8.812 -0.3697  0.2153 -0.3001
  173loPI   C3A 2761  -0.040  16.314   8.295  0.0166 -0.2801  0.0386
  173loPI   C4A 2762  -0.169  16.339   8.042 -0.0978  0.0177  0.2143
  173loPI   C5A 2763  -0.354  16.407   7.698  0.2918 -0.4276  0.1305
  173loPI   C6A 2764  -0.598  16.752   7.483  0.3965 -0.0836  0.1999
  173loPI   C1B 2765  -0.081  16.533   9.353  0.0826  0.1241 -0.1159
  173loPI   C2B 2766  -0.180  16.821   9.114  0.1215  0.5423 -0.1551
  173loPI   C3B 2767  -0.222  16.788   8.622  0.0570  0.3522 -0.2372
  173loPI   C4B 2768  -0.431  16.864   8.145 -0.1231  0.1994  0.1679
  174loPI    C1 2769   7.800   7.013   9.752 -0.0897  0.0954 -0.1161
  174loPI    C2 2770   8.110   7.068   9.505 -0.0782 -0.0347 -0.1311
  174loPI    C3 2771   7.901   6.727   9.492  0.0286 -0.1141  0.1551
  174loPI   PO4 2772   7.628   7.237   9.745  0.0873 -0.0681  0.2197
  174loPI   GL1 2773   7.665   7.650   9.484  0.2285 -0.1470 -0.1090
  174loPI   GL2 2774   7.394   7.925   9.489 -0.2012 -0.1584 -0.0071
  174loPI   C1A 2775   7.806   7.919   9.049  0.0624  0.0830 -0.1600
  174loPI   C2A 2776   7.957   8.028   8.698 -0.1275 -0.1094 -0.0422
  174loPI   C3A 2777   7.779   8.114   8.431  0.5721 -0.0429 -0.0959
  174loPI   C4A 2778   7.839   8.239   8.001  0.2994  0.0342  0.2270
  174loPI   C5A 2779   7.725   8.322   7.553  0.0791 -0.2692 -0.0138
  174loPI   C6A 2780   7.505   8.231   7.194 -0.0086 -0.2975  0.1311
  174loPI   C1B 2781   7.431   8.256   9.239 -0.4320  0.2686  0.0129
  174loPI   C2B 2782   7.417   8.340   8.799  0.0697 -0.2901  0.0154
  174loPI   C3B 2783   7.513   8.518   8.350  0.0940  0.2645 -0.0619
  174loPI   C4B 2784   7.467   8.553   7.940  0.2103 -0.0338 -0.2664
  175loPI    C1 2785  15.887   1.942   9.830 -0.0016  0.1428  0.2423
  175loPI    C2 2786  15.691   1.710  10.090  0.0735  0.0700  0.2343
  175loPI    C3 2787  16.038   1.880  10.194  0.1705 -0.0665  0.1373
  175loPI   PO4 2788  15.662   2.065   9.717  0.3462  0.1027  0.0299
  175loPI   GL1 2789  15.478   2.019   9.333  0.2344 -0.0176 -0.1898
  175loPI   GL2 2790  15.750   1.739   9.307  0.0079  0.1941 -0.0671
  175loPI   C1A 2791  15.395   1.815   8.915  0.2986 -0.5497 -0.1378
  175loPI   C2A 2792  15.393   1.904   8.475  0.0313 -0.0278  0.4000
  175loPI   C3A 2793  15.467   1.846   8.078 -0.3781 -0.4752  0.3255
  175loPI   C4A 2794  15.323   1.833   7.671  0.0339  0.0190  0.0756
  175loPI   C5A 2795  15.092   1.848   7.299 -0.0609  0.0363  0.2917
  175loPI   C6A 2796  14.938   1.844   6.916 -0.1856  0.0003  0.1478
  175loPI   C1B 2797  15.865   1.404   8.991  0.1698 -0.2879  0.0475
  175loPI   C2B 2798  15.882   1.380   8.488  0.0114  0.0641  0.0819
  175loPI   C3B 2799  15.905   1.541   8.096 -0.1537 -0.0433 -0.0664
  175loPI   C4B 2800  15.877   1.586   7.737  0.1088 -0.0210 -0.4158
  176loPI    C1 2801  18.293   4.020   9.909  0.1420 -0.3934 -0.0608
  176loPI    C2 2802  18.247   4.259  10.226 -0.1142 -0.0898 -0.3195
  176loPI    C3 2803  18.223   3.862  10.269  0.3208 -0.0790  0.1165
  176loPI   PO4 2804  18.501   4.166   9.795  0.2790 -0.0830  0.1985
  176loPI   GL1 2805  18.608   4.202   9.475  0.5665  0.2260  0.3238
  176loPI   GL2 2806  18.338   4.016   9.254  0.0808 -0.2229  0.0548
  176loPI   C1A 2807  18.869   4.433   9.151 -0.0352 -0.4755  0.0594
  176loPI   C2A 2808  18.994   4.403   8.742  0.1515  0.1118 -0.1380
  176loPI   C3A 2809  18.887   4.340   8.448  0.1902  0.0119 -0.1974
  176loPI   C4A 2810  18.690   4.255   8.013 -0.1333  0.3532 -0.4434
  176loPI   C5A 2811  18.284   4.236   7.787  0.3252  0.4553  0.1910
  176loPI   C6A 2812  17.967   4.046   7.972  0.1588  0.3766  0.1463
  176loPI   C1B 2813  18.189   4.121   8.852  0.0319  0.0031  0.0006
  176loPI   C2B 2814  18.038   4.523   8.564  0.3142  0.0993  0.0918
  176loPI   C3B 2815  18.041   4.574   8.093 -0.0953  0.0480 -0.0793
  176loPI   C4B 2816  17.953   4.710   7.716  0.2505 -0.1301  0.0228
  177loPI    C1 2817  15.877  14.217   9.706 -0.0480  0.1733 -0.2000
  177loPI    C2 2818  15.704  14.451   9.980  0.0949  0.0738 -0.0225
  177loPI    C3 2819  15.721  14.055  10.037  0.0521  0.0431 -0.2156
  177loPI   PO4 2820  16.210  14.237   9.603 -0.1527  0.0570 -0.2088
  177loPI   GL1 2821  16.384  14.441   9.393  0.1779 -0.1618 -0.3688
  177loPI   GL2 2822  16.749  14.299   9.466  0.2517  0.0774 -0.5641
  177loPI   C1A 2823  16.373  14.637   9.064  0.0817 -0.2471 -0.0480
  177loPI   C2A 2824  16.362  14.773   8.706  0.0565 -0.1025 -0.2254
  177loPI   C3A 2825  16.380  14.957   8.317 -0.1317 -0.1487  0.1999
  177loPI   C4A 2826  16.237  14.803   7.943 -0.0035 -0.0939 -0.1799
  177loPI   C5A 2827  16.251  14.813   7.470  0.0889 -0.0309 -0.0428
  177loPI   C6A 2828  16.099  14.960   7.069 -0.0122  0.0334 -0.1157
  177loPI   C1B 2829  16.849  14.479   9.243  0.0333 -0.2575 -0.2097
  177loPI   C2B 2830  16.838  14.457   8.829  0.1268 -0.2477 -0.5434
  177loPI   C3B 2831  16.866  14.697   8.444  0.0341 -0.0196  0.1196
  177loPI   C4B 2832  16.819  14.740   8.009 -0.1805  0.1164  0.3974
  178loPI    C1 2833   1.500  12.350   9.614 -0.0242  0.2849  0.1641
  178loPI    C2 2834   1.336  12.635   9.842  0.0844  0.2420  0.2974
  178loPI    C3 2835   1.534  12.332  10.013  0.1950  0.2271  0.1443
  178loPI   PO4 2836   1.292  12.338   9.420  0.1170 -0.0892 -0.1701
  178loPI   GL1 2837   1.056  12.227   9.051 -0.0596  0.1175 -0.1985
  178loPI   GL2 2838   0.978  12.220   8.804 -0.3312 -0.0223  0.2670
  178loPI   C1A 2839   1.318  12.557   8.830  0.1284 -0.1963  0.1011
  178loPI   C2A 2840   1.351  12.595   8.392 -0.1154  0.1005  0.1388
  178loPI   C3A 2841   1.336  12.402   8.045  0.1595  0.3089  0.1289
  178loPI   C4A 2842   1.243  12.256   7.640 -0.1687  0.5023 -0.3535
  178loPI   C5A 2843   1.044  12.141   7.293 -0.0622 -0.0977  0.0026
  178loPI   C6A 2844   1.047  12.113   6.830  0.0958 -0.0177  0.0352
  178loPI   C1B 2845   1.006  12.250   8.394  0.0865  0.0069  0.1810
  178loPI   C2B 2846   0.808  12.276   8.079 -0.0986  0.0649 -0.2382
  178loPI   C3B 2847   0.730  12.360   7.674  0.1397  0.2334  0.2848
  178loPI   C4B 2848   0.615  12.360   7.246  0.1545  0.3638  0.0798
  179loPI    C1 2849  18.383  10.023   9.888  0.2308  0.0148 -0.0616
  179loPI    C2 2850  18.131  10.220  10.129  0.2287  0.0701 -0.1089
  179loPI    C3 2851  18.420   9.991  10.285 -0.0583 -0.2619 -0.0532
  179loPI   PO4 2852  18.473  10.157   9.717  0.0345 -0.1494 -0.1137
  179loPI   GL1 2853  18.350  10.227   9.243 -0.3412  0.0157  0.1198
  179loPI   GL2 2854  18.404  10.502   9.308 -0.0554 -0.0987  0.5173
  179loPI   C1A 2855  18.480  10.213   8.884 -0.1426 -0.2005 -0.0347
  179loPI   C2A 2856  18.659  10.318   8.549 -0.0288 -0.0034  0.1568
  179loPI   C3A 2857  18.772  10.429   8.154  0.1230  0.0464  0.0294
  179loPI   C4A 2858  18.875  10.531   7.690 -0.0953 -0.2927 -0.0524
  179loPI   C5A 2859  19.063  10.534   7.231  0.1777 -0.0817  0.0430
  179loPI   C6A 2860  18.997  10.416   6.925 -0.0109 -0.2677 -0.0870
  179loPI   C1B 2861  18.320  10.674   8.881  0.1863  0.0810  0.2707
  179loPI   C2B 2862  18.451  10.783   8.508  0.2806 -0.0294  0.3213
  179loPI   C3B 2863  18.434  10.807   8.137  0.0408  0.0697 -0.3680
  179loPI   C4B 2864  18.404  10.738   7.698  0.1655 -0.0431 -0.0052
  180loPI    C1 2865  12.169  15.552  10.397  0.1735 -0.0410  0.2342
  180loPI    C2 2866  12.396  15.314  10.625  0.4200 -0.1354 -0.1021
  180loPI    C3 2867  12.488  15.701  10.587  0.1580 -0.0327  0.2539
  180loPI   PO4 2868  11.930  15.565  10.354  0.2250 -0.0837 -0.1688
  180loPI   GL1 2869  11.612  15.690  10.003  0.1718  0.2355 -0.2027
  180loPI   GL2 2870  11.912  15.625   9.871 -0.2866  0.1270  0.0905
  180loPI   C1A 2871  11.437  15.404   9.738 -0.0912 -0.0358 -0.0293
  180loPI   C2A 2872  11.419  15.236   9.321 -0.2485 -0.0718 -0.1697
  180loPI   C3A 2873  11.355  15.074   8.888  0.0925 -0.0844 -0.0837
  180loPI   C4A 2874  11.546  15.008   8.468  0.2255  0.1132 -0.0524
  180loPI   C5A 2875  11.704  15.203   8.126  0.2575 -0.0207 -0.0175
  180loPI   C6A 2876  11.838  15.559   7.868 -0.1187  0.2031  0.0827
  180loPI   C1B 2877  11.920  15.396   9.525  0.0075  0.1342 -0.0035
  180loPI   C2B 2878  11.851  15.275   9.099  0.0349 -0.3036 -0.4093
  180loPI   C3B 2879  11.839  15.375   8.684 -0.0781  0.2278  0.0067
  180loPI   C4B 2880  12.135  15.191   8.342 -0.0402 -0.1478 -0.3087
  181loPI    C1 2881  15.323   0.478   9.889 -0.0748  0.1766 -0.1112
  181loPI    C2 2882  15.099   0.500  10.220  0.1521 -0.1395  0.0694
  181loPI    C3 2883  14.972   0.670   9.880 -0.2338 -0.0871  0.2348
  181loPI   PO4 2884  15.462   0.278   9.901  0.0266  0.0230 -0.0391
  181loPI   GL1 2885  15.658   0.348   9.439 -0.0480 -0.0428  0.0913
  181loPI   GL2 2886  15.239   0.378   9.370  0.0522 -0.1517  0.0133
  181loPI   C1A 2887  15.835   0.256   8.924  0.0608  0.1559 -0.0383
  181loPI   C2A 2888  15.908   0.404   8.563 -0.2499  0.0414  0.3320
  181loPI   C3A 2889  15.860   0.528   8.081 -0.1630 -0.0148  0.1406
  181loPI   C4A 2890  15.825   0.974   8.022  0.1365 -0.0664  0.0338
  181loPI   C5A 2891  16.094   1.161   7.714 -0.1562  0.1458 -0.1579
  181loPI   C6A 2892  16.547   0.957   7.518 -0.1147 -0.0827  0.2106
  181loPI   C1B 2893  15.028   0.620   8.998 -0.2411 -0.1167 -0.1537
  181loPI   C2B 2894  15.024   0.542   8.516 -0.1406  0.0321  0.0114
  181loPI   C3B 2895  14.955   0.488   8.067 -0.1862 -0.0984 -0.2369
  181loPI   C4B 2896  14.778   0.527   7.603  0.2755 -0.4537 -0.3038
  182loPI    C1 2897  17.462  16.546  10.672  0.0905  0.0509 -0.1309
  182loPI    C2 2898  17.812  16.355  10.638  0.0347 -0.0554 -0.1146
  182loPI    C3 2899  17.785  16.686  10.861  0.0585 -0.2142  0.1272
  182loPI   PO4 2900  17.320  16.370  10.399 -0.0338  0.0212  0.0781
  182loPI   GL1 2901  17.382  16.056  10.006 -0.1447  0.4135  0.1720
  182loPI   GL2 2902  17.555  16.428   9.965  0.0976 -0.1732 -0.2764
  182loPI   C1A 2903  17.411  16.192   9.505  0.2700  0.1239  0.1580
  182loPI   C2A 2904  17.348  16.310   9.097  0.0939  0.0603 -0.4442
  182loPI   C3A 2905  17.324  16.387   8.652 -0.0052  0.0351 -0.0046
  182loPI   C4A 2906  17.286  16.417   8.267 -0.2841 -0.1048  0.0686
  182loPI   C5A 2907  17.291  16.019   7.915 -0.2467  0.0069  0.0173
  182loPI   C6A 2908  17.413  15.884   7.571 -0.2218  0.1147 -0.3677
  182loPI   C1B 2909  17.779  16.489   9.525  0.2538 -0.2908 -0.1692
  182loPI   C2B 2910  17.887  16.399   9.039  0.2794 -0.1142 -0.1134
  182loPI   C3B 2911  17.854  16.390   8.539  0.0983 -0.2907  0.0984
  182loPI   C4B 2912  17.737  16.238   8.095  0.0567 -0.3719  0.1940
  183loPI    C1 2913   9.316   1.438   9.946 -0.2210 -0.0604 -0.0655
  183loPI    C2 2914   9.254   1.277  10.307 -0.0404 -0.1167 -0.0588
  183loPI    C3 2915   9.626   1.304  10.161 -0.1229 -0.1931 -0.2861
  183loPI   PO4 2916   9.069   1.329   9.851 -0.0461 -0.1051  0.6471
  183loPI   GL1 2917   8.778   1.530   9.552  0.4020  0.1163 -0.3246
  183loPI   GL2 2918   9.099   1.704   9.404  0.2540  0.2698 -0.0717
  183loPI   C1A 2919   8.893   1.368   9.130  0.3204  0.6704 -0.2356
  183loPI   C2A 2920   8.823   1.278   8.734  0.2542  0.0014  0.0460
  183loPI   C3A 2921   8.805   1.398   8.344 -0.3122  0.2085 -0.1100
  183loPI   C4A 2922   9.094   1.439   8.057  0.0276  0.3637 -0.0921
  183loPI   C5A 2923   9.467   1.433   7.768  0.0307  0.0205  0.3638
  183loPI   C6A 2924   9.547   1.835   7.608  0.2554 -0.0083 -0.0851
  183loPI   C1B 2925   9.323   1.720   9.043 -0.1672 -0.2126 -0.1699
  183loPI   C2B 2926   9.427   1.551   8.617  0.1423 -0.1184  0.1222
  183loPI   C3B 2927   9.573   1.448   8.279  0.1422 -0.1435 -0.3186
  183loPI   C4B 2928   9.874   1.220   7.974 -0.0298 -0.0335 -0.0716
  184loPI    C1 2929   0.617  10.768  10.297 -0.1302 -0.0790 -0.1342
  184loPI    C2 2930   0.649  10.661  10.682 -0.0950 -0.1361 -0.1529
  184loPI    C3 2931   0.391  10.947  10.574  0.0331  0.0151 -0.0608
  184loPI   PO4 2932   0.757  10.721  10.197 -0.2344 -0.0804  0.0861
  184loPI   GL1 2933   0.825  10.797   9.797 -0.0990 -0.1514 -0.2169
  184loPI   GL2 2934   0.574  10.838   9.570 -0.1076 -0.2704  0.0908
  184loPI   C1A 2935   0.805  10.411   9.451  0.1769  0.0674  0.1767
  184loPI   C2A 2936   0.711  10.281   9.071 -0.0095  0.2607 -0.0014
  184loPI   C3A 2937   0.807  10.156   8.562  0.1614  0.1660  0.2038
  184loPI   C4A 2938   0.825  10.257   8.216  0.0685  0.1374 -0.0837
  184loPI   C5A 2939   0.931  10.467   7.965 -0.1006  0.0482  0.1147
  184loPI   C6A 2940   1.182  10.655   7.705 -0.2269  0.1213 -0.1357
  184loPI   C1B 2941   0.711  10.793   9.156 -0.1674  0.0486  0.2326
  184loPI   C2B 2942   0.850  10.760   8.756 -0.0974 -0.1114 -0.0448
  184loPI   C3B 2943   0.826  10.798   8.389  0.2340  0.1465  0.0100
  184loPI   C4B 2944   0.601  10.878   7.941  0.0833 -0.2693 -0.0324
  185loPI    C1 2945   6.170   7.952   9.787  0.0418 -0.0149 -0.1777
  185loPI    C2 2946   6.374   8.239   9.598  0.1155  0.0602  0.0127
  185loPI    C3 2947   6.268   8.288   9.980 -0.4897  0.1354 -0.1529
  185loPI   PO4 2948   6.001   7.919   9.612  0.3492  0.3066 -0.2551
  185loPI   GL1 2949   5.748   8.042   9.342 -0.0647  0.0628  0.1833
  185loPI   GL2 2950   5.346   8.107   9.401 -0.0014  0.3900  0.1287
  185loPI   C1A 2951   5.989   8.164   8.941  0.2792 -0.1323 -0.2208
  185loPI   C2A 2952   5.979   8.131   8.494  0.0848 -0.1224  0.0690
  185loPI   C3A 2953   6.067   8.067   8.035 -0.1997  0.0867 -0.1577
  185loPI   C4A 2954   6.454   7.764   7.990  0.0018  0.1180 -0.4587
  185loPI   C5A 2955   6.915   7.848   7.798 -0.4814  0.1577 -0.0793
  185loPI   C6A 2956   7.318   8.035   7.565  0.1789 -0.1372  0.1541
  185loPI   C1B 2957   5.188   8.324   9.033  0.0501 -0.1251 -0.2136
  185loPI   C2B 2958   5.094   8.352   8.690 -0.1123  0.2034 -0.0779
  185loPI   C3B 2959   4.995   8.412   8.220  0.3267  0.0557 -0.2402
  185loPI   C4B 2960   4.862   8.625   7.858  0.2926 -0.0275  0.0416
  186loPI    C1 2961  18.188   9.188  10.013  0.0487 -0.2437  0.2094
  186loPI    C2 2962  17.997   9.345  10.327 -0.0093 -0.1177  0.1121
  186loPI    C3 2963  18.163   9.585  10.054  0.2148 -0.2265  0.1500
  186loPI   PO4 2964  17.992   9.000   9.951  0.2189 -0.4445  0.5583
  186loPI   GL1 2965  17.903   8.828   9.618 -0.3927 -0.3020 -0.3580
  186loPI   GL2 2966  18.159   8.583   9.386  0.0176 -0.2574  0.1247
  186loPI   C1A 2967  18.027   9.002   9.196 -0.1919  0.3434  0.1922
  186loPI   C2A 2968  18.228   8.880   8.719  0.1072  0.1404 -0.1380
  186loPI   C3A 2969  18.250   8.879   8.295  0.1500 -0.3497  0.4380
  186loPI   C4A 2970  18.062   8.648   8.072 -0.0105 -0.2057 -0.0791
  186loPI   C5A 2971  17.679   8.593   7.760 -0.2680 -0.1058 -0.1569
  186loPI   C6A 2972  17.507   8.609   7.381  0.4994  0.3068 -0.0564
  186loPI   C1B 2973  17.977   8.455   9.022  0.0273 -0.0506  0.1052
  186loPI   C2B 2974  17.893   8.475   8.534  0.1588  0.1520  0.2083
  186loPI   C3B 2975  17.537   8.626   8.260 -0.0382  0.0017  0.1502
  186loPI   C4B 2976  17.151   8.678   7.946  0.0413 -0.3482 -0.0848
  187loPI    C1 2977   5.487  14.683   9.926  0.0861 -0.0331  0.0591
  187loPI    C2 2978   5.089  14.718   9.928  0.0852 -0.0216 -0.1344
  187loPI    C3 2979   5.295  14.757  10.269 -0.0977 -0.2488  0.0048
  187loPI   PO4 2980   5.533  14.415   9.811 -0.0942 -0.0273  0.1074
  187loPI   GL1 2981   5.673  14.190   9.494 -0.1315 -0.0259  0.1369
  187loPI   GL2 2982   5.863  14.499   9.411  0.2349 -0.3257 -0.2052
  187loPI   C1A 2983   5.549  14.054   9.160 -0.1548  0.0693  0.1457
  187loPI   C2A 2984   5.640  14.051   8.774 -0.0379 -0.3382 -0.2687
  187loPI   C3A 2985   5.840  13.916   8.459  0.0518  0.2563  0.0067
  187loPI   C4A 2986   6.247  13.833   8.257 -0.1243  0.0828  0.0913
  187loPI   C5A 2987   6.419  13.776   7.870 -0.0856 -0.2845  0.1763
  187loPI   C6A 2988   6.890  13.812   7.669  0.0822  0.2051 -0.0983
  187loPI   C1B 2989   5.747  14.555   8.916  0.0082  0.0771 -0.3302
  187loPI   C2B 2990   5.860  14.826   8.514 -0.2119 -0.1300  0.0102
  187loPI   C3B 2991   5.716  14.890   8.050 -0.0432  0.4486  0.2552
  187loPI   C4B 2992   5.495  14.788   7.656 -0.0804 -0.2204 -0.0065
  188loPI    C1 2993   7.128   3.512   9.866  0.0793  0.0329  0.2944
  188loPI    C2 2994   7.031   3.193   9.645 -0.0169  0.1360  0.1860
  188loPI    C3 2995   6.746   3.400   9.834  0.0128  0.3209  0.0310
  188loPI   PO4 2996   7.446   3.549   9.883  0.2589  0.1132  0.1405
  188loPI   GL1 2997   7.605   3.271   9.652 -0.2343 -0.0668  0.2425
  188loPI   GL2 2998   7.838   3.194   9.453 -0.1005  0.0252  0.0353
  188loPI   C1A 2999   7.292   3.140   9.157 -0.1758 -0.1729  0.4021
  188loPI   C2A 3000   7.063   3.181   8.751 -0.1926  0.1120 -0.1700
  188loPI   C3A 3001   6.693   3.042   8.493 -0.2976 -0.1077 -0.3744
  188loPI   C4A 3002   6.364   3.061   8.192  0.0436  0.1580  0.2435
  188loPI   C5A 3003   6.347   2.793   7.690  0.3811 -0.0067  0.2250
  188loPI   C6A 3004   6.516   2.742   7.233  0.1538 -0.1264 -0.1454
  188loPI   C1B 3005   7.875   3.101   9.057 -0.1866 -0.0588 -0.2990
  188loPI   C2B 3006   8.096   3.284   8.671  0.2337 -0.2542 -0.4327
  188loPI   C3B 3007   8.362   3.335   8.317 -0.0367  0.2340 -0.1587
  188loPI   C4B 3008   8.874   3.263   8.281  0.1537  0.3802  0.0411
  189loPI    C1 3009   7.059   8.051  10.147  0.1124  0.0254  0.1431
  189loPI    C2 3010   7.027   7.740  10.397  0.2193  0.0145  0.1435
  189loPI    C3 3011   7.083   8.109  10.542 -0.2942  0.0923  0.1630
  189loPI   PO4 3012   7.060   7.973   9.920 -0.1184  0.0413 -0.2019
  189loPI   GL1 3013   6.791   7.982   9.560  0.2338  0.2146  0.0829
  189loPI   GL2 3014   6.984   8.225   9.466 -0.1234  0.0742  0.0066
  189loPI   C1A 3015   6.554   8.145   9.173 -0.4207  0.1207  0.1725
  189loPI   C2A 3016   6.550   8.128   8.751  0.1290 -0.0412 -0.2601
  189loPI   C3A 3017   6.568   8.195   8.404 -0.1773 -0.1207 -0.1455
  189loPI   C4A 3018   6.576   8.529   8.087  0.1263 -0.4736 -0.0284
  189loPI   C5A 3019   6.570   8.692   7.663 -0.1221 -0.0495  0.3153
  189loPI   C6A 3020   6.492   8.617   7.169 -0.1113 -0.0362 -0.1314
  189loPI   C1B 3021   7.009   8.102   9.043 -0.1846 -0.0621  0.1465
  189loPI   C2B 3022   7.008   8.095   8.617 -0.1837 -0.1944  0.1298
  189loPI   C3B 3023   7.043   8.319   8.138 -0.2303 -0.1254 -0.3048
  189loPI   C4B 3024   7.010   8.359   7.787 -0.0576 -0.0711  0.3275
  190loPI    C1 3025  17.510  10.612   9.720  0.0668 -0.3162 -0.0449
  190loPI    C2 3026  17.722  10.495  10.038 -0.0742  0.0679  0.1981
  190loPI    C3 3027  17.792  10.852   9.873 -0.1182 -0.0592 -0.1012
  190loPI   PO4 3028  17.468  10.338   9.587  0.3880  0.0624 -0.0011
  190loPI   GL1 3029  17.647  10.056   9.312 -0.0223 -0.2806  0.0338
  190loPI   GL2 3030  17.371   9.873   9.243 -0.0022 -0.1044  0.1850
  190loPI   C1A 3031  17.544  10.228   8.929 -0.3054  0.0461 -0.0124
  190loPI   C2A 3032  17.396  10.103   8.507  0.0227 -0.0545  0.0159
  190loPI   C3A 3033  17.613  10.254   8.155 -0.0868 -0.1575 -0.2064
  190loPI   C4A 3034  17.913  10.501   7.963 -0.0602  0.4177 -0.0432
  190loPI   C5A 3035  17.850  10.839   7.699  0.0643 -0.0746 -0.0344
  190loPI   C6A 3036  17.615  10.912   7.380 -0.3208 -0.1333  0.0833
  190loPI   C1B 3037  17.594   9.719   8.899 -0.0286  0.0765  0.5372
  190loPI   C2B 3038  17.616   9.652   8.461 -0.1825  0.0437 -0.2256
  190loPI   C3B 3039  17.468   9.787   7.926 -0.1347  0.3909 -0.1958
  190loPI   C4B 3040  17.179   9.693   7.602  0.0431 -0.2440 -0.0954
  191loPI    C1 3041  18.106  11.697   9.796  0.2019  0.1343 -0.0611
  191loPI    C2 3042  17.885  11.991   9.954  0.1591  0.1480 -0.1456
  191loPI    C3 3043  18.284  12.004   9.979  0.1416 -0.0801  0.3690
  191loPI   PO4 3044  17.985  11.759   9.501  0.0577 -0.1446 -0.0357
  191loPI   GL1 3045  17.834  11.893   9.122  0.0132 -0.1947  0.2961
  191loPI   GL2 3046  18.035  12.091   8.958 -0.2572  0.4378  0.2154
  191loPI   C1A 3047  17.423  11.893   8.997  0.0399  0.1386 -0.2714
  191loPI   C2A 3048  17.310  12.004   8.612  0.1688 -0.0746 -0.0548
  191loPI   C3A 3049  17.253  12.051   8.126  0.5097  0.3251 -0.0388
  191loPI   C4A 3050  17.325  12.191   7.671  0.1364  0.0386 -0.4218
  191loPI   C5A 3051  17.501  12.490   7.402  0.0511  0.2106 -0.1863
  191loPI   C6A 3052  17.915  12.661   7.217 -0.1228 -0.0805  0.0589
  191loPI   C1B 3053  18.238  12.375   8.757 -0.2482 -0.1024  0.0505
  191loPI   C2B 3054  18.111  12.282   8.395  0.0146 -0.1189 -0.2904
  191loPI   C3B 3055  17.983  12.305   7.954 -0.1322  0.1302 -0.0516
  191loPI   C4B 3056  17.968  12.270   7.511  0.1742  0.0711  0.5177
  192loPI    C1 3057  14.375   8.351   9.760 -0.1237  0.0358  0.1291
  192loPI    C2 3058  14.506   8.394  10.136 -0.0701  0.3103  0.0816
  192loPI    C3 3059  14.185   8.598  10.011 -0.2453  0.0216  0.0517
  192loPI   PO4 3060  14.636   8.343   9.633  0.0625  0.3137  0.3631
  192loPI   GL1 3061  14.905   8.371   9.241 -0.0282  0.2362 -0.1918
  192loPI   GL2 3062  14.955   8.097   9.305 -0.3538 -0.1711 -0.0789
  192loPI   C1A 3063  15.197   8.314   8.944 -0.0791  0.1633  0.0741
  192loPI   C2A 3064  15.381   8.184   8.554 -0.0068  0.1410  0.1321
  192loPI   C3A 3065  15.606   8.188   8.257  0.3172 -0.1516  0.2472
  192loPI   C4A 3066  15.615   8.097   7.821 -0.3219  0.0406 -0.0934
  192loPI   C5A 3067  15.514   8.228   7.485 -0.1128  0.2477  0.1279
  192loPI   C6A 3068  15.012   8.402   7.532  0.2291 -0.4769 -0.0068
  192loPI   C1B 3069  15.048   7.851   8.952 -0.0198 -0.0933 -0.0782
  192loPI   C2B 3070  15.022   7.795   8.525 -0.0928 -0.0802  0.2266
  192loPI   C3B 3071  14.904   7.769   8.144  0.1831 -0.2938 -0.0685
  192loPI   C4B 3072  15.068   7.962   7.772 -0.1020  0.0709  0.1530
  193loPI    C1 3073   6.569   5.320   9.745 -0.1567  0.0392 -0.0150
  193loPI    C2 3074   6.687   4.938   9.732  0.0621  0.1004  0.1196
  193loPI    C3 3075   6.551   5.094  10.075 -0.1212  0.1171  0.0408
  193loPI   PO4 3076   6.749   5.422   9.540 -0.0686  0.0942 -0.1239
  193loPI   GL1 3077   7.178   5.612   9.489 -0.1786  0.1557  0.0270
  193loPI   GL2 3078   7.460   5.550   9.178  0.0734  0.2580  0.1957
  193loPI   C1A 3079   7.040   5.398   9.016 -0.0694  0.2614  0.1325
  193loPI   C2A 3080   7.028   5.397   8.627  0.1817 -0.0887 -0.0768
  193loPI   C3A 3081   7.019   5.308   8.209  0.3619  0.1583 -0.0042
  193loPI   C4A 3082   6.793   5.611   7.924 -0.1501 -0.1149 -0.1778
  193loPI   C5A 3083   6.859   5.540   7.472 -0.0002 -0.2125 -0.1172
  193loPI   C6A 3084   7.219   5.419   7.203 -0.0528 -0.0324  0.1065
  193loPI   C1B 3085   7.512   5.463   8.651 -0.1327  0.0976  0.1799
  193loPI   C2B 3086   7.524   5.447   8.216  0.0035  0.1856  0.2263
  193loPI   C3B 3087   7.527   5.409   7.789  0.0124  0.2959 -0.1813
  193loPI   C4B 3088   7.270   5.213   7.644  0.0956  0.3300 -0.0775
  194loPI    C1 3089  14.564   0.479  10.252 -0.0483  0.1846 -0.0085
  194loPI    C2 3090  14.296   0.286  10.478  0.0436  0.1271  0.0525
  194loPI    C3 3091  14.205   0.642  10.318  0.0754  0.3009  0.4115
  194loPI   PO4 3092  14.553   0.345  10.016  0.2523 -0.2836  0.0994
  194loPI   GL1 3093  14.428   0.492   9.585 -0.0538  0.2701  0.2291
  194loPI   GL2 3094  14.733   0.368   9.536  0.0907 -0.0913 -0.2082
  194loPI   C1A 3095  14.447   0.563   9.201 -0.2441 -0.5179  0.2650
  194loPI   C2A 3096  14.588   0.568   8.789 -0.0048  0.2428 -0.1147
  194loPI   C3A 3097  14.494   0.664   8.342  0.0832  0.1147 -0.3339
  194loPI   C4A 3098  14.407   0.751   7.835  0.0738 -0.1659 -0.1783
  194loPI   C5A 3099  14.571   1.009   7.532  0.2202  0.2152  0.6174
  194loPI   C6A 3100  14.426   1.464   7.421  0.1541 -0.1769 -0.4370
  194loPI   C1B 3101  14.796   0.122   9.216  0.0600  0.1703 -0.0367
  194loPI   C2B 3102  14.881   0.065   8.778 -0.2112 -0.0350 -0.1809
  194loPI   C3B 3103  14.583   0.234   8.413 -0.0055  0.2738  0.0686
  194loPI   C4B 3104  14.555   0.269   7.991  0.1678 -0.2637 -0.2465
  195loPI    C1 3105  14.003   2.363   9.825 -0.2209  0.2147 -0.0101
  195loPI    C2 3106  14.254   2.331  10.135 -0.1114  0.4958 -0.0667
  195loPI    C3 3107  13.860   2.286  10.191 -0.0628  0.1873  0.0467
  195loPI   PO4 3108  14.080   2.281   9.613  0.1198 -0.1410 -0.1338
  195loPI   GL1 3109  14.424   2.121   9.250  0.0817 -0.2475  0.0310
  195loPI   GL2 3110  14.386   2.500   9.283  0.4001  0.2609  0.1326
  195loPI   C1A 3111  14.497   2.196   8.754  0.0171 -0.1925 -0.0916
  195loPI   C2A 3112  14.466   2.426   8.390 -0.0325 -0.1124 -0.0076
  195loPI   C3A 3113  14.507   2.763   8.091 -0.0843 -0.2003 -0.0724
  195loPI   C4A 3114  14.564   3.186   7.892 -0.0600  0.0947  0.1505
  195loPI   C5A 3115  14.670   3.464   7.516  0.0540 -0.2481  0.1458
  195loPI   C6A 3116  14.913   3.879   7.311  0.1392  0.2027  0.2497
  195loPI   C1B 3117  14.658   2.615   8.913  0.0223  0.1542 -0.4977
  195loPI   C2B 3118  14.758   2.826   8.567  0.0806 -0.1817  0.0107
  195loPI   C3B 3119  14.872   2.992   8.276 -0.1436  0.2157  0.1520
  195loPI   C4B 3120  14.972   2.857   7.872  0.3347 -0.2952  0.1399
  196loPI    C1 3121   8.996   2.426   9.773 -0.1919 -0.0525  0.0189
  196loPI    C2 3122   9.144   2.356  10.138 -0.1359 -0.0026  0.0057
  196loPI    C3 3123   9.112   2.732  10.004  0.0422 -0.0317 -0.1227
  196loPI   PO4 3124   8.871   2.278   9.681 -0.4006 -0.1276 -0.3674
  196loPI   GL1 3125   8.522   2.163   9.396  0.1962  0.3847 -0.0982
  196loPI   GL2 3126   8.591   1.933   9.264 -0.1077 -0.1950  0.0029
  196loPI   C1A 3127   8.260   2.230   9.036 -0.2038 -0.3992  0.4745
  196loPI   C2A 3128   8.036   1.928   8.715  0.0336 -0.0261 -0.1786
  196loPI   C3A 3129   7.781   1.619   8.481 -0.4755  0.0572  0.1331
  196loPI   C4A 3130   7.680   1.383   8.154 -0.1398 -0.1066 -0.2986
  196loPI   C5A 3131   7.706   1.093   7.655 -0.2204 -0.2252  0.1437
  196loPI   C6A 3132   7.760   0.679   7.427  0.2105 -0.0552 -0.0569
  196loPI   C1B 3133   8.888   1.818   8.837 -0.0704 -0.2160 -0.3524
  196loPI   C2B 3134   8.859   1.909   8.350  0.3799 -0.1649  0.0248
  196loPI   C3B 3135   8.790   1.998   7.892 -0.2528  0.0251  0.0165
  196loPI   C4B 3136   8.747   2.020   7.515  0.0228 -0.0180  0.1626
  197loPI    C1 3137  10.263   6.802   9.665 -0.1072 -0.0215 -0.0334
  197loPI    C2 3138  10.338   7.129   9.883 -0.1330  0.1039 -0.2104
  197loPI    C3 3139   9.960   7.019   9.810 -0.1244  0.0483 -0.1721
  197loPI   PO4 3140  10.488   6.703   9.603 -0.0546  0.3509 -0.0084
  197loPI   GL1 3141  10.557   6.800   9.126 -0.3558 -0.1551 -0.0234
  197loPI   GL2 3142  10.349   6.610   9.077  0.0138 -0.0464 -0.3434
  197loPI   C1A 3143  10.711   6.971   8.923  0.1830  0.3274  0.0407
  197loPI   C2A 3144  10.621   7.133   8.519 -0.2253  0.2401  0.0644
  197loPI   C3A 3145  10.849   6.918   8.176 -0.1191 -0.1133  0.0445
  197loPI   C4A 3146  10.886   7.251   7.763 -0.0797 -0.0978  0.0044
  197loPI   C5A 3147  10.716   7.451   7.413 -0.3896 -0.1575  0.0673
  197loPI   C6A 3148  10.651   7.821   7.097  0.1114 -0.0319 -0.1045
  197loPI   C1B 3149  10.309   6.746   8.673  0.3124  0.0930  0.2700
  197loPI   C2B 3150  10.282   6.933   8.198  0.1063  0.1262 -0.1516
  197loPI   C3B 3151  10.450   6.814   7.805 -0.0363  0.0407 -0.1459
  197loPI   C4B 3152  10.375   6.557   7.555 -0.0180 -0.1099 -0.0433
  198loPI    C1 3153   5.255   6.498   9.969  0.2548  0.1114  0.1428
  198loPI    C2 3154   5.391   6.149   9.829  0.0094  0.1235 -0.1349
  198loPI    C3 3155   5.196   6.161  10.177  0.3114  0.0380  0.0410
  198loPI   PO4 3156   5.148   6.684   9.708  0.3290 -0.0703  0.1702
  198loPI   GL1 3157   5.258   6.783   9.161 -0.0783  0.0279 -0.2972
  198loPI   GL2 3158   5.073   6.931   8.979  0.1304 -0.4255 -0.3566
  198loPI   C1A 3159   5.510   6.941   8.826 -0.0574  0.4558  0.3626
  198loPI   C2A 3160   5.605   7.132   8.362  0.0417  0.1268 -0.0200
  198loPI   C3A 3161   5.891   7.043   8.079  0.0592  0.0160  0.0593
  198loPI   C4A 3162   5.905   6.956   7.611 -0.3844  0.2941 -0.2890
  198loPI   C5A 3163   5.677   6.570   7.478  0.0023  0.2072 -0.0615
  198loPI   C6A 3164   5.659   6.330   7.099  0.0723 -0.1039 -0.1743
  198loPI   C1B 3165   4.916   6.941   8.554  0.2932  0.1964 -0.1702
  198loPI   C2B 3166   5.233   6.813   8.241 -0.2868  0.0545 -0.0139
  198loPI   C3B 3167   5.385   6.948   7.851 -0.2962 -0.0840  0.0881
  198loPI   C4B 3168   5.064   7.111   7.520  0.0580 -0.3022  0.0617
  199loPI    C1 3169   3.341  15.180   9.684  0.0612 -0.4336  0.0398
  199loPI    C2 3170   3.233  15.154  10.069  0.0299 -0.0433  0.0623
  199loPI    C3 3171   3.621  15.163   9.970  0.0413  0.3432  0.1282
  199loPI   PO4 3172   3.208  15.465   9.652  0.1124  0.0299  0.0411
  199loPI   GL1 3173   3.312  15.772   9.420  0.1031 -0.4515  0.3113
  199loPI   GL2 3174   3.556  15.568   9.252  0.1659  0.0370 -0.0073
  199loPI   C1A 3175   3.082  15.738   9.005 -0.1687  0.0313  0.0317
  199loPI   C2A 3176   3.142  15.568   8.620 -0.2526 -0.1691 -0.0640
  199loPI   C3A 3177   3.057  15.488   8.278  0.1304 -0.0694  0.3323
  199loPI   C4A 3178   3.022  15.530   7.928 -0.0288  0.2147 -0.0083
  199loPI   C5A 3179   2.827  15.359   7.841  0.1006  0.0873  0.1564
  199loPI   C6A 3180   2.649  15.222   7.457  0.0989 -0.1690 -0.1444
  199loPI   C1B 3181   3.609  15.575   8.781 -0.0270  0.4271  0.4356
  199loPI   C2B 3182   3.618  15.685   8.320 -0.2356  0.0972 -0.1653
  199loPI   C3B 3183   3.511  15.523   7.895 -0.3345 -0.1088 -0.0775
  199loPI   C4B 3184   3.202  15.428   7.521  0.0793  0.0971  0.1307
  200loPI    C1 3185  18.268  10.893   9.619  0.0354  0.0466 -0.0644
  200loPI    C2 3186  18.231  10.631   9.919 -0.0897 -0.1375 -0.2388
  200loPI    C3 3187  18.582  10.672   9.732  0.1064  0.2752  0.1985
  200loPI   PO4 3188  18.103  10.824   9.447  0.2211  0.0454 -0.4545
  200loPI   GL1 3189  17.740  10.691   9.276 -0.0624  0.0984  0.0550
  200loPI   GL2 3190  17.884  10.457   9.138 -0.1481  0.1826  0.2731
  200loPI   C1A 3191  17.593  10.780   8.868 -0.3776  0.4106  0.0278
  200loPI   C2A 3192  17.514  10.683   8.468 -0.1413 -0.0053  0.1146
  200loPI   C3A 3193  17.491  10.853   8.055  0.1264  0.1661  0.5133
  200loPI   C4A 3194  17.325  11.018   7.740 -0.4926 -0.1106 -0.3582
  200loPI   C5A 3195  16.895  11.251   7.692  0.0837  0.2130  0.0190
  200loPI   C6A 3196  16.615  11.369   7.482 -0.2358 -0.0600 -0.0537
  200loPI   C1B 3197  17.946  10.428   8.618 -0.3095 -0.1807  0.0812
  200loPI   C2B 3198  18.241  10.324   8.315  0.2052 -0.2924 -0.2071
  200loPI   C3B 3199  18.389  10.283   7.888  0.1905  0.0437  0.0210
  200loPI   C4B 3200  18.163  10.338   7.473  0.2024 -0.2218  0.1747
  201loPI    C1 3201  18.800  13.219  10.076  0.1429  0.2500  0.1395
  201loPI    C2 3202  18.833  13.225  10.475 -0.4290  0.0574  0.1984
  201loPI    C3 3203  18.605  12.948  10.297  0.3054 -0.2512 -0.3101
  201loPI   PO4 3204  19.040  13.193   9.922  0.0654 -0.0130 -0.3094
  201loPI   GL1 3205  19.223  13.404   9.607 -0.1358  0.1132  0.1121
  201loPI   GL2 3206  18.939  13.349   9.377 -0.0221 -0.0644  0.2440
  201loPI   C1A 3207  19.393  13.416   9.225  0.4361  0.3334  0.0635
  201loPI   C2A 3208  19.467  13.359   8.735 -0.0227  0.2974 -0.2224
  201loPI   C3A 3209  19.523  13.311   8.352 -0.2222 -0.1229 -0.1003
  201loPI   C4A 3210  19.647  13.574   7.933 -0.0994 -0.0748  0.0592
  201loPI   C5A 3211  19.414  13.810   7.751 -0.1267 -0.0229  0.0082
  201loPI   C6A 3212  18.931  13.731   7.590  0.2917 -0.0599 -0.0643
  201loPI   C1B 3213  18.888  13.441   9.066  0.1164 -0.0571 -0.2048
  201loPI   C2B 3214  18.999  13.442   8.563  0.2475 -0.1302  0.1210
  201loPI   C3B 3215  18.876  13.291   8.184  0.1980 -0.1635 -0.2283
  201loPI   C4B 3216  19.133  13.241   7.804  0.0371 -0.1180 -0.0529
  202loPI    C1 3217   1.814   4.632   9.996 -0.0178 -0.1557 -0.0912
  202loPI    C2 3218   1.653   4.925  10.215  0.2016  0.0681 -0.2236
  202loPI    C3 3219   1.549   4.545  10.282  0.0134  0.1629  0.0392
  202loPI   PO4 3220   1.842   4.731   9.775  0.2239 -0.2684 -0.2690
  202loPI   GL1 3221   2.063   4.953   9.504 -0.4699 -0.1586  0.0157
  202loPI   GL2 3222   2.409   5.029   9.422  0.0404  0.1691  0.0386
  202loPI   C1A 3223   1.937   4.966   9.087  0.0840  0.1303 -0.1888
  202loPI   C2A 3224   1.891   5.275   8.810 -0.0474 -0.2833  0.4013
  202loPI   C3A 3225   2.036   5.302   8.444  0.0246 -0.1228 -0.1692
  202loPI   C4A 3226   1.642   5.200   8.163  0.0356  0.1363 -0.3905
  202loPI   C5A 3227   1.395   5.221   7.781 -0.0630  0.1163  0.0030
  202loPI   C6A 3228   1.024   5.522   7.502  0.1547  0.1006 -0.2549
  202loPI   C1B 3229   2.450   5.000   8.859  0.2398 -0.1420 -0.0209
  202loPI   C2B 3230   2.432   4.897   8.328 -0.3186 -0.1792  0.1930
  202loPI   C3B 3231   2.481   4.661   7.897  0.0003 -0.0194 -0.0796
  202loPI   C4B 3232   2.512   4.738   7.474 -0.1525  0.1600 -0.1461
  203loPI    C1 3233  13.584  10.476  10.305  0.0993  0.0037 -0.1481
  203loPI    C2 3234  13.354  10.236  10.528  0.1890  0.2066  0.1695
  203loPI    C3 3235  13.714  10.349  10.661  0.1898  0.4370 -0.0202
  203loPI   PO4 3236  13.570  10.428   9.951 -0.0596  0.0630 -0.0779
  203loPI   GL1 3237  13.680  10.683   9.597 -0.0170 -0.2043  0.1277
  203loPI   GL2 3238  13.872  10.516   9.340 -0.0123 -0.1872 -0.1237
  203loPI   C1A 3239  13.325  10.703   9.274  0.0773  0.0578  0.2359
  203loPI   C2A 3240  13.194  10.733   8.891 -0.1869  0.4133 -0.1253
  203loPI   C3A 3241  13.070  10.725   8.385 -0.0463  0.3373 -0.2506
  203loPI   C4A 3242  13.299  10.971   8.065 -0.1387 -0.0831  0.2059
  203loPI   C5A 3243  13.536  11.336   7.916  0.1158 -0.3691  0.2807
  203loPI   C6A 3244  13.278  11.537   7.646 -0.1043  0.0189 -0.0150
  203loPI   C1B 3245  13.714  10.564   8.943 -0.2094  0.0854 -0.1782
  203loPI   C2B 3246  13.610  10.628   8.548 -0.0307  0.1435 -0.0063
  203loPI   C3B 3247  13.822  10.505   8.077  0.0560 -0.3347  0.0642
  203loPI   C4B 3248  13.946  10.321   7.682  0.1651 -0.0001  0.0286
  204loPI    C1 3249  11.626   1.375   9.844  0.0951  0.1592 -0.0430
  204loPI    C2 3250  11.301   1.160   9.755  0.1126  0.1295 -0.0356
  204loPI    C3 3251  11.310   1.379  10.089  0.1642 -0.0030  0.0508
  204loPI   PO4 3252  11.713   1.312   9.616 -0.4255 -0.1111  0.2394
  204loPI   GL1 3253  11.749   1.016   9.274  0.0289  0.0781 -0.5205
  204loPI   GL2 3254  11.508   0.769   9.394 -0.2401  0.0540 -0.1102
  204loPI   C1A 3255  11.732   1.107   8.800 -0.2872  0.0265 -0.3445
  204loPI   C2A 3256  11.815   1.132   8.323 -0.0795 -0.1792 -0.0013
  204loPI   C3A 3257  11.879   1.229   7.945 -0.1129 -0.0431  0.2105
  204loPI   C4A 3258  11.769   0.936   7.688  0.0763 -0.4484  0.2409
  204loPI   C5A 3259  11.586   0.685   7.287  0.1420  0.1508 -0.3693
  204loPI   C6A 3260  11.383   0.309   7.224  0.2259 -0.2841  0.1939
  204loPI   C1B 3261  11.501   0.639   8.920  0.2319  0.0222  0.1891
  204loPI   C2B 3262  11.402   0.814   8.503 -0.2891  0.1499  0.3187
  204loPI   C3B 3263  11.515   0.799   8.115 -0.1221  0.1530  0.2307
  204loPI   C4B 3264  11.500   0.456   7.726 -0.0798  0.0732  0.1006
  205loPI    C1 3265  16.946  12.029  10.459 -0.0198  0.0525 -0.0429
  205loPI    C2 3266  17.340  12.090  10.497 -0.0191  0.1278 -0.1670
  205loPI    C3 3267  17.102  12.116  10.817  0.1137 -0.2013 -0.0366
  205loPI   PO4 3268  16.897  12.200  10.184 -0.1610 -0.0120 -0.0736
  205loPI   GL1 3269  16.560  12.348   9.892  0.1516  0.2342 -0.2647
  205loPI   GL2 3270  16.876  12.348   9.729 -0.0688  0.0959  0.0632
  205loPI   C1A 3271  16.576  12.038   9.514  0.0645 -0.0703  0.0707
  205loPI   C2A 3272  16.666  12.080   9.145 -0.3210  0.0646 -0.1109
  205loPI   C3A 3273  16.913  12.083   8.925 -0.1097  0.0803 -0.2329
  205loPI   C4A 3274  16.818  12.056   8.543 -0.0461  0.0501  0.3325
  205loPI   C5A 3275  16.683  12.085   8.217  0.0575 -0.2287 -0.1740
  205loPI   C6A 3276  16.861  12.179   7.807 -0.0074  0.0943  0.1632
  205loPI   C1B 3277  16.831  12.619   9.479 -0.1428  0.4185 -0.0091
  205loPI   C2B 3278  16.842  12.863   9.155  0.4914 -0.0901 -0.2762
  205loPI   C3B 3279  16.944  12.929   8.611 -0.0505  0.1748 -0.2056
  205loPI   C4B 3280  16.674  13.239   8.372  0.2024 -0.2498  0.3036
  206loPI    C1 3281   6.467   6.965   9.618  0.0595  0.2084  0.0149
  206loPI    C2 3282   6.400   7.019  10.008 -0.1287 -0.0834  0.0260
  206loPI    C3 3283   6.355   6.656   9.846  0.0752  0.0083 -0.2433
  206loPI   PO4 3284   6.642   7.090   9.576 -0.3093  0.0787  0.0441
  206loPI   GL1 3285   6.995   7.082   9.283  0.2492 -0.1755  0.0913
  206loPI   GL2 3286   6.857   6.812   9.226  0.0667  0.4038 -0.0049
  206loPI   C1A 3287   6.928   7.235   8.947 -0.3943 -0.2316  0.0983
  206loPI   C2A 3288   6.844   7.237   8.520 -0.0715 -0.1074  0.0621
  206loPI   C3A 3289   6.882   7.222   8.186  0.0288  0.1123  0.0780
  206loPI   C4A 3290   6.782   7.344   7.796 -0.0018 -0.0895  0.4258
  206loPI   C5A 3291   6.639   7.182   7.479 -0.2199 -0.2442  0.3719
  206loPI   C6A 3292   6.217   7.315   7.370 -0.0788 -0.0327 -0.1918
  206loPI   C1B 3293   6.728   6.750   8.912  0.3288  0.3943  0.0058
  206loPI   C2B 3294   6.684   6.716   8.441  0.1016  0.4200 -0.0921
  206loPI   C3B 3295   6.621   6.832   8.021 -0.2292  0.1286 -0.3118
  206loPI   C4B 3296   6.335   6.898   7.786  0.1683 -0.1543 -0.3116
  207loPI    C1 3297   3.878   1.342  10.165  0.0947 -0.2173  0.0956
  207loPI    C2 3298   3.817   1.588  10.474  0.0345  0.0397 -0.1173
  207loPI    C3 3299   4.176   1.573  10.300 -0.0487  0.2195 -0.3088
  207loPI   PO4 3300   3.611   1.290  10.104  0.0704  0.0769  0.2075
  207loPI   GL1 3301   3.404   1.171   9.873  0.3463 -0.1390  0.0336
  207loPI   GL2 3302   3.351   1.527   9.775  0.2150  0.0355  0.2507
  207loPI   C1A 3303   3.179   1.080   9.489 -0.1185 -0.1221  0.1134
  207loPI   C2A 3304   2.985   0.951   9.127 -0.2097  0.0623  0.1821
  207loPI   C3A 3305   2.950   0.881   8.756 -0.1041  0.0703  0.2206
  207loPI   C4A 3306   3.046   0.873   8.281 -0.2120 -0.0464 -0.1178
  207loPI   C5A 3307   2.657   0.818   8.064 -0.3010  0.1691 -0.1452
  207loPI   C6A 3308   2.166   0.795   8.050 -0.2905 -0.0373  0.1365
  207loPI   C1B 3309   3.464   1.439   9.349 -0.1369 -0.3047  0.1918
  207loPI   C2B 3310   3.303   1.383   8.993 -0.0087  0.1827  0.2260
  207loPI   C3B 3311   3.166   1.361   8.715  0.2914  0.1807 -0.0808
  207loPI   C4B 3312   2.883   1.299   8.462  0.0888 -0.4359  0.1907
  208loPI    C1 3313   0.904  17.864  10.460 -0.0876 -0.1362  0.1330
  208loPI    C2 3314   1.192  17.732  10.705 -0.1503 -0.3421  0.0980
  208loPI    C3 3315   0.815  17.608  10.755 -0.2062 -0.1944  0.0475
  208loPI   PO4 3316   0.995  17.695  10.070  0.3501 -0.0003 -0.1755
  208loPI   GL1 3317   1.207  17.921   9.697  0.1933 -0.0935 -0.0693
  208loPI   GL2 3318   1.371  17.685   9.518  0.1000  0.1120 -0.3219
  208loPI   C1A 3319   1.531  18.134   9.479  0.0410 -0.4628  0.2056
  208loPI   C2A 3320   1.732  18.404   9.142 -0.0357 -0.0566 -0.5093
  208loPI   C3A 3321   1.678  18.493   8.744  0.0252  0.2956 -0.1216
  208loPI   C4A 3322   1.527  18.558   8.333  0.2202 -0.1654 -0.2937
  208loPI   C5A 3323   1.150  18.727   8.175  0.0266 -0.1951 -0.1359
  208loPI   C6A 3324   0.917  18.515   8.101  0.3244  0.1695 -0.3312
  208loPI   C1B 3325   1.659  17.781   9.127  0.0424  0.2266  0.0338
  208loPI   C2B 3326   1.582  17.729   8.754 -0.0471 -0.0417  0.0296
  208loPI   C3B 3327   1.510  17.868   8.347 -0.0911 -0.3526  0.0144
  208loPI   C4B 3328   1.246  18.193   8.150  0.2013  0.1675  0.1646
  209loPI    C1 3329  15.093  17.977   9.889  0.2142 -0.1556 -0.0803
  209loPI    C2 3330  15.353  18.237   9.732 -0.3048  0.3845 -0.0815
  209loPI    C3 3331  15.274  18.246  10.124  0.3100 -0.3606  0.0840
  209loPI   PO4 3332  15.066  17.794   9.788 -0.2480  0.4248  0.0334
  209loPI   GL1 3333  15.346  17.813   9.502  0.0680 -0.1478 -0.1337
  209loPI   GL2 3334  15.068  18.023   9.346 -0.1237 -0.0505  0.1333
  209loPI   C1A 3335  15.501  17.731   9.148  0.2074 -0.1075  0.3505
  209loPI   C2A 3336  15.688  17.594   8.806 -0.0542  0.2307 -0.5374
  209loPI   C3A 3337  15.851  17.620   8.407 -0.0893 -0.0989  0.0445
  209loPI   C4A 3338  16.030  17.750   8.035 -0.0448  0.0208  0.0496
  209loPI   C5A 3339  15.892  17.762   7.601 -0.1688  0.2016  0.5149
  209loPI   C6A 3340  16.106  18.072   7.333 -0.0282 -0.0039 -0.2391
  209loPI   C1B 3341  14.890  18.088   8.895 -0.2592 -0.1328  0.2478
  209loPI   C2B 3342  14.812  17.984   8.487  0.0596 -0.0820  0.3705
  209loPI   C3B 3343  14.750  17.929   8.130  0.1064 -0.0865 -0.2349
  209loPI   C4B 3344  15.028  17.569   7.962 -0.0570  0.2100  0.2334
  210loPI    C1 3345  10.343  18.227  10.375  0.0963  0.1092 -0.2313
  210loPI    C2 3346  10.738  18.173  10.411  0.0326 -0.1971  0.0541
  210loPI    C3 3347  10.513  18.227  10.737 -0.1420  0.1470 -0.1177
  210loPI   PO4 3348  10.311  18.117  10.151 -0.0659 -0.2586  0.4199
  210loPI   GL1 3349  10.488  18.106   9.690 -0.0620 -0.1160  0.2895
  210loPI   GL2 3350  10.235  18.285   9.600 -0.1102 -0.1370 -0.0173
  210loPI   C1A 3351  10.329  17.787   9.345  0.1827  0.2542  0.3918
  210loPI   C2A 3352  10.255  17.791   8.937  0.0767 -0.1986 -0.2054
  210loPI   C3A 3353  10.014  17.914   8.538  0.0210 -0.2283  0.4142
  210loPI   C4A 3354   9.817  18.044   8.219 -0.0681  0.1556 -0.1076
  210loPI   C5A 3355   9.833  18.129   7.803 -0.2920  0.1070 -0.0378
  210loPI   C6A 3356   9.841  18.421   7.499  0.1909 -0.0096  0.2363
  210loPI   C1B 3357  10.054  18.143   9.217 -0.5805  0.0821 -0.2283
  210loPI   C2B 3358   9.859  18.342   8.806 -0.5167 -0.0148  0.0851
  210loPI   C3B 3359   9.518  18.261   8.522  0.0905 -0.2582 -0.0559
  210loPI   C4B 3360   9.331  18.508   8.195 -0.0674  0.0444 -0.0190
  211loPI    C1 3361   9.147  11.350  10.186  0.2615 -0.0747  0.1170
  211loPI    C2 3362   8.899  11.520   9.922  0.0088 -0.2882  0.2123
  211loPI    C3 3363   9.181  11.739  10.102  0.0386 -0.0927 -0.0666
  211loPI   PO4 3364   9.187  11.161  10.114  0.0231  0.0943 -0.2788
  211loPI   GL1 3365   9.080  11.138   9.635  0.1067  0.1540 -0.0863
  211loPI   GL2 3366   8.911  10.831   9.689 -0.0059  0.3111 -0.1385
  211loPI   C1A 3367   9.260  11.054   9.272  0.2602 -0.1143 -0.2071
  211loPI   C2A 3368   9.497  11.014   8.903 -0.4741 -0.1936  0.0342
  211loPI   C3A 3369   9.756  10.928   8.618  0.0666  0.0667 -0.0629
  211loPI   C4A 3370   9.722  10.763   8.180  0.2807 -0.4034 -0.0499
  211loPI   C5A 3371   9.764  10.708   7.750  0.0706 -0.0347 -0.2302
  211loPI   C6A 3372   9.685  10.820   7.310 -0.3656 -0.0295 -0.1108
  211loPI   C1B 3373   8.654  11.008   9.375  0.3965  0.0503 -0.0601
  211loPI   C2B 3374   8.756  11.321   9.133  0.2043  0.1004 -0.2193
  211loPI   C3B 3375   9.010  11.648   9.037  0.0322  0.0934  0.1853
  211loPI   C4B 3376   9.268  11.940   8.988  0.4016 -0.0276  0.1520
  212loPI    C1 3377   2.044  10.355  10.295  0.0191 -0.0439  0.0496
  212loPI    C2 3378   2.375  10.330  10.519  0.1140  0.0045 -0.0835
  212loPI    C3 3379   2.017  10.372  10.694  0.2032  0.2127  0.0538
  212loPI   PO4 3380   2.133  10.540  10.097 -0.0838 -0.0938 -0.0128
  212loPI   GL1 3381   2.026  10.759   9.713 -0.0733 -0.0792  0.1250
  212loPI   GL2 3382   1.702  10.693   9.675  0.3085  0.2689  0.1313
  212loPI   C1A 3383   2.083  10.623   9.356 -0.0363 -0.2873 -0.1687
  212loPI   C2A 3384   2.172  10.699   8.985  0.0148  0.2263 -0.0073
  212loPI   C3A 3385   1.985  10.854   8.715 -0.0894  0.0442 -0.0672
  212loPI   C4A 3386   1.686  10.768   8.370  0.0573  0.1129  0.0377
  212loPI   C5A 3387   1.730  10.709   7.992 -0.0427 -0.3427  0.0378
  212loPI   C6A 3388   1.578  10.940   7.672  0.1850 -0.0464 -0.0852
  212loPI   C1B 3389   1.610  10.878   9.219 -0.0746 -0.1908 -0.0222
  212loPI   C2B 3390   1.851  11.129   9.069  0.1222 -0.1871  0.0209
  212loPI   C3B 3391   2.202  11.219   8.996 -0.1084  0.1648  0.3149
  212loPI   C4B 3392   2.518  11.472   8.870 -0.1176  0.1351 -0.2749
  213loPI    C1 3393   2.378  16.549  10.441  0.0548 -0.1001 -0.1140
  213loPI    C2 3394   2.750  16.408  10.406  0.0745 -0.0509 -0.1032
  213loPI    C3 3395   2.637  16.592  10.743  0.0456 -0.0506 -0.1130
  213loPI   PO4 3396   2.329  16.741  10.165 -0.0159 -0.1057  0.1853
  213loPI   GL1 3397   2.219  16.646   9.705  0.2635 -0.1753  0.2430
  213loPI   GL2 3398   2.009  16.921   9.771 -0.0836 -0.0526 -0.3171
  213loPI   C1A 3399   2.622  16.588   9.416 -0.0037 -0.0246  0.0126
  213loPI   C2A 3400   2.475  16.177   9.155  0.3464  0.1443  0.0041
  213loPI   C3A 3401   2.630  15.881   8.859 -0.0992  0.3415  0.1657
  213loPI   C4A 3402   2.660  15.901   8.346 -0.1561  0.0875 -0.0388
  213loPI   C5A 3403   2.748  15.990   7.935 -0.3182  0.0226  0.2230
  213loPI   C6A 3404   2.862  15.858   7.626 -0.1100  0.1396  0.1210
  213loPI   C1B 3405   1.935  17.023   9.335 -0.0656  0.0537  0.0198
  213loPI   C2B 3406   1.847  17.058   8.935  0.1469  0.1687  0.1219
  213loPI   C3B 3407   2.006  16.953   8.496 -0.0038 -0.0099  0.2323
  213loPI   C4B 3408   2.221  17.038   8.000  0.1776  0.0003  0.5537
  214loPI    C1 3409  17.435   4.586   9.667 -0.1180 -0.0132 -0.0459
  214loPI    C2 3410  17.484   4.540  10.061 -0.1279  0.2741 -0.0087
  214loPI    C3 3411  17.121   4.497   9.899 -0.0142 -0.5291 -0.0921
  214loPI   PO4 3412  17.643   4.788   9.634  0.0260  0.2049 -0.2386
  214loPI   GL1 3413  18.012   4.818   9.333  0.1333  0.0252 -0.0521
  214loPI   GL2 3414  18.148   5.069   9.272 -0.3867 -0.1084 -0.5968
  214loPI   C1A 3415  18.344   4.597   9.162 -0.1834 -0.2145 -0.0008
  214loPI   C2A 3416  18.522   4.607   8.844 -0.0997  0.2590  0.1074
  214loPI   C3A 3417  18.474   4.671   8.366 -0.1953  0.1109 -0.3340
  214loPI   C4A 3418  18.523   4.698   7.946  0.0232 -0.0031 -0.0573
  214loPI   C5A 3419  18.655   4.490   7.553  0.2142  0.0931 -0.2236
  214loPI   C6A 3420  19.001   4.167   7.565 -0.0122 -0.0160 -0.0888
  214loPI   C1B 3421  18.169   4.936   8.862  0.0244  0.0373  0.2314
  214loPI   C2B 3422  18.163   5.025   8.467 -0.1160  0.2299  0.2504
  214loPI   C3B 3423  18.105   5.052   8.148 -0.2848  0.0616  0.4645
  214loPI   C4B 3424  18.018   5.282   7.816  0.3700 -0.0981 -0.0130
  215loPI    C1 3425  14.634  10.871   9.799 -0.1222 -0.0206 -0.2365
  215loPI    C2 3426  14.901  10.741   9.531  0.0674  0.0603 -0.0895
  215loPI    C3 3427  14.959  10.671   9.920 -0.2806 -0.1861 -0.0774
  215loPI   PO4 3428  14.583  11.137   9.675  0.2784  0.0065 -0.0229
  215loPI   GL1 3429  14.851  11.219   9.470 -0.2527  0.0599 -0.1205
  215loPI   GL2 3430  15.129  11.492   9.562 -0.2238  0.2082  0.0295
  215loPI   C1A 3431  15.050  11.172   9.072  0.1694 -0.0828  0.6416
  215loPI   C2A 3432  15.149  11.052   8.704  0.1837 -0.3647 -0.1491
  215loPI   C3A 3433  15.177  11.128   8.304  0.1926 -0.0325  0.0909
  215loPI   C4A 3434  15.240  10.976   7.954  0.1850 -0.3601 -0.1104
  215loPI   C5A 3435  15.214  11.159   7.536 -0.4379 -0.1821 -0.1780
  215loPI   C6A 3436  15.528  11.258   7.226 -0.0545 -0.1668 -0.4192
  215loPI   C1B 3437  15.217  11.614   9.096  0.0009 -0.2498  0.0726
  215loPI   C2B 3438  15.096  11.594   8.678  0.0606  0.3283 -0.2938
  215loPI   C3B 3439  15.261  11.585   8.285 -0.1269 -0.4092 -0.3214
  215loPI   C4B 3440  15.178  11.716   7.931  0.2756  0.1889  0.5417
  216loPI    C1 3441   4.482   7.711   9.852  0.0001 -0.0064  0.0810
  216loPI    C2 3442   4.717   7.446  10.039 -0.1530 -0.0635  0.1945
  216loPI    C3 3443   4.647   7.804  10.204  0.0903  0.0677  0.0197
  216loPI   PO4 3444   4.249   7.608   9.632 -0.1683 -0.0789 -0.1861
  216loPI   GL1 3445   4.261   7.436   9.263 -0.0028  0.1100 -0.3524
  216loPI   GL2 3446   4.352   7.601   8.934  0.3191 -0.0971  0.2379
  216loPI   C1A 3447   3.951   7.323   9.023  0.3491 -0.0141 -0.2540
  216loPI   C2A 3448   3.700   7.376   8.761  0.3052  0.4254 -0.4535
  216loPI   C3A 3449   3.493   7.227   8.297  0.1369  0.1408 -0.0177
  216loPI   C4A 3450   3.431   7.452   7.920 -0.2544  0.2957  0.0513
  216loPI   C5A 3451   3.142   7.436   7.524 -0.0723 -0.2730 -0.0390
  216loPI   C6A 3452   2.630   7.471   7.511  0.0754 -0.2676  0.1983
  216loPI   C1B 3453   4.434   7.914   8.619  0.0858 -0.1592 -0.0963
  216loPI   C2B 3454   4.564   8.195   8.303  0.3278  0.0996 -0.0712
  216loPI   C3B 3455   4.629   8.166   7.878  0.0108  0.0375  0.2308
  216loPI   C4B 3456   4.655   8.203   7.465  0.0167  0.0040  0.1605
  217loPI    C1 3457   6.548  14.916  10.210 -0.0186  0.0331 -0.0710
  217loPI    C2 3458   6.330  15.032  10.525  0.0617  0.0927 -0.0367
  217loPI    C3 3459   6.700  14.889  10.579  0.0571  0.0563 -0.1001
  217loPI   PO4 3460   6.253  14.979   9.961  0.0395  0.2595  0.0833
  217loPI   GL1 3461   6.181  14.943   9.495  0.2274 -0.1715  0.0757
  217loPI   GL2 3462   6.258  15.183   9.450  0.1813  0.3240 -0.1311
  217loPI   C1A 3463   5.820  14.946   9.288 -0.1793  0.3764  0.1253
  217loPI   C2A 3464   5.649  15.020   8.897 -0.0148 -0.1790 -0.2120
  217loPI   C3A 3465   5.563  15.196   8.621 -0.0638 -0.0552  0.1731
  217loPI   C4A 3466   5.354  15.207   8.245  0.1992  0.3631 -0.0343
  217loPI   C5A 3467   5.146  15.247   7.921 -0.0370  0.0891  0.0438
  217loPI   C6A 3468   5.167  15.588   7.586 -0.1303  0.0382  0.1445
  217loPI   C1B 3469   6.175  15.199   9.001  0.0176  0.4063  0.0342
  217loPI   C2B 3470   6.058  15.288   8.545  0.1962  0.1500 -0.3223
  217loPI   C3B 3471   5.958  15.291   8.122  0.2070 -0.1371 -0.0163
  217loPI   C4B 3472   6.049  15.506   7.617  0.2309  0.0729  0.3879
  218loPI    C1 3473  12.540  11.752  10.199 -0.3338 -0.1745 -0.2178
  218loPI    C2 3474  12.320  12.068  10.305  0.1096  0.0397  0.0943
  218loPI    C3 3475  12.325  11.741  10.535 -0.0237 -0.0368 -0.0102
  218loPI   PO4 3476  12.788  11.884  10.017 -0.1006 -0.1391  0.0324
  218loPI   GL1 3477  12.742  12.018   9.617  0.1627 -0.1654 -0.0615
  218loPI   GL2 3478  13.086  12.183   9.528  0.0302 -0.2901 -0.0102
  218loPI   C1A 3479  12.551  12.108   9.261 -0.1678 -0.1556 -0.3361
  218loPI   C2A 3480  12.261  12.167   9.151  0.2459  0.0424  0.0673
  218loPI   C3A 3481  12.066  12.346   8.823  0.2741 -0.0310  0.1856
  218loPI   C4A 3482  11.976  12.340   8.493  0.1496 -0.3647  0.2216
  218loPI   C5A 3483  12.008  12.355   8.057 -0.1286  0.0085  0.1743
  218loPI   C6A 3484  12.019  12.173   7.707 -0.0306 -0.1519 -0.0486
  218loPI   C1B 3485  13.028  12.192   9.205 -0.0313 -0.3236  0.2614
  218loPI   C2B 3486  13.063  12.293   8.770  0.1367 -0.0006 -0.2772
  218loPI   C3B 3487  12.873  12.525   8.463 -0.0155 -0.1991 -0.3203
  218loPI   C4B 3488  12.389  12.550   8.329  0.2151 -0.1728 -0.1532
  219loPI    C1 3489   8.353  18.446  10.324  0.0997 -0.3673  0.0724
  219loPI    C2 3490   8.413  18.491  10.717  0.0350  0.2706  0.0190
  219loPI    C3 3491   8.717  18.540  10.461  0.1187 -0.3227 -0.0081
  219loPI   PO4 3492   8.310  18.128  10.213 -0.1335 -0.0897 -0.0499
  219loPI   GL1 3493   8.168  17.906   9.784  0.2220  0.1813 -0.1920
  219loPI   GL2 3494   8.474  17.924   9.750 -0.1465 -0.3449  0.2539
  219loPI   C1A 3495   7.866  17.912   9.413  0.2827 -0.2161  0.0781
  219loPI   C2A 3496   7.707  17.763   9.023  0.3101 -0.0343 -0.0179
  219loPI   C3A 3497   7.501  17.771   8.495  0.2705  0.3163 -0.2372
  219loPI   C4A 3498   7.271  17.709   8.193  0.2895  0.4072  0.5424
  219loPI   C5A 3499   7.189  17.873   7.799 -0.2459 -0.1062  0.1201
  219loPI   C6A 3500   7.396  17.983   7.446 -0.3948 -0.2270  0.2623
  219loPI   C1B 3501   8.314  17.681   9.352 -0.0261 -0.1512  0.0590
  219loPI   C2B 3502   8.465  17.350   9.155 -0.0912 -0.1725  0.0308
  219loPI   C3B 3503   8.432  17.209   8.740  0.2138 -0.2451  0.1247
  219loPI   C4B 3504   8.553  17.044   8.324 -0.1684  0.1839 -0.5080
  220loPI    C1 3505  12.678   6.798   9.747 -0.1316  0.0160 -0.1609
  220loPI    C2 3506  12.399   6.737  10.027  0.0985 -0.0066  0.0682
  220loPI    C3 3507  12.419   6.496   9.708 -0.0438 -0.1004  0.1290
  220loPI   PO4 3508  12.625   7.080   9.714  0.0915  0.0879  0.0942
  220loPI   GL1 3509  12.718   7.033   9.319  0.0526 -0.0462  0.0423
  220loPI   GL2 3510  12.672   7.310   9.160 -0.1440 -0.2301 -0.3996
  220loPI   C1A 3511  12.879   6.758   8.947 -0.0656 -0.3857 -0.3599
  220loPI   C2A 3512  12.805   6.714   8.551 -0.1677 -0.2112 -0.0755
  220loPI   C3A 3513  12.763   6.650   8.179  0.0435 -0.1978 -0.3380
  220loPI   C4A 3514  12.913   6.586   7.833 -0.0312 -0.0099  0.0361
  220loPI   C5A 3515  12.960   6.338   7.421  0.1443  0.2319 -0.0369
  220loPI   C6A 3516  13.337   6.266   7.137 -0.2167  0.2855 -0.0013
  220loPI   C1B 3517  12.626   7.145   8.766 -0.0545  0.0476  0.0224
  220loPI   C2B 3518  12.615   7.152   8.377  0.1662  0.0583 -0.2122
  220loPI   C3B 3519  12.623   7.094   7.863  0.2455 -0.3934  0.1532
  220loPI   C4B 3520  12.790   7.004   7.434 -0.0178  0.1586 -0.1011
  221loPI    C1 3521   0.987  14.162  10.019  0.2061 -0.2824 -0.1354
  221loPI    C2 3522   1.001  14.267  10.404 -0.1937 -0.0866 -0.1697
  221loPI    C3 3523   1.294  14.045  10.247  0.1934  0.1917  0.1372
  221loPI   PO4 3524   0.777  13.967   9.950  0.3640  0.0991  0.0493
  221loPI   GL1 3525   0.798  13.575   9.644  0.3306  0.0454 -0.1127
  221loPI   GL2 3526   0.834  13.287   9.487 -0.0972  0.3287  0.0927
  221loPI   C1A 3527   0.967  13.757   9.241 -0.0556 -0.1079  0.2853
  221loPI   C2A 3528   0.970  14.027   8.774 -0.3761 -0.0146  0.0367
  221loPI   C3A 3529   0.868  14.092   8.391  0.0989  0.1672  0.2667
  221loPI   C4A 3530   0.714  14.259   7.977 -0.5352  0.3754  0.0735
  221loPI   C5A 3531   0.313  14.240   7.904 -0.2623  0.3450 -0.3339
  221loPI   C6A 3532   0.097  14.201   7.521 -0.2590 -0.0104 -0.0915
  221loPI   C1B 3533   0.916  13.355   9.035  0.0875  0.1107 -0.4384
  221loPI   C2B 3534   1.033  13.600   8.627  0.1708 -0.2349  0.1720
  221loPI   C3B 3535   1.126  13.546   8.207  0.1147 -0.0961  0.0640
  221loPI   C4B 3536   1.353  13.406   7.868  0.1999  0.0027 -0.2616
  222loPI    C1 3537   8.583   0.081  10.506 -0.1092 -0.0260  0.1206
  222loPI    C2 3538   8.710   0.458  10.468  0.1361 -0.0891  0.2850
  222loPI    C3 3539   8.484   0.354  10.781 -0.1080 -0.0346  0.1296
  222loPI   PO4 3540   8.492  -0.010  10.273  0.0525  0.1077 -0.0777
  222loPI   GL1 3541   8.606   0.049   9.780 -0.0627  0.2796  0.4183
  222loPI   GL2 3542   8.374   0.089   9.787  0.2096  0.0881 -0.3562
  222loPI   C1A 3543   8.687  -0.395   9.580 -0.0632  0.2202 -0.0444
  222loPI   C2A 3544   8.619  -0.781   9.347 -0.0989  0.0312 -0.1445
  222loPI   C3A 3545   8.669  -1.071   9.084  0.1528  0.1315  0.0208
  222loPI   C4A 3546   8.767  -1.399   8.858 -0.1898 -0.0874  0.1568
  222loPI   C5A 3547   8.855  -1.577   8.444  0.3638 -0.2794 -0.0297
  222loPI   C6A 3548   8.964  -1.327   8.009 -0.2223 -0.1452  0.0764
  222loPI   C1B 3549   8.405  -0.009   9.285 -0.1033 -0.0370 -0.0837
  222loPI   C2B 3550   8.574  -0.338   9.005  0.0013 -0.0727 -0.0438
  222loPI   C3B 3551   8.609  -0.649   8.701 -0.0004  0.2400  0.0547
  222loPI   C4B 3552   8.588  -1.032   8.457 -0.0020 -0.3716 -0.1891
  223loPI    C1 3553  17.504   7.947  10.090  0.0688  0.0715  0.3696
  223loPI    C2 3554  17.852   7.765  10.011 -0.0654  0.0344 -0.1768
  223loPI    C3 3555  17.541   7.553  10.146  0.1222  0.0713  0.3338
  223loPI   PO4 3556  17.424   8.072   9.841 -0.0228 -0.2356 -0.0684
  223loPI   GL1 3557  17.199   8.083   9.471 -0.0666 -0.0930  0.4279
  223loPI   GL2 3558  16.990   8.264   9.393 -0.1893  0.0381  0.0812
  223loPI   C1A 3559  17.163   7.916   9.045 -0.1158 -0.1644 -0.1258
  223loPI   C2A 3560  17.309   7.784   8.662 -0.1380  0.2388  0.1737
  223loPI   C3A 3561  17.505   7.784   8.287  0.1589 -0.2210  0.0382
  223loPI   C4A 3562  17.728   7.685   7.840  0.1520 -0.2207 -0.1384
  223loPI   C5A 3563  17.943   7.660   7.433  0.0866 -0.0014  0.4760
  223loPI   C6A 3564  17.820   7.795   6.982 -0.3170 -0.1504 -0.3486
  223loPI   C1B 3565  17.274   8.395   9.039  0.1248 -0.2475 -0.2183
  223loPI   C2B 3566  17.169   8.308   8.646 -0.3466 -0.0720 -0.3288
  223loPI   C3B 3567  17.089   8.091   8.265  0.1011  0.0676 -0.0550
  223loPI   C4B 3568  16.936   7.817   7.964  0.2747 -0.0213  0.1182
  224loPI    C1 3569  15.966   9.670  10.089  0.0389  0.2171  0.2250
  224loPI    C2 3570  15.735   9.966   9.951 -0.1106  0.0738  0.1638
  224loPI    C3 3571  15.625   9.763  10.278 -0.2522 -0.2231 -0.0637
  224loPI   PO4 3572  16.014   9.544   9.841  0.0512  0.1561  0.1540
  224loPI   GL1 3573  16.207   9.638   9.580  0.0089 -0.1388  0.0129
  224loPI   GL2 3574  16.142  10.013   9.532  0.4427 -0.2608  0.2420
  224loPI   C1A 3575  16.051   9.660   9.090  0.2900 -0.4394 -0.1213
  224loPI   C2A 3576  16.163   9.638   8.699 -0.0792 -0.1342  0.3998
  224loPI   C3A 3577  16.058   9.834   8.285 -0.2597  0.3700  0.1609
  224loPI   C4A 3578  16.293   9.881   7.902 -0.1501 -0.3232  0.0719
  224loPI   C5A 3579  16.265  10.084   7.543 -0.0075  0.0685 -0.2660
  224loPI   C6A 3580  16.388  10.320   7.267 -0.0586  0.1243 -0.0006
  224loPI   C1B 3581  16.307  10.410   9.302  0.3408 -0.0461  0.1672
  224loPI   C2B 3582  16.267  10.687   8.835  0.1885  0.1944 -0.0037
  224loPI   C3B 3583  16.255  10.694   8.468  0.0648 -0.1915 -0.0573
  224loPI   C4B 3584  15.946  10.891   8.070 -0.0123 -0.0906 -0.0818
  225loPI    C1 3585   3.123  12.184  10.152  0.2765  0.1329  0.0917
  225loPI    C2 3586   3.140  11.855  10.379 -0.1363 -0.0347 -0.1093
  225loPI    C3 3587   2.908  12.162  10.489 -0.0004  0.0611 -0.0868
  225loPI   PO4 3588   3.083  11.998   9.923 -0.3798 -0.1758 -0.0561
  225loPI   GL1 3589   3.310  12.033   9.527  0.1429 -0.0535 -0.0641
  225loPI   GL2 3590   3.037  12.127   9.389  0.0207  0.1441 -0.2161
  225loPI   C1A 3591   3.664  11.997   9.277  0.1232  0.1110 -0.0076
  225loPI   C2A 3592   3.871  11.837   8.951 -0.2087  0.2083  0.0086
  225loPI   C3A 3593   3.928  11.815   8.466 -0.1226 -0.1214 -0.1052
  225loPI   C4A 3594   4.017  11.839   8.053 -0.0371 -0.0122  0.3125
  225loPI   C5A 3595   3.874  11.747   7.639 -0.1877  0.2532 -0.0742
  225loPI   C6A 3596   3.940  11.544   7.220  0.0387 -0.0221  0.3792
  225loPI   C1B 3597   2.905  11.942   8.902  0.2327 -0.2782 -0.0846
  225loPI   C2B 3598   2.956  12.002   8.453  0.0452 -0.1968 -0.3983
  225loPI   C3B 3599   3.056  12.031   7.960  0.0268 -0.0516  0.0341
  225loPI   C4B 3600   2.995  12.104   7.533  0.2157 -0.0384  0.1427
  226loPI    C1 3601   0.290  15.127   9.826  0.3616  0.1106 -0.0354
  226loPI    C2 3602   0.335  14.903  10.155  0.1505  0.0915 -0.0178
  226loPI    C3 3603   0.100  15.227  10.164 -0.0501 -0.0457 -0.2133
  226loPI   PO4 3604   0.541  15.106   9.706  0.0552 -0.4051 -0.1160
  226loPI   GL1 3605   0.771  15.338   9.447  0.1418 -0.0231 -0.0968
  226loPI   GL2 3606   1.004  15.203   9.505 -0.1069  0.3462  0.0692
  226loPI   C1A 3607   0.647  15.399   9.114  0.1459  0.1243  0.2744
  226loPI   C2A 3608   0.603  15.505   8.747  0.0077 -0.1244 -0.0990
  226loPI   C3A 3609   0.584  15.693   8.305  0.2107  0.0774 -0.0645
  226loPI   C4A 3610   0.565  15.597   7.942 -0.1273  0.0443 -0.0635
  226loPI   C5A 3611   0.558  15.543   7.467 -0.0227  0.0496 -0.1649
  226loPI   C6A 3612   0.331  15.739   7.121  0.0475 -0.2602  0.3367
  226loPI   C1B 3613   0.994  14.992   9.002  0.1510 -0.0464 -0.1378
  226loPI   C2B 3614   0.969  15.174   8.514  0.3317  0.0523  0.0595
  226loPI   C3B 3615   0.728  15.101   8.093 -0.0584 -0.0515 -0.1482
  226loPI   C4B 3616   0.603  15.071   7.692 -0.0346 -0.0478  0.0830
  227loPI    C1 3617   1.271  15.523   9.871  0.0301 -0.1096  0.0887
  227loPI    C2 3618   1.323  15.729  10.210  0.1883  0.1203 -0.0722
  227loPI    C3 3619   1.279  15.332  10.223  0.3383  0.1100  0.2057
  227loPI   PO4 3620   1.340  15.634   9.691 -0.0146 -0.1289  0.3048
  227loPI   GL1 3621   1.161  15.650   9.355 -0.2500  0.2606  0.2737
  227loPI   GL2 3622   0.883  15.817   9.384  0.1273 -0.3988  0.0565
  227loPI   C1A 3623   1.060  15.714   8.890 -0.2098  0.1170 -0.2125
  227loPI   C2A 3624   1.152  15.692   8.458  0.1499  0.0201  0.1267
  227loPI   C3A 3625   0.986  15.890   8.076  0.1672 -0.0698  0.0033
  227loPI   C4A 3626   0.856  15.893   7.675 -0.2673 -0.2222  0.0842
  227loPI   C5A 3627   0.699  16.107   7.339  0.2679 -0.0478 -0.0466
  227loPI   C6A 3628   0.445  16.488   7.212  0.2451  0.2160 -0.2171
  227loPI   C1B 3629   0.770  16.138   9.046 -0.0335  0.1472 -0.0546
  227loPI   C2B 3630   0.805  16.057   8.543  0.1018 -0.0287 -0.1091
  227loPI   C3B 3631   0.694  16.315   8.182 -0.1605 -0.0741 -0.0219
  227loPI   C4B 3632   0.664  16.460   7.809 -0.0725  0.1404 -0.1004
  228loPI    C1 3633   0.088  14.304  10.218  0.1447 -0.0222  0.0385
  228loPI    C2 3634   0.233  13.976  10.395  0.3942 -0.1562 -0.3990
  228loPI    C3 3635   0.483  14.241  10.231  0.1862  0.1833 -0.1787
  228loPI   PO4 3636  -0.097  14.227  10.070  0.2099 -0.1210  0.0489
  228loPI   GL1 3637  -0.086  14.147   9.661 -0.3685  0.3196 -0.1771
  228loPI   GL2 3638  -0.362  14.291   9.415  0.0020 -0.3070 -0.1757
  228loPI   C1A 3639   0.110  14.338   9.339 -0.0215  0.2114  0.0344
  228loPI   C2A 3640   0.223  14.366   8.990  0.0379 -0.7596 -0.1768
  228loPI   C3A 3641   0.132  14.440   8.678  0.0144 -0.1207  0.2272
  228loPI   C4A 3642  -0.053  14.440   8.210  0.0234  0.2628  0.0607
  228loPI   C5A 3643  -0.334  14.529   7.861 -0.0635  0.1556  0.0818
  228loPI   C6A 3644  -0.571  14.312   7.522 -0.0080 -0.0915  0.0653
  228loPI   C1B 3645  -0.293  14.336   8.974  0.3424  0.0493 -0.3256
  228loPI   C2B 3646  -0.359  14.438   8.568  0.1790  0.0952 -0.1532
  228loPI   C3B 3647  -0.536  14.207   8.204 -0.0221 -0.2914  0.0006
  228loPI   C4B 3648  -0.212  14.045   7.908  0.1495  0.0018 -0.0292
  229loPI    C1 3649   6.132  17.633  10.096 -0.4088  0.1986 -0.3548
  229loPI    C2 3650   5.759  17.601  10.236 -0.1844  0.0727  0.2445
  229loPI    C3 3651   6.046  17.359  10.374  0.1509  0.2563 -0.1109
  229loPI   PO4 3652   6.088  17.595   9.798 -0.0776 -0.0916  0.2956
  229loPI   GL1 3653   6.106  17.297   9.440 -0.0805 -0.0528  0.4614
  229loPI   GL2 3654   6.381  17.347   9.463 -0.2100 -0.3012  0.2576
  229loPI   C1A 3655   6.014  17.271   9.010 -0.1244 -0.0999  0.0800
  229loPI   C2A 3656   5.997  17.097   8.475 -0.1932  0.0757 -0.0866
  229loPI   C3A 3657   6.169  17.045   8.092 -0.1494 -0.2679  0.0740
  229loPI   C4A 3658   6.285  16.713   7.902  0.3336 -0.2699 -0.2933
  229loPI   C5A 3659   6.062  16.540   7.571  0.2003  0.0267 -0.0485
  229loPI   C6A 3660   5.702  16.333   7.419 -0.2982 -0.0226 -0.3164
  229loPI   C1B 3661   6.664  17.578   9.116  0.1916 -0.2109  0.3901
  229loPI   C2B 3662   6.796  17.601   8.717 -0.0069  0.1594 -0.2672
  229loPI   C3B 3663   6.821  17.524   8.264  0.2496  0.3252  0.2435
  229loPI   C4B 3664   6.862  17.393   7.733  0.1302 -0.0612 -0.0727
  230loPI    C1 3665   4.567   1.057  10.174  0.1954  0.0412 -0.0703
  230loPI    C2 3666   4.688   0.689  10.272 -0.0493 -0.0001  0.0857
  230loPI    C3 3667   4.956   0.964  10.160  0.1551 -0.1704  0.1491
  230loPI   PO4 3668   4.301   1.052  10.234  0.0873  0.1602 -0.1163
  230loPI   GL1 3669   4.061   0.988   9.798  0.0908  0.1525  0.0870
  230loPI   GL2 3670   4.237   1.050   9.606  0.0518 -0.1927  0.1146
  230loPI   C1A 3671   3.705   0.944   9.595 -0.0888  0.1947  0.0101
  230loPI   C2A 3672   3.597   0.917   9.077 -0.1047 -0.1201 -0.0837
  230loPI   C3A 3673   3.501   0.995   8.667  0.1142  0.0729 -0.1077
  230loPI   C4A 3674   3.746   1.085   8.354 -0.1554 -0.3374  0.2367
  230loPI   C5A 3675   3.984   1.045   7.982 -0.0180  0.1629 -0.1949
  230loPI   C6A 3676   4.105   0.885   7.580 -0.0411 -0.0768  0.3292
  230loPI   C1B 3677   4.112   0.937   9.221 -0.1320 -0.5531 -0.2699
  230loPI   C2B 3678   3.997   0.972   8.782  0.1652  0.0239 -0.1290
  230loPI   C3B 3679   4.049   0.709   8.393  0.0511  0.1086  0.4442
  230loPI   C4B 3680   3.948   0.555   7.982  0.5762 -0.0302 -0.0063
  231loPI    C1 3681  13.817  13.263  10.092  0.0611  0.0437 -0.0533
  231loPI    C2 3682  13.527  13.490  10.248  0.2246  0.1372  0.1183
  231loPI    C3 3683  13.844  13.389  10.470  0.1324 -0.3021  0.0602
  231loPI   PO4 3684  13.759  13.353   9.800  0.1909  0.1140 -0.0752
  231loPI   GL1 3685  13.432  13.384   9.585  0.0309  0.0840 -0.1109
  231loPI   GL2 3686  13.635  13.420   9.303 -0.1144 -0.0629 -0.0343
  231loPI   C1A 3687  13.101  13.649   9.420  0.1288  0.1231 -0.1813
  231loPI   C2A 3688  12.865  13.915   9.204  0.0160  0.1161 -0.0542
  231loPI   C3A 3689  12.767  13.899   8.765  0.2645 -0.0064  0.1215
  231loPI   C4A 3690  12.495  13.873   8.329 -0.0631  0.0533 -0.0084
  231loPI   C5A 3691  12.496  13.991   7.871  0.1845 -0.0910 -0.0080
  231loPI   C6A 3692  12.229  13.827   7.470 -0.1618 -0.4602  0.1108
  231loPI   C1B 3693  13.593  13.793   9.115  0.1583 -0.0120 -0.1352
  231loPI   C2B 3694  13.701  14.045   8.701 -0.1458 -0.0368 -0.0620
  231loPI   C3B 3695  13.634  13.897   8.266 -0.3567 -0.0973 -0.2619
  231loPI   C4B 3696  13.823  14.164   7.994  0.0010  0.1843 -0.2840
  232loPI    C1 3697  16.069   2.381   9.935 -0.1078 -0.0476  0.1762
  232loPI    C2 3698  15.728   2.555   9.820 -0.0470 -0.0813 -0.0590
  232loPI    C3 3699  15.882   2.636  10.180 -0.3220 -0.0948  0.0638
  232loPI   PO4 3700  16.230   2.397   9.659 -0.0882  0.1170  0.0516
  232loPI   GL1 3701  16.286   2.554   9.360 -0.0600  0.1429  0.3113
  232loPI   GL2 3702  16.582   2.733   9.495 -0.0508 -0.1683 -0.2515
  232loPI   C1A 3703  16.134   2.519   8.909 -0.3192  0.3239  0.2118
  232loPI   C2A 3704  16.149   2.470   8.351 -0.1358 -0.2646  0.1416
  232loPI   C3A 3705  16.317   2.562   7.946  0.3065  0.0506  0.3041
  232loPI   C4A 3706  16.429   2.558   7.528 -0.1136 -0.2009  0.1967
  232loPI   C5A 3707  16.389   2.440   7.059  0.1343 -0.1579 -0.2243
  232loPI   C6A 3708  16.345   2.599   6.625  0.2059 -0.0062  0.0278
  232loPI   C1B 3709  16.682   2.528   9.084  0.1752  0.3241  0.2358
  232loPI   C2B 3710  16.699   2.562   8.578  0.0721 -0.3029 -0.0652
  232loPI   C3B 3711  16.780   2.666   8.161  0.1724 -0.1487 -0.0657
  232loPI   C4B 3712  16.979   2.558   7.792 -0.0457  0.2001 -0.0976
  233loPI    C1 3713  13.308  15.715  10.009  0.1957  0.0235 -0.0400
  233loPI    C2 3714  13.347  16.104  10.092 -0.0344 -0.0063  0.2230
  233loPI    C3 3715  13.562  15.834  10.294 -0.0659 -0.0322  0.2223
  233loPI   PO4 3716  13.373  15.706   9.778  0.1297  0.3564  0.0877
  233loPI   GL1 3717  13.451  15.456   9.515  0.0010  0.1796  0.2376
  233loPI   GL2 3718  13.646  15.172   9.426  0.1468 -0.0937  0.2230
  233loPI   C1A 3719  13.369  15.386   9.107  0.2598  0.1943  0.0622
  233loPI   C2A 3720  13.138  15.437   8.827  0.1934  0.2357  0.1531
  233loPI   C3A 3721  13.163  15.404   8.467  0.0247  0.3696 -0.0015
  233loPI   C4A 3722  13.076  15.342   8.016  0.2133  0.3645  0.1901
  233loPI   C5A 3723  12.819  15.126   7.719  0.2858  0.1421  0.1422
  233loPI   C6A 3724  12.475  14.947   7.375  0.0527 -0.2226 -0.0186
  233loPI   C1B 3725  13.613  14.951   8.978  0.0212  0.0899  0.5808
  233loPI   C2B 3726  13.617  15.078   8.515  0.2297 -0.1496  0.2291
  233loPI   C3B 3727  13.420  15.087   8.149 -0.0184  0.0349 -0.1644
  233loPI   C4B 3728  13.284  14.920   7.723  0.0855 -0.0025 -0.0928
  234loPI    C1 3729  10.724   8.419   9.440  0.0458 -0.1919  0.0233
  234loPI    C2 3730  10.373   8.309   9.598 -0.0836 -0.1925 -0.2569
  234loPI    C3 3731  10.390   8.619   9.346  0.1740  0.0221  0.0172
  234loPI   PO4 3732  10.794   8.172   9.401 -0.2278  0.0380  0.0655
  234loPI   GL1 3733  10.862   8.022   9.065 -0.0694  0.0460  0.0351
  234loPI   GL2 3734  10.693   7.734   8.902 -0.0313 -0.0287 -0.2137
  234loPI   C1A 3735  10.606   8.208   8.703 -0.0322  0.0704 -0.2187
  234loPI   C2A 3736  10.429   8.502   8.337 -0.2919 -0.1066 -0.1975
  234loPI   C3A 3737  10.496   8.511   7.875  0.0226 -0.0410 -0.3489
  234loPI   C4A 3738  10.207   8.589   7.505  0.0187  0.0199 -0.3979
  234loPI   C5A 3739  10.246   9.003   7.255 -0.1725 -0.2411 -0.0398
  234loPI   C6A 3740  10.273   9.365   7.504 -0.1340  0.0031 -0.0185
  234loPI   C1B 3741  10.655   7.617   8.429 -0.1705 -0.1832 -0.0026
  234loPI   C2B 3742  10.526   7.377   8.047  0.1420  0.2481  0.0657
  234loPI   C3B 3743  10.329   7.270   7.567  0.0760  0.3081  0.0261
  234loPI   C4B 3744   9.933   7.308   7.227  0.3532  0.0366 -0.0102
  235loPI    C1 3745  10.729   9.633   9.916 -0.1329 -0.2696  0.1536
  235loPI    C2 3746  10.915   9.358   9.693 -0.0002 -0.2445  0.2320
  235loPI    C3 3747  10.727   9.249  10.028  0.0683 -0.2373  0.2729
  235loPI   PO4 3748  10.590   9.737   9.783  0.0182 -0.3540  0.0798
  235loPI   GL1 3749  10.416   9.764   9.340 -0.3438 -0.0601 -0.0268
  235loPI   GL2 3750  10.734   9.773   9.290  0.0789  0.2275 -0.0701
  235loPI   C1A 3751  10.393   9.866   8.875  0.4037  0.0325  0.0426
  235loPI   C2A 3752  10.516   9.932   8.539 -0.0198 -0.1289  0.1609
  235loPI   C3A 3753  10.398  10.200   8.206 -0.1290 -0.2697  0.0669
  235loPI   C4A 3754  10.293  10.505   7.914 -0.4868  0.0427 -0.3075
  235loPI   C5A 3755  10.248  10.663   7.454  0.0601  0.3395  0.0723
  235loPI   C6A 3756  10.239  10.940   7.142 -0.1388  0.2280  0.0123
  235loPI   C1B 3757  11.000   9.857   8.931  0.1212  0.1032 -0.1298
  235loPI   C2B 3758  11.057   9.851   8.471 -0.2983 -0.0851  0.1301
  235loPI   C3B 3759  10.820  10.104   8.042 -0.1341 -0.1887  0.0941
  235loPI   C4B 3760  10.863  10.248   7.558 -0.0180 -0.2807 -0.0225
  236loPI    C1 3761   2.318   9.996  10.166 -0.0299  0.0864 -0.0977
  236loPI    C2 3762   2.171   9.624  10.173 -0.0552  0.0951 -0.1570
  236loPI    C3 3763   2.424   9.744  10.458  0.0612 -0.0121 -0.2146
  236loPI   PO4 3764   2.161  10.049   9.892  0.1692 -0.0217  0.1048
  236loPI   GL1 3765   2.167   9.939   9.470 -0.2466 -0.2124 -0.2238
  236loPI   GL2 3766   2.048   9.664   9.289 -0.0422 -0.2133  0.2007
  236loPI   C1A 3767   2.220  10.183   9.141  0.3296 -0.2350  0.1933
  236loPI   C2A 3768   2.204  10.291   8.664  0.1196 -0.0136  0.0140
  236loPI   C3A 3769   2.295  10.558   8.346 -0.2040 -0.0069 -0.5900
  236loPI   C4A 3770   2.162  10.877   8.040 -0.1306 -0.2660  0.0780
  236loPI   C5A 3771   2.129  10.685   7.686  0.3374 -0.2594  0.2057
  236loPI   C6A 3772   2.107  10.316   7.488  0.2027 -0.2397 -0.0145
  236loPI   C1B 3773   2.150   9.822   8.873 -0.2857  0.0996  0.0601
  236loPI   C2B 3774   2.139   9.805   8.395 -0.1342 -0.1052  0.1758
  236loPI   C3B 3775   2.206   9.712   7.990  0.2696  0.1710 -0.1513
  236loPI   C4B 3776   2.161   9.839   7.686 -0.0853  0.1436 -0.2523
  237loPI    C1 3777   5.420   4.940   9.746 -0.2195  0.0342 -0.0457
  237loPI    C2 3778   5.498   4.660  10.021 -0.2346  0.0785  0.0039
  237loPI    C3 3779   5.615   4.606   9.642  0.2360  0.2401  0.1196
  237loPI   PO4 3780   5.138   4.991   9.761  0.0351 -0.2160 -0.2942
  237loPI   GL1 3781   4.820   4.867   9.435  0.1714  0.0909 -0.0978
  237loPI   GL2 3782   4.771   5.225   9.477 -0.1846 -0.0265 -0.5032
  237loPI   C1A 3783   4.747   4.974   9.081 -0.1884 -0.0816  0.3510
  237loPI   C2A 3784   4.848   5.093   8.677 -0.0902  0.0486  0.0674
  237loPI   C3A 3785   4.832   5.143   8.295 -0.0432  0.3896 -0.3538
  237loPI   C4A 3786   4.917   4.911   7.877 -0.0334 -0.0902  0.0913
  237loPI   C5A 3787   4.801   4.947   7.552  0.0416 -0.0516 -0.2575
  237loPI   C6A 3788   4.481   4.646   7.430 -0.3029 -0.1196  0.0051
  237loPI   C1B 3789   4.659   5.516   9.237  0.0787 -0.1656  0.1122
  237loPI   C2B 3790   4.674   5.556   8.774 -0.0834 -0.0319  0.0957
  237loPI   C3B 3791   4.789   5.603   8.368 -0.0258 -0.0176  0.1543
  237loPI   C4B 3792   4.750   5.458   7.950  0.0994  0.2447 -0.0993
  238loPI    C1 3793  16.973   5.303  10.183 -0.1036 -0.0015  0.1683
  238loPI    C2 3794  17.358   5.353  10.276 -0.0889  0.0717  0.0694
  238loPI    C3 3795  17.074   5.495  10.519 -0.0501  0.2965 -0.0144
  238loPI   PO4 3796  16.982   5.091  10.063 -0.1305 -0.0121 -0.1097
  238loPI   GL1 3797  17.207   5.013   9.664 -0.1181  0.0250 -0.6690
  238loPI   GL2 3798  17.267   5.459   9.781 -0.0732  0.1296  0.1533
  238loPI   C1A 3799  17.101   4.955   9.256  0.0172 -0.0228  0.0531
  238loPI   C2A 3800  17.074   5.046   8.831  0.2257  0.1037  0.0861
  238loPI   C3A 3801  16.776   5.045   8.481 -0.1802  0.1790 -0.2336
  238loPI   C4A 3802  16.568   5.309   8.203 -0.0113 -0.1622 -0.4192
  238loPI   C5A 3803  16.382   5.642   8.226  0.3926 -0.0996 -0.0208
  238loPI   C6A 3804  16.442   5.858   7.925 -0.0262 -0.4591 -0.0410
  238loPI   C1B 3805  17.046   5.755   9.379  0.2483  0.1315 -0.0180
  238loPI   C2B 3806  17.254   5.886   9.001 -0.1100 -0.1990  0.0184
  238loPI   C3B 3807  17.223   5.934   8.593  0.0161  0.1664  0.0647
  238loPI   C4B 3808  17.388   6.041   8.222 -0.0407 -0.2267  0.2850
  239loPI    C1 3809  15.013  11.640  10.495  0.1675 -0.0767 -0.0273
  239loPI    C2 3810  14.914  11.723  10.874  0.0857  0.4658 -0.1599
  239loPI    C3 3811  15.253  11.526  10.795 -0.0936 -0.0125  0.2110
  239loPI   PO4 3812  14.767  11.690  10.370 -0.0748 -0.0176 -0.0486
  239loPI   GL1 3813  14.672  11.920   9.966 -0.1084 -0.0802  0.0662
  239loPI   GL2 3814  14.467  11.640   9.752 -0.2091  0.3595 -0.1059
  239loPI   C1A 3815  14.726  12.166   9.636  0.0410 -0.0813 -0.3365
  239loPI   C2A 3816  14.656  12.327   9.131  0.1775  0.1802 -0.0518
  239loPI   C3A 3817  14.613  12.304   8.675  0.2402  0.0999  0.2210
  239loPI   C4A 3818  14.779  12.528   8.279  0.0081  0.2891  0.1052
  239loPI   C5A 3819  14.441  12.683   7.975 -0.2261 -0.0606  0.0327
  239loPI   C6A 3820  14.243  12.632   7.513 -0.0356 -0.2599  0.0097
  239loPI   C1B 3821  14.691  11.779   9.276 -0.0200  0.2487 -0.2248
  239loPI   C2B 3822  14.717  11.850   8.878 -0.2443  0.3582 -0.0325
  239loPI   C3B 3823  14.776  11.831   8.436 -0.2785  0.0558  0.0329
  239loPI   C4B 3824  14.746  11.937   8.046 -0.1500 -0.3489  0.0672
  240loPI    C1 3825  15.330   1.087   9.995  0.0327 -0.0973 -0.0192
  240loPI    C2 3826  15.163   1.426  10.125  0.1930  0.1368 -0.4034
  240loPI    C3 3827  15.508   1.300  10.282 -0.0503 -0.0512 -0.0018
  240loPI   PO4 3828  15.314   1.066   9.725 -0.1152 -0.1309  0.1155
  240loPI   GL1 3829  15.206   1.252   9.331 -0.3190 -0.5421 -0.0991
  240loPI   GL2 3830  15.375   1.343   9.155  0.0760 -0.1253 -0.0638
  240loPI   C1A 3831  15.009   1.103   8.898  0.1164  0.2016 -0.2338
  240loPI   C2A 3832  14.987   1.086   8.458  0.2112 -0.2311  0.2229
  240loPI   C3A 3833  14.901   0.973   8.158 -0.0495  0.0410 -0.0897
  240loPI   C4A 3834  14.985   0.974   7.821 -0.2855 -0.2171 -0.1807
  240loPI   C5A 3835  15.118   0.843   7.401 -0.0687 -0.5857 -0.1030
  240loPI   C6A 3836  15.520   0.623   7.315 -0.2449 -0.0607  0.0203
  240loPI   C1B 3837  15.441   1.340   8.633  0.1653 -0.0219  0.0701
  240loPI   C2B 3838  15.436   1.362   8.191 -0.2967  0.0066 -0.0142
  240loPI   C3B 3839  15.418   1.252   7.843 -0.1576  0.0691  0.1064
  240loPI   C4B 3840  15.629   1.056   7.534  0.2015  0.1732 -0.2324
  241loPI    C1 3841   6.247   0.082  10.039  0.0296 -0.0458  0.0658
  241loPI    C2 3842   6.425  -0.252  10.168  0.0558  0.0564  0.2975
  241loPI    C3 3843   6.629   0.092  10.156 -0.0708  0.1356  0.3897
  241loPI   PO4 3844   6.122   0.079   9.865  0.0170  0.1095 -0.0465
  241loPI   GL1 3845   5.966  -0.019   9.519  0.4111  0.0397  0.1661
  241loPI   GL2 3846   5.622   0.073   9.578 -0.0842 -0.2002  0.1956
  241loPI   C1A 3847   5.832  -0.060   9.135  0.3490  0.3488  0.1073
  241loPI   C2A 3848   5.829  -0.254   8.705 -0.0913  0.1399 -0.0991
  241loPI   C3A 3849   5.653  -0.548   8.433 -0.1016 -0.1111  0.1997
  241loPI   C4A 3850   5.653  -0.670   7.944 -0.2023 -0.2908 -0.1588
  241loPI   C5A 3851   6.038  -0.587   7.744 -0.0715  0.0814  0.0587
  241loPI   C6A 3852   6.345  -0.872   7.453  0.1336  0.1811  0.1621
  241loPI   C1B 3853   5.368   0.236   9.200  0.0827 -0.2690  0.0075
  241loPI   C2B 3854   5.338   0.027   8.753 -0.1051 -0.3244 -0.3344
  241loPI   C3B 3855   5.531  -0.003   8.412 -0.2004  0.0567  0.2029
  241loPI   C4B 3856   5.910  -0.091   8.210  0.1499 -0.0924  0.1591
  242loPI    C1 3857  17.716   1.912  10.253  0.0155 -0.0954  0.0568
  242loPI    C2 3858  17.507   2.245  10.180 -0.0350 -0.1433 -0.0189
  242loPI    C3 3859  17.489   2.073  10.541 -0.0618 -0.1017 -0.0003
  242loPI   PO4 3860  17.763   1.877   9.880 -0.2914  0.1780 -0.1975
  242loPI   GL1 3861  17.581   1.665   9.559 -0.1990 -0.2452 -0.0930
  242loPI   GL2 3862  17.329   1.761   9.329 -0.1742  0.1909 -0.1812
  242loPI   C1A 3863  17.770   1.754   9.121 -0.0241  0.0019 -0.0325
  242loPI   C2A 3864  17.788   1.788   8.712 -0.2497 -0.1260  0.1968
  242loPI   C3A 3865  18.051   1.720   8.247  0.2470  0.0778  0.4379
  242loPI   C4A 3866  18.291   1.852   7.850 -0.2413 -0.2794  0.3712
  242loPI   C5A 3867  18.141   2.315   7.607  0.1463  0.2188  0.0355
  242loPI   C6A 3868  18.083   2.751   7.482 -0.0575 -0.2908 -0.0487
  242loPI   C1B 3869  17.334   1.732   8.882  0.3200  0.0175 -0.2122
  242loPI   C2B 3870  17.377   1.768   8.480 -0.4411 -0.0660  0.0452
  242loPI   C3B 3871  17.417   1.796   8.068  0.1534  0.1362 -0.0930
  242loPI   C4B 3872  17.664   2.011   7.709  0.1919 -0.2457 -0.0283
  243loPI    C1 3873  10.180   9.700  10.022  0.2479  0.4301  0.0683
  243loPI    C2 3874  10.013   9.612  10.374  0.0232 -0.2565 -0.1935
  243loPI    C3 3875  10.406   9.562  10.321  0.0462 -0.2182 -0.0622
  243loPI   PO4 3876   9.929   9.836   9.820 -0.3295 -0.1120 -0.0710
  243loPI   GL1 3877   9.850   9.661   9.460  0.1408  0.1257 -0.0329
  243loPI   GL2 3878   9.474   9.610   9.620  0.0442  0.0794  0.3634
  243loPI   C1A 3879   9.943   9.492   9.003  0.2043 -0.0765 -0.1440
  243loPI   C2A 3880  10.008   9.041   8.799 -0.1329  0.1417  0.0625
  243loPI   C3A 3881   9.953   8.761   8.507  0.2497 -0.3822  0.1855
  243loPI   C4A 3882   9.977   8.783   7.991 -0.2650  0.3544  0.1413
  243loPI   C5A 3883   9.774   8.723   7.700  0.1230 -0.1142 -0.2570
  243loPI   C6A 3884   9.289   8.711   7.540 -0.0195  0.0222  0.0339
  243loPI   C1B 3885   9.365   9.338   9.278  0.1556 -0.3982 -0.2109
  243loPI   C2B 3886   9.471   9.366   8.831 -0.2378  0.1257 -0.1069
  243loPI   C3B 3887   9.681   9.464   8.491 -0.2232  0.3178 -0.1966
  243loPI   C4B 3888   9.977   9.239   8.169  0.1845  0.0772  0.0681
  244loPI    C1 3889   9.665   8.939   9.576 -0.1351  0.1591  0.2067
  244loPI    C2 3890  10.065   8.961   9.563 -0.1357  0.0585 -0.0199
  244loPI    C3 3891   9.843   9.184   9.315 -0.2137 -0.0683 -0.0655
  244loPI   PO4 3892   9.648   8.589   9.625  0.2754 -0.0495 -0.3264
  244loPI   GL1 3893   9.431   8.516   9.311  0.3599 -0.0674 -0.1089
  244loPI   GL2 3894   9.186   8.350   9.361  0.0686  0.0690 -0.0691
  244loPI   C1A 3895   9.475   8.807   8.917 -0.0035  0.0499 -0.1413
  244loPI   C2A 3896   9.517   8.981   8.522 -0.0393 -0.0954  0.2413
  244loPI   C3A 3897   9.496   9.122   8.001 -0.0454  0.0199 -0.0926
  244loPI   C4A 3898   9.202   9.280   7.755  0.2826 -0.0924  0.1133
  244loPI   C5A 3899   9.040   9.548   7.592 -0.1016 -0.2780  0.0220
  244loPI   C6A 3900   8.676   9.938   7.664  0.0771  0.2136  0.0802
  244loPI   C1B 3901   9.020   8.572   8.954  0.0077 -0.2349  0.1044
  244loPI   C2B 3902   9.111   8.664   8.572 -0.2053  0.1387  0.0254
  244loPI   C3B 3903   9.027   8.852   8.197  0.0400 -0.2454  0.3358
  244loPI   C4B 3904   8.882   8.918   7.780 -0.1939  0.0266 -0.0729
  245loPI    C1 3905   2.879   3.776   9.813  0.1990  0.0935  0.0260
  245loPI    C2 3906   2.883   3.992  10.150 -0.0422  0.2584 -0.0739
  245loPI    C3 3907   2.792   3.602  10.163 -0.0423  0.2622  0.0522
  245loPI   PO4 3908   3.087   3.866   9.722 -0.1378 -0.1082  0.0946
  245loPI   GL1 3909   3.017   4.088   9.397 -0.0742  0.3585  0.1058
  245loPI   GL2 3910   3.261   4.310   9.274  0.2019 -0.1106 -0.0567
  245loPI   C1A 3911   2.890   4.061   8.926 -0.4046  0.2889 -0.0272
  245loPI   C2A 3912   2.948   3.933   8.467 -0.1162 -0.0235  0.0644
  245loPI   C3A 3913   2.906   3.774   8.044 -0.1320  0.0348 -0.0171
  245loPI   C4A 3914   3.002   3.508   7.725 -0.0665  0.0281  0.0869
  245loPI   C5A 3915   2.829   3.046   7.652 -0.3233  0.2131 -0.1917
  245loPI   C6A 3916   2.883   2.576   7.501  0.1240  0.1798  0.0898
  245loPI   C1B 3917   3.287   4.297   8.785  0.2118  0.1367  0.1957
  245loPI   C2B 3918   3.270   4.296   8.307  0.2747 -0.0286 -0.1478
  245loPI   C3B 3919   3.132   4.272   7.970 -0.4414  0.3586 -0.1113
  245loPI   C4B 3920   3.022   4.288   7.522 -0.0225 -0.2231  0.2702
  246loPI    C1 3921   2.780   2.886  10.059  0.0321  0.3925 -0.0121
  246loPI    C2 3922   2.889   3.142  10.347 -0.0690  0.3496  0.0651
  246loPI    C3 3923   2.657   2.829  10.436  0.3778  0.0036  0.0488
  246loPI   PO4 3924   2.639   2.912   9.897  0.0828 -0.1469  0.0930
  246loPI   GL1 3925   2.722   2.987   9.547  0.0627  0.2453 -0.0354
  246loPI   GL2 3926   2.921   2.668   9.499 -0.0611 -0.3125 -0.0461
  246loPI   C1A 3927   2.570   3.138   9.191 -0.0949 -0.2390  0.0288
  246loPI   C2A 3928   2.564   3.178   8.772  0.1423 -0.1183 -0.2123
  246loPI   C3A 3929   2.359   3.076   8.382  0.0222  0.0945 -0.3835
  246loPI   C4A 3930   2.324   2.968   7.995 -0.0648 -0.0831  0.0326
  246loPI   C5A 3931   2.405   2.797   7.668 -0.1970  0.2475 -0.0127
  246loPI   C6A 3932   2.385   2.355   7.644  0.0380  0.0496  0.2062
  246loPI   C1B 3933   3.015   2.770   9.120 -0.1330 -0.1890 -0.5489
  246loPI   C2B 3934   2.998   2.725   8.782 -0.1174 -0.0382  0.2818
  246loPI   C3B 3935   2.866   2.886   8.353  0.0784 -0.0639 -0.1762
  246loPI   C4B 3936   2.683   2.656   8.023  0.0444  0.2808  0.1473
  247loPI    C1 3937   6.329   2.247   9.929 -0.0585 -0.1149  0.1305
  247loPI    C2 3938   6.690   2.187  10.091 -0.1222 -0.1568  0.2583
  247loPI    C3 3939   6.422   2.416  10.280 -0.0831  0.0627  0.0529
  247loPI   PO4 3940   6.481   2.285   9.662 -0.2402 -0.0346 -0.2435
  247loPI   GL1 3941   6.506   2.594   9.335  0.0280 -0.3594 -0.0227
  247loPI   GL2 3942   6.681   2.365   9.147 -0.0673  0.0503  0.0351
  247loPI   C1A 3943   6.156   2.319   9.074  0.3241  0.2577  0.1272
  247loPI   C2A 3944   5.878   1.937   8.966 -0.1532 -0.1486  0.1876
  247loPI   C3A 3945   5.790   1.664   8.630 -0.0746 -0.3135 -0.1073
  247loPI   C4A 3946   5.906   1.339   8.399 -0.1801 -0.2182  0.0360
  247loPI   C5A 3947   5.885   1.321   7.943  0.0798  0.3038  0.3035
  247loPI   C6A 3948   5.823   1.692   7.666 -0.0440  0.1205 -0.1865
  247loPI   C1B 3949   6.545   2.225   8.681 -0.1554 -0.1126 -0.1900
  247loPI   C2B 3950   6.607   2.109   8.271 -0.0327  0.0163 -0.0751
  247loPI   C3B 3951   6.742   2.105   7.824 -0.1023  0.2254 -0.0898
  247loPI   C4B 3952   6.814   2.439   7.583 -0.2895  0.0372  0.0730
  248loPI    C1 3953   8.865   4.197  10.105 -0.2636  0.2661 -0.1509
  248loPI    C2 3954   9.207   4.245  10.306 -0.2265  0.0051 -0.1485
  248loPI    C3 3955   8.940   4.542  10.293 -0.1464  0.0924  0.1275
  248loPI   PO4 3956   8.887   3.945   9.853  0.3208  0.1751  0.0130
  248loPI   GL1 3957   8.475   3.870   9.546  0.2590  0.3602  0.3304
  248loPI   GL2 3958   8.326   3.610   9.421 -0.1258 -0.0222 -0.0956
  248loPI   C1A 3959   8.598   4.049   9.191  0.3246  0.2306 -0.0974
  248loPI   C2A 3960   8.456   4.123   8.806  0.2897  0.0143 -0.0365
  248loPI   C3A 3961   8.150   4.335   8.631 -0.0042  0.0137 -0.4022
  248loPI   C4A 3962   8.197   4.623   8.251 -0.2503  0.0939 -0.0562
  248loPI   C5A 3963   8.100   4.568   7.799 -0.4266 -0.2781 -0.2054
  248loPI   C6A 3964   8.187   4.444   7.305 -0.5119 -0.1094 -0.4251
  248loPI   C1B 3965   8.133   3.719   9.030  0.2312  0.0641 -0.1361
  248loPI   C2B 3966   7.999   3.819   8.737  0.0312  0.0312  0.1138
  248loPI   C3B 3967   8.184   3.844   8.318 -0.0123 -0.0548 -0.1966
  248loPI   C4B 3968   8.365   4.174   8.022  0.2153 -0.0089  0.1955
  249loPI    C1 3969  14.108  12.296  10.333  0.0583 -0.0637 -0.2607
  249loPI    C2 3970  14.192  11.906  10.314 -0.1876 -0.1651  0.4488
  249loPI    C3 3971  14.487  12.172  10.360 -0.0289 -0.2675  0.0670
  249loPI   PO4 3972  13.795  12.374  10.064  0.3043  0.0373  0.1967
  249loPI   GL1 3973  13.783  12.608   9.694 -0.3410 -0.2776 -0.2693
  249loPI   GL2 3974  13.603  12.914   9.682 -0.0294  0.2636  0.0746
  249loPI   C1A 3975  13.497  12.495   9.387 -0.0592  0.3599 -0.1133
  249loPI   C2A 3976  13.469  12.492   8.929 -0.0546  0.0390 -0.2358
  249loPI   C3A 3977  13.494  12.653   8.606  0.0717  0.0089  0.1143
  249loPI   C4A 3978  13.550  12.773   8.327  0.0094  0.2039  0.4473
  249loPI   C5A 3979  13.339  12.949   7.856 -0.1906 -0.2052  0.0058
  249loPI   C6A 3980  13.052  13.180   7.830  0.0044 -0.2464  0.1953
  249loPI   C1B 3981  13.548  12.978   9.199  0.0418  0.2573  0.3083
  249loPI   C2B 3982  13.474  13.205   8.789  0.0600  0.1415 -0.2200
  249loPI   C3B 3983  13.497  13.470   8.442  0.3896 -0.2611  0.0921
  249loPI   C4B 3984  13.389  13.540   7.981  0.3026 -0.1641 -0.0961
  250loPI    C1 3985   0.991   4.330   9.919 -0.0986  0.0517 -0.0945
  250loPI    C2 3986   0.619   4.183   9.926 -0.1111  0.0852 -0.0536
  250loPI    C3 3987   0.838   4.188  10.260  0.0262 -0.1894 -0.1367
  250loPI   PO4 3988   1.059   4.262   9.638  0.2389  0.2993  0.1429
  250loPI   GL1 3989   1.201   4.538   9.372  0.0007 -0.1543  0.2844
  250loPI   GL2 3990   1.352   4.302   9.238  0.0158  0.0410  0.2784
  250loPI   C1A 3991   0.964   4.670   9.109 -0.1856 -0.2663 -0.1460
  250loPI   C2A 3992   1.173   4.795   8.795 -0.1862 -0.4609  0.1529
  250loPI   C3A 3993   1.138   4.937   8.387 -0.1173  0.0323 -0.0479
  250loPI   C4A 3994   1.056   4.939   8.015 -0.0867 -0.0671  0.1554
  250loPI   C5A 3995   0.948   5.018   7.629  0.3439 -0.3739  0.3048
  250loPI   C6A 3996   0.671   4.887   7.395 -0.0736  0.1034 -0.0152
  250loPI   C1B 3997   1.324   4.264   8.783 -0.2890 -0.1500 -0.0328
  250loPI   C2B 3998   1.071   4.431   8.427 -0.0413 -0.1018  0.0573
  250loPI   C3B 3999   0.896   4.404   8.052 -0.1417 -0.2800 -0.2462
  250loPI   C4B 4000   1.052   4.271   7.588  0.1930 -0.0863  0.2127
  251loPI    C1 4001  10.949  11.319  10.182  0.0258 -0.4036  0.1171
  251loPI    C2 4002  10.917  11.642  10.416 -0.1191 -0.1630 -0.2248
  251loPI    C3 4003  10.883  11.276  10.574 -0.1540 -0.0086  0.1359
  251loPI   PO4 4004  10.840  11.383   9.947 -0.2282  0.0751  0.1533
  251loPI   GL1 4005  10.675  11.597   9.648 -0.2717 -0.3435 -0.0396
  251loPI   GL2 4006  10.423  11.378   9.655  0.3962  0.0950  0.2509
  251loPI   C1A 4007  10.776  11.745   9.152 -0.2673  0.1202 -0.1140
  251loPI   C2A 4008  10.819  11.823   8.643  0.0294 -0.1550  0.1108
  251loPI   C3A 4009  10.645  11.940   8.186  0.1432  0.0625 -0.2573
  251loPI   C4A 4010  10.479  12.089   7.957  0.0420  0.0978  0.2701
  251loPI   C5A 4011  10.479  12.161   7.463  0.1869 -0.0480 -0.2539
  251loPI   C6A 4012  10.366  12.448   7.100 -0.3654 -0.1466 -0.0017
  251loPI   C1B 4013  10.434  11.172   9.274 -0.1932  0.2861  0.2529
  251loPI   C2B 4014  10.757  10.802   9.122  0.3186  0.1067 -0.3256
  251loPI   C3B 4015  10.640  10.762   8.802  0.1678 -0.1766 -0.3590
  251loPI   C4B 4016  10.931  11.028   8.526 -0.2282  0.0242 -0.0726
  252loPI    C1 4017  15.418   3.834  10.005  0.1622 -0.0261  0.0626
  252loPI    C2 4018  15.456   4.176  10.210 -0.2763 -0.0636  0.2162
  252loPI    C3 4019  15.424   3.828  10.405 -0.1956 -0.1541  0.0695
  252loPI   PO4 4020  15.464   3.943   9.771 -0.2030  0.1494  0.0360
  252loPI   GL1 4021  15.493   3.888   9.415  0.0801  0.2741  0.0494
  252loPI   GL2 4022  15.608   3.719   9.168  0.1638  0.2102 -0.0531
  252loPI   C1A 4023  15.307   4.204   9.109  0.1096 -0.0148 -0.0366
  252loPI   C2A 4024  14.994   4.498   8.895 -0.3812 -0.0135  0.0092
  252loPI   C3A 4025  14.966   4.446   8.466 -0.2433 -0.0036  0.2568
  252loPI   C4A 4026  15.001   4.557   8.096  0.1990 -0.0605  0.2014
  252loPI   C5A 4027  15.348   4.756   7.796 -0.0218 -0.3443  0.3109
  252loPI   C6A 4028  15.749   4.919   7.678 -0.3463  0.2620  0.0603
  252loPI   C1B 4029  15.490   3.717   8.805  0.0224  0.2562  0.0628
  252loPI   C2B 4030  15.370   3.760   8.472 -0.0329  0.2840  0.2030
  252loPI   C3B 4031  15.481   3.714   8.013  0.1724 -0.0434  0.2659
  252loPI   C4B 4032  15.790   3.840   7.725 -0.2188  0.1672 -0.4452
  253loPI    C1 4033   8.276  17.584  10.408 -0.1144 -0.1557  0.1190
  253loPI    C2 4034   7.928  17.764  10.326 -0.0125  0.0698  0.1764
  253loPI    C3 4035   7.941  17.367  10.375 -0.2254  0.0353 -0.0299
  253loPI   PO4 4036   8.443  17.666  10.164 -0.0493 -0.1388 -0.0837
  253loPI   GL1 4037   8.872  17.625  10.049 -0.3222 -0.3653  0.0020
  253loPI   GL2 4038   9.209  17.820   9.990  0.2986  0.1184  0.0924
  253loPI   C1A 4039   8.767  17.478   9.636 -0.0613  0.1700 -0.0126
  253loPI   C2A 4040   8.948  17.196   9.164  0.2797  0.4184 -0.0407
  253loPI   C3A 4041   8.879  16.979   8.845  0.0571 -0.0632  0.0523
  253loPI   C4A 4042   8.847  16.542   8.474  0.1658  0.2609 -0.1542
  253loPI   C5A 4043   8.873  16.157   8.378 -0.1540  0.3095 -0.1589
  253loPI   C6A 4044   8.669  15.973   8.048 -0.2879  0.1425  0.1111
  253loPI   C1B 4045   8.970  17.955   9.654  0.1760  0.1690  0.1721
  253loPI   C2B 4046   9.110  18.066   9.258  0.0570  0.1540 -0.3877
  253loPI   C3B 4047   9.104  18.039   8.806  0.2600  0.2194  0.1517
  253loPI   C4B 4048   9.078  17.951   8.483 -0.2765  0.0017  0.0661
  254loPI    C1 4049   8.119   1.487   9.974  0.1140  0.2276  0.2086
  254loPI    C2 4050   7.768   1.463  10.165  0.1009  0.1458  0.1746
  254loPI    C3 4051   8.049   1.184  10.224  0.0965  0.1197  0.0741
  254loPI   PO4 4052   8.012   1.406   9.738  0.3666  0.2972  0.3033
  254loPI   GL1 4053   8.145   1.471   9.390 -0.2967  0.1502 -0.1241
  254loPI   GL2 4054   8.076   1.808   9.320 -0.4987 -0.3835 -0.3263
  254loPI   C1A 4055   7.944   1.321   8.986 -0.1415  0.2951 -0.3353
  254loPI   C2A 4056   7.938   1.184   8.576 -0.2577  0.1030 -0.1142
  254loPI   C3A 4057   7.869   0.896   8.236 -0.1533 -0.1844 -0.2679
  254loPI   C4A 4058   7.617   0.689   7.965 -0.4725  0.4099 -0.1305
  254loPI   C5A 4059   7.356   0.423   7.670 -0.0893  0.1850  0.2468
  254loPI   C6A 4060   7.223   0.042   7.453 -0.0402  0.1555 -0.0631
  254loPI   C1B 4061   8.364   1.616   8.920 -0.2302 -0.0344  0.1847
  254loPI   C2B 4062   8.390   1.621   8.492  0.3681  0.2366  0.1278
  254loPI   C3B 4063   8.365   1.534   8.091 -0.1391  0.0484  0.0534
  254loPI   C4B 4064   8.408   1.683   7.728  0.2421 -0.0286 -0.1972
  255loPI    C1 4065   3.647   3.406  10.046  0.0537  0.1005 -0.1764
  255loPI    C2 4066   3.320   3.589  10.186  0.0680 -0.0741  0.0926
  255loPI    C3 4067   3.386   3.204  10.272  0.1390 -0.1544 -0.3016
  255loPI   PO4 4068   3.555   3.530   9.793 -0.0185 -0.4179  0.2736
  255loPI   GL1 4069   3.686   3.544   9.445 -0.1309  0.3185 -0.4155
  255loPI   GL2 4070   3.359   3.666   9.305  0.1137 -0.0825  0.2894
  255loPI   C1A 4071   3.760   3.546   8.995  0.0937  0.0151  0.2991
  255loPI   C2A 4072   3.614   3.471   8.680  0.0280  0.1596  0.1672
  255loPI   C3A 4073   3.754   3.363   8.324  0.3988 -0.0705 -0.0745
  255loPI   C4A 4074   3.860   3.582   7.887 -0.1756  0.1814  0.1764
  255loPI   C5A 4075   3.961   3.381   7.520 -0.0515  0.0392 -0.2393
  255loPI   C6A 4076   3.995   3.277   7.149 -0.2172  0.0234 -0.1255
  255loPI   C1B 4077   3.340   3.795   8.973  0.1251 -0.1687  0.1118
  255loPI   C2B 4078   3.490   3.907   8.566  0.0526 -0.0263 -0.3525
  255loPI   C3B 4079   3.422   3.900   8.142  0.2931 -0.0901  0.1673
  255loPI   C4B 4080   3.454   3.790   7.679 -0.2705  0.0321  0.6301
  256loPI    C1 4081   2.489   7.754   9.883  0.0490  0.0078  0.2264
  256loPI    C2 4082   2.103   7.768   9.987 -0.0273  0.1834 -0.0673
  256loPI    C3 4083   2.380   7.932  10.224 -0.1200 -0.0261  0.1910
  256loPI   PO4 4084   2.429   7.633   9.618 -0.0907  0.2769 -0.0832
  256loPI   GL1 4085   2.428   7.341   9.233  0.1071 -0.1082  0.2543
  256loPI   GL2 4086   2.696   7.421   9.247 -0.2679  0.1163  0.0902
  256loPI   C1A 4087   2.227   7.476   8.825  0.0803 -0.2863  0.2393
  256loPI   C2A 4088   2.241   7.478   8.438 -0.1620 -0.1014 -0.2776
  256loPI   C3A 4089   2.093   7.397   8.077  0.1743 -0.0408  0.0610
  256loPI   C4A 4090   1.838   7.472   7.756  0.1108  0.0007  0.0580
  256loPI   C5A 4091   1.714   7.555   7.375  0.0247  0.2678  0.0734
  256loPI   C6A 4092   1.642   7.594   6.979 -0.0113 -0.0443 -0.2834
  256loPI   C1B 4093   2.722   7.368   8.772 -0.1756  0.3710  0.1607
  256loPI   C2B 4094   2.629   7.194   8.350 -0.0549 -0.1839 -0.1734
  256loPI   C3B 4095   2.521   7.073   7.917 -0.2171 -0.0899  0.2058
  256loPI   C4B 4096   2.230   7.196   7.539 -0.3380  0.0430 -0.0325
  257loPI    C1 4097  12.838   1.337   9.868  0.0562  0.2350 -0.0163
  257loPI    C2 4098  12.652   1.200  10.194  0.0878  0.3847  0.0655
  257loPI    C3 4099  13.044   1.281  10.206  0.0861  0.4038 -0.0054
  257loPI   PO4 4100  12.935   1.131   9.665 -0.1520  0.1216  0.0762
  257loPI   GL1 4101  12.934   0.793   9.451  0.1087 -0.1812  0.3172
  257loPI   GL2 4102  13.232   0.746   9.399  0.1102 -0.2057  0.0928
  257loPI   C1A 4103  12.855   0.697   9.059  0.2196 -0.1514 -0.2041
  257loPI   C2A 4104  13.028   0.683   8.691  0.0673  0.0162 -0.0644
  257loPI   C3A 4105  13.020   0.675   8.223 -0.0215  0.0029  0.0958
  257loPI   C4A 4106  12.785   0.693   7.836  0.1209  0.2092 -0.2427
  257loPI   C5A 4107  12.458   0.762   7.458  0.0750 -0.0520 -0.4631
  257loPI   C6A 4108  12.092   0.705   7.141 -0.3464 -0.2298 -0.0196
  257loPI   C1B 4109  13.441   0.733   9.018 -0.1348  0.2023 -0.3020
  257loPI   C2B 4110  13.502   0.729   8.486  0.1808 -0.1768  0.4001
  257loPI   C3B 4111  13.442   0.992   8.141 -0.0122  0.3563  0.0767
  257loPI   C4B 4112  13.193   0.858   7.774  0.0710  0.1053 -0.0233
  258loPI    C1 4113   6.611  12.865  10.006 -0.1721 -0.0457  0.1777
  258loPI    C2 4114   6.725  12.496   9.900  0.0238  0.0580  0.0203
  258loPI    C3 4115   6.947  12.708  10.156 -0.1027  0.0578  0.1311
  258loPI   PO4 4116   6.576  12.960   9.741  0.0810  0.2310 -0.0435
  258loPI   GL1 4117   6.770  13.185   9.439 -0.0978 -0.2603 -0.1220
  258loPI   GL2 4118   6.676  13.387   9.254  0.1907 -0.2022  0.2496
  258loPI   C1A 4119   6.615  12.843   9.136  0.0571 -0.0940  0.0243
  258loPI   C2A 4120   6.459  12.438   9.007  0.2989  0.2025 -0.2853
  258loPI   C3A 4121   6.279  12.266   8.638  0.0896 -0.1112  0.0254
  258loPI   C4A 4122   5.944  12.165   8.325  0.0918 -0.0564 -0.1314
  258loPI   C5A 4123   5.942  12.338   7.942 -0.0097  0.2896 -0.0980
  258loPI   C6A 4124   6.308  12.531   7.798 -0.3392  0.0645  0.5019
  258loPI   C1B 4125   6.984  13.558   8.962 -0.2254 -0.0907  0.0465
  258loPI   C2B 4126   7.194  13.681   8.562  0.0353 -0.1675 -0.2188
  258loPI   C3B 4127   7.383  13.892   8.291 -0.0427 -0.2105  0.1124
  258loPI   C4B 4128   7.473  13.747   7.853 -0.2802 -0.0130  0.2083
  259loPI    C1 4129   3.847  14.077  10.240  0.0141  0.0588 -0.0635
  259loPI    C2 4130   3.674  14.091  10.600  0.0348 -0.0696 -0.0481
  259loPI    C3 4131   4.073  14.085  10.570  0.0345  0.0382 -0.0769
  259loPI   PO4 4132   3.730  14.288  10.005 -0.3311  0.1437  0.3777
  259loPI   GL1 4133   3.578  14.396   9.619 -0.0241  0.0824 -0.3027
  259loPI   GL2 4134   3.356  14.266   9.349 -0.5127 -0.1283 -0.2225
  259loPI   C1A 4135   3.874  14.565   9.400 -0.0140  0.5373  0.0576
  259loPI   C2A 4136   4.079  14.671   9.106  0.0643 -0.0371 -0.1274
  259loPI   C3A 4137   4.118  14.732   8.649  0.3559  0.3529  0.0176
  259loPI   C4A 4138   3.894  14.821   8.246  0.2171 -0.0863 -0.0589
  259loPI   C5A 4139   3.634  14.653   7.878 -0.1317  0.1303 -0.1746
  259loPI   C6A 4140   3.289  14.547   7.896 -0.2019  0.0949  0.0389
  259loPI   C1B 4141   2.928  14.277   9.139 -0.4116 -0.0047 -0.0725
  259loPI   C2B 4142   2.884  14.251   8.755 -0.0137 -0.1747  0.1122
  259loPI   C3B 4143   2.842  14.393   8.284  0.0048 -0.1280 -0.0221
  259loPI   C4B 4144   2.817  14.576   7.843  0.2184  0.1021  0.0391
  260loPI    C1 4145  10.398   2.013   9.534  0.0974  0.0034  0.0512
  260loPI    C2 4146  10.152   1.961   9.844 -0.0254  0.1165 -0.0262
  260loPI    C3 4147  10.016   2.128   9.507  0.1076 -0.0035 -0.1406
  260loPI   PO4 4148  10.514   1.809   9.404 -0.2016  0.0845 -0.1470
  260loPI   GL1 4149  10.346   1.603   9.029 -0.1409  0.2468 -0.0268
  260loPI   GL2 4150  10.081   1.787   9.119  0.3173  0.1241 -0.2589
  260loPI   C1A 4151  10.444   1.801   8.643 -0.2346 -0.0755  0.1139
  260loPI   C2A 4152  10.414   1.803   8.174 -0.0821 -0.0621  0.0677
  260loPI   C3A 4153  10.568   1.722   7.822 -0.0790 -0.1786 -0.3527
  260loPI   C4A 4154  10.758   1.676   7.494 -0.0559  0.0801  0.1524
  260loPI   C5A 4155  11.047   1.294   7.441 -0.3283  0.0224 -0.1709
  260loPI   C6A 4156  11.277   0.962   7.668 -0.2654 -0.1613  0.1258
  260loPI   C1B 4157   9.930   1.741   8.697 -0.0013 -0.0671  0.2029
  260loPI   C2B 4158  10.018   1.645   8.373 -0.0017 -0.1523 -0.0907
  260loPI   C3B 4159   9.912   1.776   7.955  0.1742  0.0071 -0.0620
  260loPI   C4B 4160  10.082   1.758   7.597 -0.1743  0.1629  0.3974
  261loPI    C1 4161  13.315   9.835  10.044 -0.1396  0.0089  0.0951
  261loPI    C2 4162  13.534   9.500  10.047 -0.1440  0.0040 -0.0492
  261loPI    C3 4163  13.422   9.669  10.392  0.0128 -0.0417  0.0250
  261loPI   PO4 4164  13.445   9.971   9.835 -0.1564 -0.1219 -0.0171
  261loPI   GL1 4165  13.626   9.690   9.446  0.3462 -0.2033 -0.0551
  261loPI   GL2 4166  13.803   9.471   9.314 -0.4224  0.1147 -0.1799
  261loPI   C1A 4167  13.420   9.648   9.074  0.1288 -0.1376 -0.0223
  261loPI   C2A 4168  13.419   9.720   8.705  0.1935  0.2928 -0.0562
  261loPI   C3A 4169  13.376   9.700   8.248  0.2320 -0.2664 -0.0027
  261loPI   C4A 4170  13.168   9.841   7.815 -0.2957 -0.1007 -0.0881
  261loPI   C5A 4171  12.688   9.974   7.701 -0.2171  0.0668 -0.0045
  261loPI   C6A 4172  12.172   9.840   7.735 -0.2203 -0.0539  0.3499
  261loPI   C1B 4173  14.008   9.586   8.949  0.0109 -0.3554  0.4568
  261loPI   C2B 4174  13.895   9.629   8.504  0.1360 -0.0510 -0.0022
  261loPI   C3B 4175  13.825   9.519   8.095 -0.0023  0.0745 -0.3341
  261loPI   C4B 4176  13.379   9.293   7.953  0.1497  0.0464 -0.1085
  262loPI    C1 4177   8.435   4.605  10.183  0.2272 -0.1022 -0.0599
  262loPI    C2 4178   8.526   4.294  10.417  0.2900  0.0153  0.0728
  262loPI    C3 4179   8.468   4.656  10.578 -0.0453  0.0195 -0.0504
  262loPI   PO4 4180   8.529   4.593   9.968 -0.3440  0.0274 -0.1137
  262loPI   GL1 4181   8.326   4.694   9.624  0.0142 -0.2162  0.3626
  262loPI   GL2 4182   8.493   5.043   9.298  0.2189 -0.0489  0.1728
  262loPI   C1A 4183   8.334   4.483   9.202 -0.4883 -0.1567  0.2139
  262loPI   C2A 4184   8.560   4.662   8.882 -0.0507 -0.2566  0.2641
  262loPI   C3A 4185   8.683   4.552   8.450  0.1826  0.0576  0.1012
  262loPI   C4A 4186   8.628   4.590   8.002 -0.3204  0.2075 -0.1150
  262loPI   C5A 4187   8.667   4.475   7.547 -0.1839  0.0053  0.0399
  262loPI   C6A 4188   8.644   4.614   7.172 -0.0081 -0.1924  0.1073
  262loPI   C1B 4189   8.376   5.207   8.943 -0.2361 -0.1465 -0.2181
  262loPI   C2B 4190   8.368   5.164   8.437 -0.0657 -0.0511 -0.0429
  262loPI   C3B 4191   8.374   5.000   8.029  0.1268  0.0697  0.0800
  262loPI   C4B 4192   8.376   4.870   7.541  0.0173  0.1020  0.1045
  263loPI    C1 4193   7.662  10.744  10.195  0.0538  0.0436 -0.2665
  263loPI    C2 4194   7.951  11.016  10.149 -0.2288  0.4141  0.0819
  263loPI    C3 4195   7.858  10.881  10.514 -0.1240 -0.1259 -0.0813
  263loPI   PO4 4196   7.494  10.839  10.014  0.0360  0.1064  0.1323
  263loPI   GL1 4197   7.360  10.619   9.613 -0.0637  0.3124  0.0117
  263loPI   GL2 4198   7.314  10.921   9.516 -0.3071  0.2379  0.1987
  263loPI   C1A 4199   7.236  10.442   9.238  0.1753  0.0667  0.0504
  263loPI   C2A 4200   7.314  10.369   8.821 -0.0353 -0.2092  0.0671
  263loPI   C3A 4201   7.530  10.520   8.436  0.4891  0.1203  0.1591
  263loPI   C4A 4202   7.676  10.520   8.010 -0.0514  0.0126 -0.0061
  263loPI   C5A 4203   7.894  10.563   7.622 -0.0442 -0.2319 -0.0651
  263loPI   C6A 4204   8.241  10.519   7.365 -0.1750  0.1477  0.1819
  263loPI   C1B 4205   7.299  10.915   9.004 -0.0300  0.2268  0.0559
  263loPI   C2B 4206   7.661  10.953   8.611  0.0328 -0.1396 -0.2818
  263loPI   C3B 4207   7.825  10.942   8.298  0.1697  0.0644  0.4724
  263loPI   C4B 4208   7.875  11.050   7.905 -0.1438  0.2392  0.0369
  264loPI    C1 4209   2.553   5.298   9.845  0.0097 -0.1553  0.1398
  264loPI    C2 4210   2.522   5.669   9.991 -0.0296 -0.1226  0.0495
  264loPI    C3 4211   2.219   5.509   9.785 -0.0800 -0.2692  0.2340
  264loPI   PO4 4212   2.778   5.360   9.726 -0.0309  0.0370 -0.1192
  264loPI   GL1 4213   3.125   5.348   9.418  0.0452  0.2302 -0.0675
  264loPI   GL2 4214   2.911   5.038   9.344 -0.1798 -0.0728  0.1768
  264loPI   C1A 4215   3.301   5.444   9.140 -0.0636  0.0483 -0.2171
  264loPI   C2A 4216   3.340   5.482   8.625 -0.0722  0.0893 -0.1233
  264loPI   C3A 4217   3.243   5.363   8.201 -0.0490  0.0034 -0.1365
  264loPI   C4A 4218   3.355   5.208   7.813 -0.0347  0.1431  0.0345
  264loPI   C5A 4219   3.841   4.949   7.776 -0.1177  0.0174  0.2280
  264loPI   C6A 4220   4.026   4.654   7.668 -0.0129 -0.1888 -0.1171
  264loPI   C1B 4221   2.919   5.142   8.969  0.1218  0.1552  0.3437
  264loPI   C2B 4222   2.819   5.179   8.517 -0.1522  0.3150 -0.0641
  264loPI   C3B 4223   2.847   5.122   8.037 -0.1431  0.2734 -0.1684
  264loPI   C4B 4224   2.904   5.179   7.579  0.1072 -0.1358  0.3974
  265loPI    C1 4225   6.145  12.932  10.208 -0.0311 -0.0351  0.1127
  265loPI    C2 4226   5.818  12.893  10.435 -0.1345  0.1558 -0.0001
  265loPI    C3 4227   6.176  12.785  10.578 -0.2531 -0.1082  0.1038
  265loPI   PO4 4228   6.012  13.068   9.974 -0.0170 -0.0566  0.1686
  265loPI   GL1 4229   5.794  13.110   9.606  0.0601 -0.0410  0.0453
  265loPI   GL2 4230   6.115  13.193   9.484 -0.1230  0.0041  0.0332
  265loPI   C1A 4231   5.762  13.252   9.138 -0.1520  0.0417  0.0477
  265loPI   C2A 4232   5.719  13.186   8.713 -0.1286  0.1221 -0.3833
  265loPI   C3A 4233   5.902  12.983   8.322 -0.0736 -0.1384  0.0941
  265loPI   C4A 4234   6.031  13.003   7.831  0.0606  0.2449 -0.1058
  265loPI   C5A 4235   6.439  13.175   7.683  0.0486 -0.1427  0.0012
  265loPI   C6A 4236   6.760  13.334   7.782  0.2023  0.1655  0.1586
  265loPI   C1B 4237   6.249  13.184   9.057  0.0429 -0.0262  0.2782
  265loPI   C2B 4238   6.609  13.309   8.682  0.2899 -0.4792 -0.1249
  265loPI   C3B 4239   6.825  13.208   8.291  0.1310  0.1436 -0.1846
  265loPI   C4B 4240   7.077  13.002   7.923  0.0018 -0.1482 -0.3003
  266loPI    C1 4241   0.691   2.782   9.992 -0.1539  0.0917  0.1393
  266loPI    C2 4242   0.873   2.674  10.331  0.2983  0.0726 -0.1020
  266loPI    C3 4243   0.840   3.061  10.237  0.1128  0.0810 -0.0072
  266loPI   PO4 4244   0.860   2.723   9.734  0.1415  0.1236 -0.2916
  266loPI   GL1 4245   0.951   2.986   9.468 -0.1795  0.1793 -0.1143
  266loPI   GL2 4246   0.510   3.089   9.542  0.1781 -0.2272 -0.1866
  266loPI   C1A 4247   1.001   2.840   8.994  0.2253  0.1419  0.1326
  266loPI   C2A 4248   0.904   2.827   8.560 -0.0690  0.0993 -0.0749
  266loPI   C3A 4249   1.124   2.837   8.189 -0.1177  0.2428  0.0264
  266loPI   C4A 4250   1.517   3.147   8.095  0.1119  0.2605 -0.3670
  266loPI   C5A 4251   1.849   3.335   8.262  0.0213 -0.1437 -0.3556
  266loPI   C6A 4252   2.114   3.423   7.992  0.0349  0.1716  0.5350
  266loPI   C1B 4253   0.743   3.320   9.111  0.0540 -0.2424  0.0286
  266loPI   C2B 4254   0.889   3.347   8.620 -0.2846  0.2692 -0.2651
  266loPI   C3B 4255   1.167   3.514   8.269 -0.1237 -0.1184 -0.0282
  266loPI   C4B 4256   0.890   3.522   7.808  0.0076  0.1925  0.2024
  267loPI    C1 4257  18.369   7.269  10.172 -0.0805 -0.0289 -0.0327
  267loPI    C2 4258  17.979   7.199  10.118 -0.0844 -0.0973  0.0803
  267loPI    C3 4259  18.098   7.489  10.367 -0.0633 -0.0269 -0.0110
  267loPI   PO4 4260  18.402   7.253   9.855  0.1831  0.1505 -0.1956
  267loPI   GL1 4261  18.507   7.005   9.394  0.3143 -0.0512 -0.1073
  267loPI   GL2 4262  18.489   7.316   9.368  0.0517 -0.2200 -0.0303
  267loPI   C1A 4263  18.475   6.766   9.035  0.1885  0.0778  0.1214
  267loPI   C2A 4264  18.401   6.588   8.683 -0.0272 -0.0460  0.0669
  267loPI   C3A 4265  18.197   6.497   8.257  0.1969  0.0237  0.0248
  267loPI   C4A 4266  18.412   6.425   7.844 -0.2998  0.0390 -0.0637
  267loPI   C5A 4267  18.191   6.406   7.551 -0.1070 -0.0302  0.1789
  267loPI   C6A 4268  18.010   6.370   7.121 -0.0934 -0.0346 -0.3598
  267loPI   C1B 4269  18.486   7.301   8.936  0.1533  0.0989  0.1609
  267loPI   C2B 4270  18.481   7.088   8.588 -0.1958 -0.0794 -0.2626
  267loPI   C3B 4271  18.409   6.878   8.116  0.1663 -0.2009 -0.2229
  267loPI   C4B 4272  18.753   6.933   7.926  0.3159 -0.2954 -0.0089
  268loPI    C1 4273  16.868  17.568  10.055  0.1397 -0.2071  0.1984
  268loPI    C2 4274  16.732  17.890  10.248  0.0262 -0.1928  0.0957
  268loPI    C3 4275  17.107  17.884  10.109 -0.0311 -0.0278 -0.0703
  268loPI   PO4 4276  16.509  17.490  10.000 -0.3850 -0.0899  0.3354
  268loPI   GL1 4277  16.483  17.267   9.604 -0.2389  0.0253  0.0551
  268loPI   GL2 4278  16.788  17.554   9.518  0.0686  0.0094  0.1840
  268loPI   C1A 4279  16.521  17.278   9.135 -0.4344 -0.0401  0.1071
  268loPI   C2A 4280  16.760  17.543   8.858  0.1289 -0.1287  0.1706
  268loPI   C3A 4281  16.879  17.485   8.416  0.2981 -0.0448 -0.0660
  268loPI   C4A 4282  17.202  17.544   8.158  0.0801 -0.0142  0.2694
  268loPI   C5A 4283  17.390  17.704   7.797  0.0797  0.1017  0.2702
  268loPI   C6A 4284  17.361  17.645   7.307  0.3077  0.1260  0.0331
  268loPI   C1B 4285  17.021  17.745   9.191 -0.0576 -0.0659  0.0507
  268loPI   C2B 4286  17.254  17.830   9.006  0.4929  0.3054 -0.3008
  268loPI   C3B 4287  17.387  17.940   8.605 -0.0456  0.0427 -0.0857
  268loPI   C4B 4288  17.545  18.352   8.470  0.0085  0.3120  0.1572
  269loPI    C1 4289  18.297   2.165  10.236  0.0845 -0.0928 -0.0964
  269loPI    C2 4290  18.670   2.217  10.372  0.1582 -0.2474 -0.2363
  269loPI    C3 4291  18.445   1.917  10.513 -0.0591  0.0843  0.1432
  269loPI   PO4 4292  18.428   2.192   9.916 -0.0471  0.1877 -0.3784
  269loPI   GL1 4293  18.265   1.968   9.503  0.0723 -0.0266  0.0218
  269loPI   GL2 4294  18.087   1.597   9.522 -0.1000 -0.1697  0.2250
  269loPI   C1A 4295  18.295   1.915   9.094 -0.2089 -0.3199 -0.1790
  269loPI   C2A 4296  18.255   1.947   8.648  0.1641 -0.0327 -0.2285
  269loPI   C3A 4297  18.504   1.947   8.439  0.0261  0.0553 -0.0885
  269loPI   C4A 4298  18.782   1.841   8.092 -0.0665 -0.4017  0.0668
  269loPI   C5A 4299  18.802   2.021   7.751  0.2217  0.1369  0.3071
  269loPI   C6A 4300  18.654   2.054   7.386 -0.0598  0.0812  0.0961
  269loPI   C1B 4301  18.192   1.392   9.162 -0.1981  0.1910  0.2618
  269loPI   C2B 4302  18.194   1.498   8.767  0.1590  0.3415 -0.1453
  269loPI   C3B 4303  18.370   1.351   8.346  0.2615  0.1917 -0.0831
  269loPI   C4B 4304  18.212   1.267   7.979  0.0825  0.1305 -0.0758
  270loPI    C1 4305  11.672   5.864   9.626 -0.0035  0.0355  0.1715
  270loPI    C2 4306  11.332   5.714   9.773 -0.1499  0.0595 -0.1336
  270loPI    C3 4307  11.475   6.061   9.913 -0.2146  0.0169  0.0414
  270loPI   PO4 4308  11.664   5.867   9.264 -0.3111 -0.1229 -0.0270
  270loPI   GL1 4309  11.513   5.807   8.838  0.1366  0.2080  0.1569
  270loPI   GL2 4310  11.272   5.558   8.987  0.0251  0.0988 -0.3468
  270loPI   C1A 4311  11.503   5.956   8.478 -0.2497  0.1276  0.1887
  270loPI   C2A 4312  11.383   6.062   8.032  0.2172 -0.3110  0.2993
  270loPI   C3A 4313  11.370   6.398   7.703  0.1151 -0.1667  0.1033
  270loPI   C4A 4314  11.568   6.613   7.334 -0.0241 -0.0204  0.1903
  270loPI   C5A 4315  11.636   6.254   7.132 -0.2214  0.0547 -0.1901
  270loPI   C6A 4316  11.805   5.876   6.969  0.3893 -0.1107 -0.1040
  270loPI   C1B 4317  11.503   5.345   8.580 -0.1432 -0.2787  0.0188
  270loPI   C2B 4318  11.480   5.485   8.273 -0.1166 -0.2383  0.1013
  270loPI   C3B 4319  11.601   5.650   7.889  0.3367 -0.0517  0.0965
  270loPI   C4B 4320  11.637   5.989   7.587  0.4222 -0.0332  0.1092
  271loPI    C1 4321   3.896   9.429  10.254  0.1968 -0.0620  0.1957
  271loPI    C2 4322   3.627   9.133  10.259  0.0560  0.0617  0.0574
  271loPI    C3 4323   3.600   9.432  10.524  0.1157  0.0237  0.1066
  271loPI   PO4 4324   3.999   9.376   9.896 -0.2780  0.2445  0.0003
  271loPI   GL1 4325   3.886   9.364   9.507  0.1747  0.0686 -0.1474
  271loPI   GL2 4326   3.814   9.101   9.431 -0.0188  0.1129 -0.1358
  271loPI   C1A 4327   3.924   9.279   9.017 -0.1027 -0.1627 -0.1150
  271loPI   C2A 4328   3.950   9.244   8.646 -0.2559 -0.1261  0.0752
  271loPI   C3A 4329   4.275   9.137   8.365 -0.2623 -0.1530 -0.1931
  271loPI   C4A 4330   4.618   9.096   8.103  0.1875 -0.2190  0.0402
  271loPI   C5A 4331   4.976   9.186   7.811 -0.2112  0.0551 -0.0918
  271loPI   C6A 4332   5.180   8.890   7.476  0.0490 -0.2198 -0.1681
  271loPI   C1B 4333   3.443   9.327   9.223  0.4810  0.3143  0.0557
  271loPI   C2B 4334   3.478   9.339   8.792  0.1640  0.0351  0.2302
  271loPI   C3B 4335   3.510   9.474   8.427  0.1077 -0.3202  0.0765
  271loPI   C4B 4336   3.812   9.268   8.092 -0.3104 -0.0902  0.2635
  272loPI    C1 4337   6.753  15.409  10.213  0.1234  0.2150  0.1499
  272loPI    C2 4338   6.354  15.428  10.219  0.1218  0.2026  0.0881
  272loPI    C3 4339   6.567  15.610  10.504  0.0738  0.2563  0.0902
  272loPI   PO4 4340   6.759  15.409   9.920 -0.1387 -0.0883  0.2041
  272loPI   GL1 4341   6.777  15.454   9.564  0.3002  0.4579  0.1524
  272loPI   GL2 4342   7.056  15.507   9.537 -0.0862  0.1423 -0.2286
  272loPI   C1A 4343   6.712  15.209   9.230  0.3536  0.2673 -0.0286
  272loPI   C2A 4344   6.637  14.978   8.823 -0.4508 -0.1010  0.1090
  272loPI   C3A 4345   6.713  15.073   8.441  0.0106 -0.2208 -0.0281
  272loPI   C4A 4346   6.936  15.297   8.178  0.3605  0.1243  0.1487
  272loPI   C5A 4347   7.065  15.142   7.726  0.5604  0.2991 -0.0576
  272loPI   C6A 4348   7.081  15.230   7.261  0.0013 -0.1908  0.0237
  272loPI   C1B 4349   7.449  15.262   9.379  0.0319 -0.0772  0.0165
  272loPI   C2B 4350   7.618  14.994   8.996  0.2563  0.1066  0.0608
  272loPI   C3B 4351   7.918  15.031   8.681  0.0414 -0.0073  0.1365
  272loPI   C4B 4352   8.067  15.465   8.577  0.1157  0.0618  0.0307
  273loPI    C1 4353   8.573   5.192   9.767  0.0208 -0.2501 -0.0544
  273loPI    C2 4354   8.451   5.421  10.071  0.1286  0.0450 -0.2289
  273loPI    C3 4355   8.625   5.067  10.143  0.0143  0.0423  0.0456
  273loPI   PO4 4356   8.754   5.321   9.646 -0.0021 -0.0855  0.1071
  273loPI   GL1 4357   9.001   5.249   9.370 -0.0523  0.3828 -0.0696
  273loPI   GL2 4358   9.223   5.467   9.253  0.0610  0.1278  0.0060
  273loPI   C1A 4359   9.077   5.052   8.942  0.1016  0.2993 -0.0284
  273loPI   C2A 4360   8.856   5.025   8.630 -0.1363  0.1561  0.0724
  273loPI   C3A 4361   8.893   4.986   8.234  0.0651  0.3456  0.0622
  273loPI   C4A 4362   8.860   5.057   7.756  0.0679 -0.1610  0.1770
  273loPI   C5A 4363   8.985   5.300   7.374  0.1626 -0.2152 -0.0602
  273loPI   C6A 4364   8.652   5.640   7.150 -0.4066  0.2821 -0.1436
  273loPI   C1B 4365   9.286   5.446   8.804  0.2039 -0.0504 -0.1476
  273loPI   C2B 4366   9.470   5.539   8.421  0.2801  0.0549 -0.1406
  273loPI   C3B 4367   9.612   5.609   8.049 -0.1257 -0.2628  0.2241
  273loPI   C4B 4368   9.528   5.712   7.655 -0.3439 -0.1530  0.1884
  274loPI    C1 4369  12.207  18.623   9.906 -0.1888 -0.0542  0.1163
  274loPI    C2 4370  11.907  18.797   9.707 -0.1643  0.2357  0.3281
  274loPI    C3 4371  12.231  19.009   9.808  0.2414 -0.1391 -0.1370
  274loPI   PO4 4372  12.274  18.410   9.779 -0.2228 -0.1429 -0.0289
  274loPI   GL1 4373  12.487  18.391   9.483  0.2795  0.1313  0.0643
  274loPI   GL2 4374  12.213  18.685   9.319  0.0336  0.0950 -0.1910
  274loPI   C1A 4375  12.423  18.304   9.064  0.0237 -0.1803 -0.1063
  274loPI   C2A 4376  12.141  18.106   8.778  0.0903  0.1675  0.1375
  274loPI   C3A 4377  11.984  18.157   8.298 -0.0678  0.2866 -0.1359
  274loPI   C4A 4378  11.918  18.599   8.109  0.1127 -0.1340  0.0048
  274loPI   C5A 4379  11.741  18.781   7.792  0.0023 -0.2492 -0.0002
  274loPI   C6A 4380  11.778  19.019   7.518  0.1300  0.2452  0.0645
  274loPI   C1B 4381  12.537  18.823   9.122  0.0678  0.1632 -0.2524
  274loPI   C2B 4382  12.534  18.895   8.685  0.0353 -0.0166 -0.0975
  274loPI   C3B 4383  12.713  18.730   8.243  0.0335 -0.1053  0.0236
  274loPI   C4B 4384  12.697  18.681   7.760 -0.2727  0.2422  0.2757
  275loPI    C1 4385   9.046  10.439  10.078  0.0997 -0.0299  0.2755
  275loPI    C2 4386   8.690  10.610  10.139  0.0078 -0.1660  0.1282
  275loPI    C3 4387   8.855  10.384  10.425 -0.0847 -0.2097  0.1472
  275loPI   PO4 4388   9.257  10.645   9.997 -0.2071  0.1408 -0.2799
  275loPI   GL1 4389   9.308  10.456   9.619 -0.0029  0.4671 -0.1065
  275loPI   GL2 4390   9.491  10.264   9.530 -0.1442  0.0381 -0.3018
  275loPI   C1A 4391   9.157  10.594   9.256 -0.1437 -0.0898 -0.3118
  275loPI   C2A 4392   8.918  10.819   8.951 -0.0319 -0.2206 -0.0998
  275loPI   C3A 4393   9.178  10.760   8.588  0.1789  0.0008 -0.2660
  275loPI   C4A 4394   9.267  10.587   8.263 -0.0697 -0.1213  0.0935
  275loPI   C5A 4395   8.913  10.422   7.921 -0.3000 -0.3746  0.1403
  275loPI   C6A 4396   8.559  10.652   7.752 -0.1173  0.0206  0.2707
  275loPI   C1B 4397   9.526   9.941   9.236  0.3131  0.1183 -0.0389
  275loPI   C2B 4398   9.520   9.910   8.880  0.0121  0.0726  0.1434
  275loPI   C3B 4399   9.482   9.923   8.399  0.0334  0.0775 -0.1621
  275loPI   C4B 4400   9.541   9.746   8.062 -0.2041  0.0130 -0.1800
  276loPI    C1 4401  11.888   3.157  10.016 -0.1894 -0.1197 -0.1300
  276loPI    C2 4402  11.580   3.408  10.052  0.0202  0.1391 -0.1126
  276loPI    C3 4403  11.757   3.261  10.379  0.0493  0.1579 -0.1199
  276loPI   PO4 4404  11.943   3.228   9.720 -0.0099 -0.1079 -0.2989
  276loPI   GL1 4405  12.140   3.491   9.395  0.0387 -0.0178  0.1821
  276loPI   GL2 4406  11.834   3.595   9.229 -0.1884 -0.2985  0.0374
  276loPI   C1A 4407  12.281   3.344   9.092 -0.3306 -0.1517  0.3979
  276loPI   C2A 4408  12.264   3.372   8.699  0.0258  0.0903 -0.1552
  276loPI   C3A 4409  12.129   3.463   8.237  0.2424  0.0166  0.1896
  276loPI   C4A 4410  11.950   3.469   7.765  0.1478  0.0990 -0.0278
  276loPI   C5A 4411  11.754   3.243   7.451  0.3443 -0.1429 -0.2672
  276loPI   C6A 4412  11.358   3.143   7.195 -0.1326 -0.1404  0.0757
  276loPI   C1B 4413  11.977   4.006   8.967 -0.1279  0.0440  0.0641
  276loPI   C2B 4414  12.090   4.016   8.478  0.0071  0.0190 -0.0918
  276loPI   C3B 4415  11.870   3.975   8.057  0.1988 -0.0493  0.0229
  276loPI   C4B 4416  11.739   4.116   7.674 -0.0073 -0.2435 -0.0345
  277loPI    C1 4417  14.637   3.442   9.987 -0.1038 -0.1097 -0.1391
  277loPI    C2 4418  14.271   3.486  10.142 -0.0747  0.0378 -0.1108
  277loPI    C3 4419  14.583   3.667  10.314  0.0333 -0.1982 -0.0545
  277loPI   PO4 4420  14.583   3.131   9.904  0.1682 -0.1467  0.1315
  277loPI   GL1 4421  14.587   3.068   9.388  0.4035  0.1943  0.0059
  277loPI   GL2 4422  14.585   3.477   9.476  0.0713  0.0393 -0.1393
  277loPI   C1A 4423  14.748   3.145   8.954  0.0198  0.0096 -0.1099
  277loPI   C2A 4424  14.724   3.388   8.536  0.2445  0.2402 -0.0236
  277loPI   C3A 4425  14.969   3.464   8.252  0.1666 -0.0005  0.1146
  277loPI   C4A 4426  15.070   3.363   7.846 -0.0849  0.3213 -0.1756
  277loPI   C5A 4427  15.152   3.241   7.515  0.3312  0.0274  0.2047
  277loPI   C6A 4428  14.791   2.953   7.372  0.0620 -0.1388 -0.0325
  277loPI   C1B 4429  14.496   3.582   8.908  0.3534  0.0599  0.0265
  277loPI   C2B 4430  14.385   3.670   8.360  0.2541  0.2616  0.3676
  277loPI   C3B 4431  14.478   3.698   8.024  0.1713 -0.1556  0.1138
  277loPI   C4B 4432  14.233   3.586   7.652  0.2651  0.1813 -0.0758
  278loPI    C1 4433   7.903  14.189  10.252  0.0188 -0.1119  0.2819
  278loPI    C2 4434   8.173  13.920  10.131 -0.0405 -0.0593  0.0252
  278loPI    C3 4435   7.887  13.814  10.390  0.0802 -0.1781  0.1119
  278loPI   PO4 4436   7.865  14.297  10.012  0.2054 -0.1151 -0.3304
  278loPI   GL1 4437   8.084  14.213   9.709  0.1090 -0.1186 -0.2306
  278loPI   GL2 4438   8.004  13.923   9.609 -0.1735 -0.3820 -0.2961
  278loPI   C1A 4439   7.897  14.423   9.384 -0.1357 -0.1594 -0.1046
  278loPI   C2A 4440   7.765  14.433   8.959  0.1997 -0.2385  0.0684
  278loPI   C3A 4441   7.951  14.560   8.491  0.0544  0.0025  0.0751
  278loPI   C4A 4442   8.187  14.815   8.254  0.0444 -0.1301 -0.1851
  278loPI   C5A 4443   8.065  15.040   7.934 -0.1172  0.0152  0.2816
  278loPI   C6A 4444   8.057  15.021   7.562  0.0420 -0.2481 -0.2035
  278loPI   C1B 4445   8.011  13.645   9.261 -0.0923 -0.1429 -0.1332
  278loPI   C2B 4446   8.305  13.564   8.927  0.0218  0.1754  0.3096
  278loPI   C3B 4447   8.343  13.447   8.469 -0.2168  0.3802 -0.2328
  278loPI   C4B 4448   8.222  13.369   8.140  0.0711  0.0942  0.3034
  279loPI    C1 4449   5.273   4.185   9.951 -0.0870 -0.1837  0.2107
  279loPI    C2 4450   5.352   3.997  10.296 -0.1083  0.0503  0.3452
  279loPI    C3 4451   5.168   4.352  10.299 -0.0260  0.0974  0.0967
  279loPI   PO4 4452   5.484   4.117   9.705  0.1573 -0.1605 -0.1388
  279loPI   GL1 4453   5.593   4.185   9.364  0.0107  0.0836  0.0518
  279loPI   GL2 4454   5.540   4.339   9.028  0.0108  0.3559 -0.0322
  279loPI   C1A 4455   5.689   3.817   9.081 -0.0545 -0.0742  0.1327
  279loPI   C2A 4456   5.824   3.592   8.770 -0.1034  0.0012  0.1437
  279loPI   C3A 4457   5.776   3.779   8.363  0.3963  0.1832 -0.0858
  279loPI   C4A 4458   5.790   3.673   7.969 -0.0245 -0.4536  0.0222
  279loPI   C5A 4459   5.781   3.712   7.542  0.0997  0.1906  0.4039
  279loPI   C6A 4460   5.808   3.469   7.233 -0.0869 -0.0881 -0.1733
  279loPI   C1B 4461   5.533   4.165   8.604 -0.1282  0.1621  0.0285
  279loPI   C2B 4462   5.352   4.038   8.121 -0.1984 -0.1022 -0.2945
  279loPI   C3B 4463   5.652   4.121   7.831 -0.1959 -0.0261 -0.1770
  279loPI   C4B 4464   6.100   4.182   7.676  0.0132  0.2590  0.3445
  280loPI    C1 4465   4.007   9.929   9.956 -0.0349  0.0762  0.0534
  280loPI    C2 4466   3.999  10.144  10.293 -0.1744  0.2488 -0.0576
  280loPI    C3 4467   3.700   9.892  10.210  0.1077 -0.1846  0.1928
  280loPI   PO4 4468   4.101  10.103   9.796  0.3015 -0.0240 -0.0870
  280loPI   GL1 4469   4.110  10.169   9.382  0.0601 -0.1881  0.2003
  280loPI   GL2 4470   4.327  10.101   9.214  0.2298 -0.1713  0.0967
  280loPI   C1A 4471   4.015  10.439   8.942 -0.2650  0.0401  0.3030
  280loPI   C2A 4472   3.946  10.779   8.702 -0.2227 -0.1349 -0.1533
  280loPI   C3A 4473   3.959  10.937   8.330  0.1573  0.2179  0.2905
  280loPI   C4A 4474   3.768  11.003   7.968  0.2151  0.2039  0.0726
  280loPI   C5A 4475   3.625  11.298   7.774  0.1081  0.1049 -0.0255
  280loPI   C6A 4476   3.503  11.318   7.371  0.2110 -0.3992 -0.2349
  280loPI   C1B 4477   4.260  10.086   8.748 -0.0012 -0.2218  0.0134
  280loPI   C2B 4478   4.164  10.291   8.440 -0.0597 -0.1434  0.0007
  280loPI   C3B 4479   4.259  10.480   8.112 -0.2703  0.1679  0.0436
  280loPI   C4B 4480   4.152  10.754   7.876  0.2362 -0.2520  0.1350
  281loPI    C1 4481   3.308  18.667  10.349 -0.0661  0.1063  0.0548
  281loPI    C2 4482   2.998  18.614  10.595 -0.0890  0.0205  0.0077
  281loPI    C3 4483   3.358  18.704  10.744 -0.1059 -0.0166  0.0716
  281loPI   PO4 4484   3.304  18.436  10.217  0.0140  0.1249  0.2878
  281loPI   GL1 4485   3.219  18.280   9.800 -0.1169  0.2261 -0.1404
  281loPI   GL2 4486   3.555  18.163   9.777 -0.1092 -0.1122  0.1711
  281loPI   C1A 4487   3.234  18.173   9.379 -0.2252 -0.0452 -0.0893
  281loPI   C2A 4488   3.253  18.232   8.968  0.0472  0.0908  0.3171
  281loPI   C3A 4489   3.178  18.363   8.547 -0.0252  0.1966  0.0335
  281loPI   C4A 4490   3.369  18.617   8.263 -0.2818 -0.0985 -0.0329
  281loPI   C5A 4491   3.443  18.851   7.869 -0.2115  0.0881 -0.0841
  281loPI   C6A 4492   3.555  19.234   7.749 -0.3748 -0.2863  0.2587
  281loPI   C1B 4493   3.744  18.121   9.392 -0.3271  0.4898 -0.1179
  281loPI   C2B 4494   3.752  18.056   8.870 -0.2137 -0.4019 -0.0464
  281loPI   C3B 4495   3.499  17.999   8.509  0.0817 -0.1498  0.0154
  281loPI   C4B 4496   3.218  18.026   8.097 -0.1709 -0.1132  0.0064
  282loPI    C1 4497   0.078  17.790   9.899 -0.0141 -0.1000  0.0260
  282loPI    C2 4498   0.099  17.723  10.292  0.0802 -0.1369  0.0149
  282loPI    C3 4499  -0.077  18.055  10.155 -0.0144 -0.1575  0.0854
  282loPI   PO4 4500   0.232  17.763   9.819  0.1076  0.1217 -0.0653
  282loPI   GL1 4501   0.305  17.590   9.450  0.1182 -0.1004  0.2234
  282loPI   GL2 4502   0.501  17.442   9.551  0.1059  0.0495  0.0729
  282loPI   C1A 4503   0.248  17.577   9.043  0.5457 -0.2622  0.0496
  282loPI   C2A 4504   0.009  17.693   8.722 -0.0698 -0.0631  0.0920
  282loPI   C3A 4505  -0.250  17.557   8.386 -0.0845 -0.0018 -0.0401
  282loPI   C4A 4506  -0.696  17.420   8.236  0.0013  0.1646 -0.0112
  282loPI   C5A 4507  -0.880  17.082   7.993 -0.0614  0.2565  0.4202
  282loPI   C6A 4508  -0.811  16.675   7.947 -0.1960  0.1735  0.0832
  282loPI   C1B 4509   0.902  17.478   9.365  0.3368 -0.2541  0.3146
  282loPI   C2B 4510   1.164  17.777   9.105 -0.1886 -0.1487 -0.2117
  282loPI   C3B 4511   1.290  18.155   8.999  0.3520  0.3317 -0.0338
  282loPI   C4B 4512   1.158  18.348   8.633 -0.4321 -0.1263 -0.0842
  283loPI    C1 4513  10.958  12.542   9.931 -0.2007  0.0795 -0.3023
  283loPI    C2 4514  10.975  12.495  10.328  0.0285  0.0531 -0.3140
  283loPI    C3 4515  10.630  12.439  10.135 -0.0670 -0.0075 -0.1278
  283loPI   PO4 4516  11.114  12.392   9.817  0.3403  0.0438  0.1309
  283loPI   GL1 4517  11.271  12.196   9.426  0.3146  0.5217 -0.2931
  283loPI   GL2 4518  11.053  11.965   9.547 -0.0711 -0.1508  0.2595
  283loPI   C1A 4519  10.997  12.256   9.038  0.1744  0.0993 -0.1972
  283loPI   C2A 4520  11.216  12.252   8.595  0.1139  0.2701  0.1731
  283loPI   C3A 4521  11.137  12.033   8.278  0.1820 -0.0877 -0.2526
  283loPI   C4A 4522  11.061  11.822   7.899  0.2129 -0.1781 -0.0943
  283loPI   C5A 4523  10.980  11.421   7.758 -0.1292 -0.0061 -0.3628
  283loPI   C6A 4524  10.643  11.198   7.641  0.0198 -0.3240 -0.0393
  283loPI   C1B 4525  11.243  11.823   9.053 -0.5604 -0.0228  0.0902
  283loPI   C2B 4526  11.443  11.844   8.674  0.4475  0.1494  0.1592
  283loPI   C3B 4527  11.601  12.107   8.312 -0.0278  0.0227 -0.2114
  283loPI   C4B 4528  11.484  12.222   7.901  0.0350  0.0335  0.0439
  284loPI    C1 4529  18.448  15.135  10.095  0.1772 -0.0565 -0.0043
  284loPI    C2 4530  18.576  15.338  10.415  0.0747 -0.0864  0.0559
  284loPI    C3 4531  18.396  14.983  10.462  0.0865 -0.1046 -0.0367
  284loPI   PO4 4532  18.350  15.241   9.877 -0.0196  0.2781 -0.3198
  284loPI   GL1 4533  18.733  15.095   9.737  0.0723 -0.0289  0.1511
  284loPI   GL2 4534  18.655  15.324   9.469  0.0347 -0.1007 -0.2875
  284loPI   C1A 4535  18.795  14.741   9.386  0.1981  0.1843  0.2773
  284loPI   C2A 4536  18.787  14.918   8.893  0.1128  0.2495 -0.0094
  284loPI   C3A 4537  18.783  14.864   8.444 -0.2206  0.0011 -0.1586
  284loPI   C4A 4538  18.722  14.970   8.022 -0.1792 -0.0300  0.0632
  284loPI   C5A 4539  18.699  15.381   7.755  0.2552  0.0889  0.0324
  284loPI   C6A 4540  18.944  15.390   7.371  0.3191  0.2327 -0.1475
  284loPI   C1B 4541  18.630  15.352   9.140  0.0609 -0.0658 -0.1068
  284loPI   C2B 4542  18.619  15.355   8.739  0.0855  0.1120 -0.0144
  284loPI   C3B 4543  18.585  15.343   8.343  0.0973  0.1429  0.0168
  284loPI   C4B 4544  18.325  15.544   8.029  0.1294  0.0250 -0.0394
  285loPI    C1 4545  15.174   9.003  10.032 -0.2505 -0.1777  0.0679
  285loPI    C2 4546  15.411   9.269  10.214 -0.1601 -0.1472 -0.0927
  285loPI    C3 4547  15.503   8.880  10.222 -0.1838 -0.1517 -0.0304
  285loPI   PO4 4548  15.153   9.048   9.793 -0.1248  0.0476 -0.2334
  285loPI   GL1 4549  15.114   9.424   9.481 -0.1835  0.1796  0.1194
  285loPI   GL2 4550  14.862   9.625   9.365 -0.2266 -0.0744  0.3015
  285loPI   C1A 4551  15.230   9.321   9.083 -0.2090 -0.0567 -0.1324
  285loPI   C2A 4552  15.272   9.322   8.669  0.1103 -0.1284 -0.0594
  285loPI   C3A 4553  15.431   9.390   8.296 -0.0019  0.0603 -0.0378
  285loPI   C4A 4554  15.245   9.492   7.971 -0.2435 -0.3304 -0.2085
  285loPI   C5A 4555  15.211   9.716   7.545 -0.0364  0.0186 -0.2761
  285loPI   C6A 4556  15.397   9.991   7.130  0.1976 -0.0808  0.3439
  285loPI   C1B 4557  14.725   9.362   9.003  0.0392 -0.0291 -0.1636
  285loPI   C2B 4558  14.743   9.225   8.580 -0.1932 -0.0059 -0.0955
  285loPI   C3B 4559  14.770   9.302   8.211  0.1176 -0.2187  0.2399
  285loPI   C4B 4560  14.868   9.246   7.708  0.0847  0.3576 -0.0574
  286loPI    C1 4561  17.006  10.472   9.868 -0.1254  0.1568  0.1369
  286loPI    C2 4562  17.275  10.313  10.118  0.1314  0.3936  0.0164
  286loPI    C3 4563  16.981  10.544  10.261 -0.1357 -0.0317  0.1716
  286loPI   PO4 4564  16.964  10.332   9.744  0.0376  0.0088  0.0971
  286loPI   GL1 4565  16.994  10.274   9.329  0.0011  0.1383  0.0603
  286loPI   GL2 4566  17.216  10.511   9.199  0.4732 -0.0515 -0.0528
  286loPI   C1A 4567  16.970  10.026   8.953 -0.0350  0.1760  0.0692
  286loPI   C2A 4568  16.874  10.080   8.520  0.0659  0.1030  0.2035
  286loPI   C3A 4569  16.790  10.110   8.167  0.3313  0.0926  0.2272
  286loPI   C4A 4570  16.721  10.263   7.782 -0.1054  0.0090  0.1241
  286loPI   C5A 4571  16.852  10.429   7.358 -0.1024 -0.1560 -0.0790
  286loPI   C6A 4572  16.619  10.871   7.335 -0.0698  0.1215  0.0286
  286loPI   C1B 4573  17.170  10.487   8.761 -0.2464 -0.2745  0.0743
  286loPI   C2B 4574  17.133  10.555   8.185 -0.0630  0.1882  0.0105
  286loPI   C3B 4575  17.215  10.345   7.852  0.0365  0.0433 -0.0100
  286loPI   C4B 4576  17.355  10.493   7.464  0.1585  0.1207 -0.1602
  287loPI    C1 4577  16.755   4.153  10.102  0.0593  0.0062 -0.0466
  287loPI    C2 4578  16.576   4.158  10.460  0.0675  0.2067 -0.0442
  287loPI    C3 4579  16.654   3.809  10.280  0.1818  0.0997  0.2081
  287loPI   PO4 4580  16.639   4.267   9.858  0.2639  0.1712 -0.0505
  287loPI   GL1 4581  16.551   4.283   9.252 -0.2829  0.0355 -0.2360
  287loPI   GL2 4582  16.635   4.036   9.290 -0.0218  0.1138  0.1338
  287loPI   C1A 4583  16.357   4.151   8.861 -0.1318  0.3197  0.3326
  287loPI   C2A 4584  16.323   4.090   8.352 -0.0600  0.1717  0.0911
  287loPI   C3A 4585  16.255   3.939   7.960 -0.2169 -0.1790 -0.0312
  287loPI   C4A 4586  16.237   3.883   7.537  0.2046  0.0294  0.1641
  287loPI   C5A 4587  16.283   3.931   7.121  0.0489 -0.1801  0.0963
  287loPI   C6A 4588  16.089   3.930   6.635  0.0889  0.3018 -0.0891
  287loPI   C1B 4589  16.817   3.935   8.874 -0.1024 -0.1421 -0.0486
  287loPI   C2B 4590  16.806   3.898   8.382  0.1077  0.4669  0.0707
  287loPI   C3B 4591  16.858   3.914   7.870  0.0125  0.1030 -0.3875
  287loPI   C4B 4592  16.660   4.125   7.413 -0.2909 -0.0567 -0.2551
  288loPI    C1 4593   7.797  11.666  10.292 -0.0435  0.3089  0.1516
  288loPI    C2 4594   7.875  11.767  10.672 -0.3712  0.0210  0.3005
  288loPI    C3 4595   7.887  11.383  10.560  0.2406  0.1451 -0.1106
  288loPI   PO4 4596   7.448  11.736  10.218 -0.1486  0.1462 -0.0485
  288loPI   GL1 4597   7.508  11.808   9.730  0.0744 -0.3290 -0.3558
  288loPI   GL2 4598   7.857  11.670   9.585 -0.2735 -0.2035  0.0192
  288loPI   C1A 4599   7.534  12.016   9.330 -0.1278  0.2358  0.0403
  288loPI   C2A 4600   7.529  12.006   8.874  0.0554 -0.1898 -0.1504
  288loPI   C3A 4601   7.694  12.029   8.464 -0.1733  0.1040  0.1883
  288loPI   C4A 4602   7.523  11.810   8.123 -0.0259  0.1164 -0.1706
  288loPI   C5A 4603   7.078  11.605   8.159  0.1992  0.1216  0.2608
  288loPI   C6A 4604   6.760  11.749   8.025 -0.0609  0.0760  0.0847
  288loPI   C1B 4605   7.943  11.802   9.123  0.1352 -0.0875  0.0414
  288loPI   C2B 4606   7.983  11.688   8.749 -0.4905  0.0128  0.2026
  288loPI   C3B 4607   7.975  11.351   8.589 -0.0267  0.1585 -0.2387
  288loPI   C4B 4608   7.902  11.461   8.229 -0.0127 -0.2237 -0.0968
  289loPI    C1 4609  13.883  15.442  10.108 -0.1090 -0.0348  0.2127
  289loPI    C2 4610  14.253  15.593  10.115 -0.0895 -0.0690  0.0023
  289loPI    C3 4611  14.175  15.247  10.300  0.0433 -0.1909 -0.1664
  289loPI   PO4 4612  13.832  15.516   9.850  0.1491 -0.1567  0.1546
  289loPI   GL1 4613  14.085  15.599   9.537  0.0566  0.1949 -0.0459
  289loPI   GL2 4614  13.865  15.679   9.412 -0.0943 -0.0774 -0.0590
  289loPI   C1A 4615  14.321  15.531   9.108 -0.2290  0.1680  0.2484
  289loPI   C2A 4616  14.099  15.464   8.751 -0.0632  0.0037  0.0641
  289loPI   C3A 4617  13.686  15.561   8.682  0.0364 -0.0814 -0.1870
  289loPI   C4A 4618  13.620  15.539   8.235  0.1361  0.0982 -0.1580
  289loPI   C5A 4619  13.601  15.628   7.794  0.0640  0.0675 -0.0794
  289loPI   C6A 4620  13.215  15.941   7.678 -0.3599  0.3305 -0.1194
  289loPI   C1B 4621  13.951  15.849   9.039  0.2179 -0.0937  0.1909
  289loPI   C2B 4622  14.043  15.980   8.681 -0.1665 -0.1366  0.2926
  289loPI   C3B 4623  13.784  16.117   8.310  0.4089 -0.1038  0.1381
  289loPI   C4B 4624  13.859  16.042   7.977 -0.0408  0.2231  0.2606
  290loPI    C1 4625  14.758  13.788  10.139 -0.3069  0.0247  0.2453
  290loPI    C2 4626  14.779  14.008  10.473  0.2505  0.1320  0.1505
  290loPI    C3 4627  15.034  13.704  10.417  0.0102 -0.0318 -0.0781
  290loPI   PO4 4628  14.549  13.824  10.098 -0.1994 -0.0979  0.2629
  290loPI   GL1 4629  14.426  13.712   9.778  0.0636 -0.2814  0.1941
  290loPI   GL2 4630  14.165  13.678   9.584  0.0269 -0.1122 -0.2613
  290loPI   C1A 4631  14.586  13.893   9.348 -0.0520  0.0586  0.1631
  290loPI   C2A 4632  14.613  13.830   8.889 -0.4346 -0.2807 -0.1214
  290loPI   C3A 4633  14.585  13.777   8.405  0.0033  0.2641 -0.0375
  290loPI   C4A 4634  14.713  13.478   8.038  0.0573  0.3104 -0.0967
  290loPI   C5A 4635  14.820  13.521   7.627 -0.2665 -0.0224 -0.3692
  290loPI   C6A 4636  15.031  13.877   7.485 -0.1948  0.0027  0.0751
  290loPI   C1B 4637  14.074  13.566   9.197  0.1197  0.0731  0.0962
  290loPI   C2B 4638  13.926  13.575   8.791 -0.3064 -0.0490  0.1531
  290loPI   C3B 4639  14.058  13.611   8.398  0.4019 -0.0217 -0.0684
  290loPI   C4B 4640  14.230  13.814   7.999  0.1839 -0.0917 -0.1957
  291loPI    C1 4641  11.130   1.668   9.689  0.0127 -0.0269  0.1854
  291loPI    C2 4642  11.422   1.830   9.910  0.0511  0.0960  0.0464
  291loPI    C3 4643  11.047   1.966   9.942  0.0438  0.0660  0.0873
  291loPI   PO4 4644  11.235   1.623   9.486 -0.2520  0.3691 -0.0131
  291loPI   GL1 4645  11.503   1.807   9.173  0.0755  0.1035 -0.0284
  291loPI   GL2 4646  11.508   1.485   9.094  0.0674  0.0482  0.2753
  291loPI   C1A 4647  11.476   2.101   8.855  0.2913  0.0743 -0.1824
  291loPI   C2A 4648  11.477   2.121   8.478  0.1488 -0.0262  0.0498
  291loPI   C3A 4649  11.262   2.333   8.135  0.1829 -0.1538 -0.0037
  291loPI   C4A 4650  11.233   2.372   7.801  0.0228 -0.3819 -0.0955
  291loPI   C5A 4651  11.106   2.346   7.373  0.1904  0.0717  0.3374
  291loPI   C6A 4652  10.926   2.042   7.163 -0.0139 -0.0386  0.3858
  291loPI   C1B 4653  11.562   1.659   8.722  0.0601  0.0237  0.3303
  291loPI   C2B 4654  11.612   1.723   8.247  0.0488  0.2815  0.0473
  291loPI   C3B 4655  11.628   1.988   7.934  0.1856  0.1351 -0.2318
  291loPI   C4B 4656  11.579   2.160   7.472 -0.0761  0.2429  0.1312
  292loPI    C1 4657  18.472  12.578   9.845 -0.0860 -0.1149  0.0860
  292loPI    C2 4658  18.699  12.249   9.826  0.1224  0.0425 -0.2299
  292loPI    C3 4659  18.626  12.422  10.179 -0.0059 -0.3509 -0.0582
  292loPI   PO4 4660  18.513  12.697   9.628 -0.3053  0.1372  0.2181
  292loPI   GL1 4661  18.327  12.939   9.244  0.2540 -0.0060  0.1696
  292loPI   GL2 4662  18.241  12.700   9.182 -0.1499 -0.3306 -0.1724
  292loPI   C1A 4663  18.438  13.318   9.031 -0.0885  0.3639 -0.1637
  292loPI   C2A 4664  18.453  13.420   8.604  0.2734 -0.1900  0.2297
  292loPI   C3A 4665  18.366  13.239   8.336 -0.2485 -0.1860  0.2106
  292loPI   C4A 4666  18.476  13.147   7.942 -0.1700 -0.0840  0.2179
  292loPI   C5A 4667  18.578  13.129   7.451 -0.0514  0.3404 -0.2480
  292loPI   C6A 4668  18.320  12.966   7.056 -0.2201 -0.0870 -0.0482
  292loPI   C1B 4669  18.210  12.886   8.740 -0.1225  0.0127  0.0680
  292loPI   C2B 4670  17.976  12.750   8.381  0.0195  0.0084 -0.0157
  292loPI   C3B 4671  18.051  12.904   7.930  0.0704 -0.4009 -0.0277
  292loPI   C4B 4672  18.349  12.635   8.063 -0.3184  0.0560  0.1336
  293loPI    C1 4673   0.470  10.137   9.747 -0.1111  0.0675  0.1479
  293loPI    C2 4674   0.409  10.192  10.138 -0.0410  0.1919  0.1418
  293loPI    C3 4675   0.760  10.292   9.975  0.0210 -0.0966  0.0934
  293loPI   PO4 4676   0.344   9.908   9.736  0.3250  0.0049  0.3651
  293loPI   GL1 4677   0.339   9.701   9.398  0.0247 -0.0082  0.1432
  293loPI   GL2 4678   0.640   9.845   9.316  0.0871 -0.1073  0.2226
  293loPI   C1A 4679   0.102   9.759   9.037  0.1443  0.1612 -0.0927
  293loPI   C2A 4680  -0.041   9.793   8.582  0.0005 -0.3635 -0.3016
  293loPI   C3A 4681  -0.049   9.991   8.191  0.1976 -0.1843 -0.1127
  293loPI   C4A 4682   0.015  10.014   7.788  0.1334  0.1820  0.0005
  293loPI   C5A 4683   0.226  10.088   7.578 -0.3013 -0.0475 -0.0160
  293loPI   C6A 4684   0.486  10.184   7.252  0.1727 -0.0075 -0.1502
  293loPI   C1B 4685   0.540   9.892   8.861 -0.4138  0.0336 -0.2762
  293loPI   C2B 4686   0.420   9.908   8.393  0.1936  0.0462 -0.0818
  293loPI   C3B 4687   0.483   9.807   7.931  0.1103  0.1752  0.0725
  293loPI   C4B 4688   0.506   9.751   7.480 -0.0514  0.1841 -0.1186
  294loPI    C1 4689   4.793   0.271   9.963 -0.1713  0.0278 -0.0733
  294loPI    C2 4690   5.000   0.290  10.305 -0.0524 -0.1770 -0.1320
  294loPI    C3 4691   4.606   0.219  10.312 -0.1257  0.2186 -0.0194
  294loPI   PO4 4692   4.933   0.580   9.801 -0.0418  0.0786 -0.0433
  294loPI   GL1 4693   5.052   0.737   9.341  0.0592 -0.3070  0.0368
  294loPI   GL2 4694   4.659   0.807   9.425  0.0286 -0.0420  0.2669
  294loPI   C1A 4695   4.965   0.548   8.966 -0.2085 -0.0009 -0.0802
  294loPI   C2A 4696   4.832   0.579   8.572  0.0761 -0.1389 -0.0630
  294loPI   C3A 4697   4.773   0.795   8.214  0.0283 -0.2762 -0.2105
  294loPI   C4A 4698   5.171   0.877   7.891  0.3302 -0.1506  0.1130
  294loPI   C5A 4699   5.397   0.656   7.687 -0.0952 -0.1158  0.0965
  294loPI   C6A 4700   5.478   0.295   7.522 -0.1577  0.2560 -0.1756
  294loPI   C1B 4701   4.568   0.854   8.929 -0.1105 -0.0921  0.2856
  294loPI   C2B 4702   4.416   0.976   8.471 -0.2317 -0.0437  0.2696
  294loPI   C3B 4703   4.432   1.158   8.079  0.0672 -0.1739 -0.0795
  294loPI   C4B 4704   4.428   1.288   7.626  0.0842 -0.3167 -0.0600
  295loPI    C1 4705   7.724   6.076   9.885 -0.1076 -0.2428  0.0113
  295loPI    C2 4706   8.119   6.110   9.835 -0.1604  0.2462 -0.1260
  295loPI    C3 4707   7.967   5.784  10.008  0.2681 -0.1323 -0.4375
  295loPI   PO4 4708   7.676   6.262   9.607 -0.1359 -0.3063  0.0012
  295loPI   GL1 4709   7.732   6.369   9.151  0.0090 -0.0672 -0.3965
  295loPI   GL2 4710   8.043   6.249   8.967 -0.0762 -0.2306  0.0645
  295loPI   C1A 4711   7.770   6.650   8.780 -0.2188  0.1602 -0.3978
  295loPI   C2A 4712   7.835   6.649   8.308  0.1342 -0.3049 -0.0801
  295loPI   C3A 4713   7.928   6.505   7.932  0.2437  0.0624 -0.1447
  295loPI   C4A 4714   8.378   6.432   7.603  0.2502 -0.2040 -0.1070
  295loPI   C5A 4715   8.521   6.512   7.202 -0.1633 -0.1471 -0.1334
  295loPI   C6A 4716   8.718   6.932   7.079  0.0686  0.1908 -0.3906
  295loPI   C1B 4717   8.246   6.355   8.599  0.1063  0.1593  0.1923
  295loPI   C2B 4718   8.337   6.246   8.160 -0.2864 -0.2184 -0.2005
  295loPI   C3B 4719   8.180   6.000   7.844  0.2776 -0.2010  0.0269
  295loPI   C4B 4720   8.186   5.918   7.421 -0.2822  0.3738  0.0482
  296loPI    C1 4721  10.174  11.242  10.063 -0.1186 -0.0136 -0.1530
  296loPI    C2 4722  10.139  10.935  10.316 -0.2741  0.3725  0.3095
  296loPI    C3 4723  10.465  11.166  10.327 -0.0203  0.0602 -0.2392
  296loPI   PO4 4724  10.031  11.136   9.856 -0.0266 -0.0436 -0.3138
  296loPI   GL1 4725   9.810  11.443   9.620  0.0666  0.1737  0.0039
  296loPI   GL2 4726   9.936  11.865   9.433  0.0179 -0.2620 -0.1165
  296loPI   C1A 4727   9.925  11.238   9.206  0.0282  0.3234  0.3677
  296loPI   C2A 4728   9.892  11.403   8.818 -0.0288 -0.0545 -0.2313
  296loPI   C3A 4729   9.787  11.412   8.418 -0.2747 -0.2067  0.3250
  296loPI   C4A 4730   9.902  11.552   8.109 -0.1049  0.3076 -0.1906
  296loPI   C5A 4731   9.566  11.713   7.802 -0.1627  0.1863  0.0668
  296loPI   C6A 4732   9.190  11.432   7.592 -0.0920 -0.1368  0.0346
  296loPI   C1B 4733   9.800  11.896   9.019 -0.2214  0.2044 -0.3748
  296loPI   C2B 4734   9.686  11.873   8.577 -0.1886 -0.0530  0.2792
  296loPI   C3B 4735   9.427  11.815   8.270  0.1002  0.3220  0.1175
  296loPI   C4B 4736   9.161  11.898   7.964  0.3183  0.3543  0.2303
  297loPI    C1 4737   4.540  14.284   9.794 -0.0785  0.2246  0.4331
  297loPI    C2 4738   4.356  14.499   9.511  0.0628 -0.2400 -0.0277
  297loPI    C3 4739   4.179  14.173   9.663  0.1220 -0.1702  0.1954
  297loPI   PO4 4740   4.745  14.412   9.781 -0.0868  0.0179  0.1542
  297loPI   GL1 4741   5.125  14.224   9.570 -0.0474 -0.1336  0.0577
  297loPI   GL2 4742   5.223  14.004   9.624  0.0550 -0.0166  0.3151
  297loPI   C1A 4743   5.127  14.343   9.173  0.1202  0.1064  0.0348
  297loPI   C2A 4744   5.209  14.559   8.757 -0.0100  0.4587  0.0532
  297loPI   C3A 4745   5.357  14.608   8.448 -0.1162 -0.3277  0.0587
  297loPI   C4A 4746   5.534  14.344   8.099 -0.0807  0.3614  0.2088
  297loPI   C5A 4747   5.804  13.904   7.948  0.1693 -0.0400 -0.0962
  297loPI   C6A 4748   6.020  13.489   7.728  0.1407  0.0381 -0.1188
  297loPI   C1B 4749   5.045  13.864   9.241 -0.1530 -0.0697  0.3673
  297loPI   C2B 4750   5.134  13.975   8.837  0.3491  0.2142 -0.1001
  297loPI   C3B 4751   5.030  14.073   8.426  0.0079 -0.0842 -0.1769
  297loPI   C4B 4752   5.315  13.922   8.359 -0.3324 -0.0289  0.3427
  298loPI    C1 4753   9.642  15.287  10.264 -0.0846 -0.1342  0.0178
  298loPI    C2 4754   9.970  15.371  10.477 -0.0516 -0.1682 -0.0195
  298loPI    C3 4755   9.676  15.153  10.639 -0.1415  0.0245  0.0806
  298loPI   PO4 4756   9.735  15.202   9.999 -0.4640  0.4137  0.1187
  298loPI   GL1 4757   9.458  15.015   9.727 -0.4101  0.1284 -0.0157
  298loPI   GL2 4758   9.352  15.258   9.614  0.0714 -0.0982 -0.3480
  298loPI   C1A 4759   9.691  14.868   9.304 -0.1465 -0.0296 -0.0125
  298loPI   C2A 4760   9.731  14.791   8.851  0.0079  0.0514  0.0174
  298loPI   C3A 4761   9.587  14.966   8.380  0.2629  0.1572  0.0991
  298loPI   C4A 4762   9.627  15.268   7.974  0.0203  0.1958  0.1861
  298loPI   C5A 4763   9.437  15.740   7.810  0.3442  0.1605 -0.1102
  298loPI   C6A 4764   9.015  15.836   7.689 -0.2202  0.1127  0.2419
  298loPI   C1B 4765   9.543  15.360   9.309  0.1775 -0.1462 -0.1151
  298loPI   C2B 4766   9.507  15.228   8.893 -0.1589 -0.3043  0.2028
  298loPI   C3B 4767   9.236  15.258   8.525 -0.0359  0.0365 -0.0102
  298loPI   C4B 4768   9.094  14.921   8.290 -0.0493  0.2241  0.3810
  299loPI    C1 4769   0.920   9.257   9.888 -0.1111 -0.0802  0.0550
  299loPI    C2 4770   1.029   8.914   9.712  0.2872  0.0564  0.0253
  299loPI    C3 4771   0.979   8.929  10.109  0.2249 -0.0455  0.0217
  299loPI   PO4 4772   0.736   9.326   9.728  0.0889  0.1575 -0.2050
  299loPI   GL1 4773   0.691   9.188   9.423 -0.2370  0.5125  0.1451
  299loPI   GL2 4774   0.677   8.884   9.371  0.1119 -0.2069  0.1662
  299loPI   C1A 4775   0.388   9.362   9.064 -0.0820 -0.0313  0.0032
  299loPI   C2A 4776   0.329   9.414   8.681  0.1468 -0.0264 -0.0658
  299loPI   C3A 4777   0.189   9.394   8.290  0.2575  0.0753  0.1154
  299loPI   C4A 4778   0.093   9.512   7.848 -0.1230 -0.2016 -0.1222
  299loPI   C5A 4779   0.012   9.700   7.385 -0.2085 -0.3145 -0.1350
  299loPI   C6A 4780   0.081   9.934   7.032 -0.3716 -0.1301  0.0801
  299loPI   C1B 4781   0.758   8.951   8.966  0.2458  0.1661  0.0819
  299loPI   C2B 4782   0.718   9.121   8.648 -0.1053 -0.1368 -0.4262
  299loPI   C3B 4783   0.815   9.239   8.252  0.0505 -0.2468  0.2381
  299loPI   C4B 4784   0.793   9.387   7.851  0.1028  0.1024  0.2674
  300loPI    C1 4785  13.610   0.153   9.901  0.1082 -0.1070  0.0060
  300loPI    C2 4786  13.400   0.104  10.238 -0.1827 -0.0663 -0.1660
  300loPI    C3 4787  13.634  -0.191  10.103 -0.2349 -0.1640 -0.0448
  300loPI   PO4 4788  13.597   0.213   9.716 -0.0486  0.2856 -0.3157
  300loPI   GL1 4789  13.330   0.291   9.296  0.1708 -0.0468 -0.2769
  300loPI   GL2 4790  13.277  -0.022   9.362 -0.1018  0.1932  0.0449
  300loPI   C1A 4791  13.360   0.268   8.843 -0.1749 -0.2068  0.2983
  300loPI   C2A 4792  13.452   0.255   8.366 -0.0508 -0.0620 -0.3040
  300loPI   C3A 4793  13.561   0.528   7.896  0.0635 -0.3863 -0.1903
  300loPI   C4A 4794  13.768   0.846   7.654 -0.1936  0.0706  0.2613
  300loPI   C5A 4795  13.591   0.943   7.272 -0.4129  0.2433 -0.3307
  300loPI   C6A 4796  13.182   0.626   7.277  0.1574 -0.1273 -0.2970
  300loPI   C1B 4797  13.531  -0.113   9.000  0.1574  0.1966  0.1130
  300loPI   C2B 4798  13.689  -0.098   8.650  0.2983 -0.1384  0.2063
  300loPI   C3B 4799  13.686  -0.208   8.300 -0.1734  0.1458  0.2033
  300loPI   C4B 4800  13.582   0.048   7.825  0.3561  0.1790 -0.2400
  301loPI    C1 4801   7.357   4.750   9.820 -0.0979  0.2089  0.0009
  301loPI    C2 4802   7.717   4.717   9.992 -0.1745  0.0237  0.1295
  301loPI    C3 4803   7.590   5.073   9.862  0.0516  0.0915  0.0887
  301loPI   PO4 4804   7.432   4.480   9.640 -0.2719 -0.2161 -0.1823
  301loPI   GL1 4805   7.430   4.554   9.199  0.0494  0.3074 -0.0791
  301loPI   GL2 4806   7.100   4.407   9.296  0.1005 -0.0137 -0.2996
  301loPI   C1A 4807   7.325   4.556   8.833 -0.0222  0.0765 -0.2098
  301loPI   C2A 4808   7.402   4.575   8.408 -0.3556  0.3184 -0.1333
  301loPI   C3A 4809   7.534   4.529   7.935  0.1268  0.0274  0.1296
  301loPI   C4A 4810   7.635   4.599   7.518 -0.0453  0.1700 -0.1561
  301loPI   C5A 4811   7.873   4.805   7.298  0.1610  0.0215 -0.0624
  301loPI   C6A 4812   8.082   4.663   6.807 -0.2145  0.2428 -0.0808
  301loPI   C1B 4813   6.890   4.321   8.908  0.3326 -0.0656  0.2140
  301loPI   C2B 4814   6.920   4.336   8.457  0.2988 -0.3395  0.2011
  301loPI   C3B 4815   7.152   4.262   8.079 -0.1789 -0.2861  0.0863
  301loPI   C4B 4816   7.336   4.148   7.693 -0.1031 -0.0110  0.1571
  302loPI    C1 4817  12.040   5.025   9.980 -0.0829  0.0670 -0.1120
  302loPI    C2 4818  12.216   5.029  10.339 -0.0691 -0.0613 -0.1168
  302loPI    C3 4819  11.855   5.195  10.291  0.0595  0.2258 -0.1128
  302loPI   PO4 4820  12.155   4.792   9.863 -0.2672  0.0861 -0.2203
  302loPI   GL1 4821  12.303   4.647   9.499 -0.2593  0.1506  0.1279
  302loPI   GL2 4822  12.650   4.752   9.367  0.0798 -0.0236  0.3236
  302loPI   C1A 4823  12.275   4.912   9.088 -0.0065  0.0731 -0.4411
  302loPI   C2A 4824  12.454   4.864   8.767  0.1209 -0.1403 -0.1501
  302loPI   C3A 4825  12.253   4.831   8.305  0.1333  0.0706  0.2705
  302loPI   C4A 4826  12.075   4.899   7.820  0.0793  0.1257  0.1941
  302loPI   C5A 4827  12.012   4.908   7.375  0.1032  0.0328  0.0338
  302loPI   C6A 4828  11.575   4.954   7.054 -0.0405 -0.2203 -0.0918
  302loPI   C1B 4829  12.798   4.604   9.033  0.2102 -0.0151  0.1487
  302loPI   C2B 4830  12.785   4.516   8.581 -0.1643 -0.0549  0.0429
  302loPI   C3B 4831  12.564   4.429   8.151  0.3157  0.0123 -0.1349
  302loPI   C4B 4832  12.172   4.418   7.864  0.0431  0.2331 -0.0017
  303loPI    C1 4833   1.734   6.558  10.007 -0.0079  0.1916  0.0070
  303loPI    C2 4834   1.953   6.355  10.273  0.1467 -0.0829 -0.3220
  303loPI    C3 4835   1.857   6.737  10.343  0.1253 -0.1694  0.1556
  303loPI   PO4 4836   1.802   6.508   9.748 -0.0793 -0.2551  0.1206
  303loPI   GL1 4837   1.562   6.335   9.373 -0.1067  0.2065  0.1723
  303loPI   GL2 4838   1.496   5.983   9.276 -0.1949 -0.0596 -0.3820
  303loPI   C1A 4839   1.409   6.602   9.075  0.0036  0.0011  0.0619
  303loPI   C2A 4840   1.535   6.746   8.574  0.0052  0.1736 -0.0372
  303loPI   C3A 4841   1.451   7.069   8.294  0.0832  0.2414 -0.1608
  303loPI   C4A 4842   1.261   7.015   7.925  0.0506 -0.0246 -0.1867
  303loPI   C5A 4843   1.010   7.013   7.522  0.2627  0.2883  0.2406
  303loPI   C6A 4844   1.154   6.828   7.168  0.2263 -0.4159  0.2257
  303loPI   C1B 4845   1.455   6.084   8.835 -0.0256 -0.0922  0.0592
  303loPI   C2B 4846   1.200   6.417   8.635 -0.3338  0.0750  0.0155
  303loPI   C3B 4847   1.020   6.729   8.294 -0.0790 -0.1861 -0.0322
  303loPI   C4B 4848   0.796   6.854   7.968  0.0970 -0.0292 -0.1256
  304loPI    C1 4849   5.099   2.987   9.964  0.1121 -0.1255  0.2010
  304loPI    C2 4850   4.752   2.890  10.140  0.0556  0.0712  0.1999
  304loPI    C3 4851   5.072   2.978  10.363  0.0786 -0.0148  0.2014
  304loPI   PO4 4852   5.008   3.146   9.731 -0.2084 -0.0137 -0.1463
  304loPI   GL1 4853   4.864   3.101   9.393  0.3274 -0.1941  0.2606
  304loPI   GL2 4854   4.983   2.731   9.336 -0.0873  0.2619  0.0421
  304loPI   C1A 4855   5.126   3.155   8.965 -0.4499 -0.1696 -0.0428
  304loPI   C2A 4856   5.090   3.142   8.463  0.0766 -0.1061  0.2440
  304loPI   C3A 4857   5.159   3.085   7.979  0.1226  0.1132  0.1095
  304loPI   C4A 4858   5.108   2.939   7.500  0.0390 -0.0584  0.2066
  304loPI   C5A 4859   4.708   2.705   7.450 -0.1537  0.0119  0.2408
  304loPI   C6A 4860   4.342   2.651   7.140 -0.1192 -0.1963 -0.2066
  304loPI   C1B 4861   4.866   2.606   8.943 -0.5640 -0.0106  0.1848
  304loPI   C2B 4862   4.976   2.637   8.502  0.2964 -0.0736 -0.0122
  304loPI   C3B 4863   5.190   2.587   8.205  0.1211  0.0490  0.0905
  304loPI   C4B 4864   5.413   2.657   7.859 -0.2560 -0.2776  0.0801
  305loPI    C1 4865   5.905   6.854   9.611  0.0552  0.0102 -0.1344
  305loPI    C2 4866   5.773   6.917   9.239  0.0818  0.1951 -0.1137
  305loPI    C3 4867   5.585   6.655   9.477 -0.1298  0.3120 -0.1500
  305loPI   PO4 4868   5.994   7.089   9.663  0.2419 -0.0100 -0.1050
  305loPI   GL1 4869   5.975   7.358   9.215  0.1680 -0.2276  0.1434
  305loPI   GL2 4870   6.115   7.684   9.178 -0.0976  0.0931  0.1402
  305loPI   C1A 4871   5.801   7.419   8.785  0.0628  0.0148 -0.0602
  305loPI   C2A 4872   5.595   7.704   8.523 -0.0720 -0.1712  0.1678
  305loPI   C3A 4873   5.586   7.869   8.083  0.0875  0.1322 -0.2210
  305loPI   C4A 4874   5.650   8.070   7.702 -0.0273  0.1499  0.1061
  305loPI   C5A 4875   5.631   7.818   7.333  0.1055  0.1079  0.1009
  305loPI   C6A 4876   5.696   7.484   7.209 -0.0133 -0.0307 -0.2898
  305loPI   C1B 4877   6.232   7.707   8.735  0.2662  0.0729  0.1468
  305loPI   C2B 4878   6.106   7.665   8.414  0.2239 -0.2361 -0.0800
  305loPI   C3B 4879   5.916   7.537   8.144  0.5042 -0.0266  0.1625
  305loPI   C4B 4880   5.779   7.414   7.749  0.1478 -0.2486  0.3438
  306loPI    C1 4881   0.561  14.585   9.879 -0.2321 -0.0367 -0.2522
  306loPI    C2 4882   0.359  14.254   9.783 -0.2177 -0.0290 -0.3093
  306loPI    C3 4883   0.189  14.612   9.734 -0.2818 -0.0333 -0.1255
  306loPI   PO4 4884   0.757  14.584   9.842 -0.0603 -0.1499  0.2496
  306loPI   GL1 4885   0.826  14.732   9.407  0.1180 -0.1954 -0.0123
  306loPI   GL2 4886   1.161  14.618   9.522 -0.1972  0.2739  0.0414
  306loPI   C1A 4887   0.736  14.484   9.017  0.0080 -0.3611  0.1635
  306loPI   C2A 4888   0.619  14.358   8.687 -0.0925 -0.0425  0.0604
  306loPI   C3A 4889   0.462  14.393   8.364  0.0319 -0.1114  0.0140
  306loPI   C4A 4890   0.326  14.714   8.122  0.1472  0.1665 -0.1277
  306loPI   C5A 4891   0.128  14.729   7.729 -0.2754  0.0773 -0.1479
  306loPI   C6A 4892  -0.135  14.905   7.545 -0.1465 -0.1354 -0.1446
  306loPI   C1B 4893   1.216  14.491   9.127  0.1371 -0.0446  0.2903
  306loPI   C2B 4894   1.132  14.499   8.677 -0.0408 -0.1281 -0.1086
  306loPI   C3B 4895   0.870  14.680   8.315 -0.1824 -0.2013  0.1530
  306loPI   C4B 4896   0.956  14.711   7.903  0.0878 -0.0145 -0.5428
  307loPI    C1 4897  13.116   8.576   9.623 -0.1115 -0.0393 -0.0758
  307loPI    C2 4898  13.373   8.274   9.684 -0.2554 -0.1616 -0.0692
  307loPI    C3 4899  13.179   8.438   9.994 -0.1469 -0.0343 -0.0678
  307loPI   PO4 4900  13.327   8.785   9.498  0.0662  0.2649 -0.0500
  307loPI   GL1 4901  13.524   8.654   9.169 -0.3462 -0.1537 -0.2874
  307loPI   GL2 4902  13.538   9.018   9.137  0.0583  0.0537  0.0286
  307loPI   C1A 4903  13.544   8.695   8.755  0.1036  0.0830 -0.0990
  307loPI   C2A 4904  13.473   8.646   8.327 -0.3033  0.2929 -0.1675
  307loPI   C3A 4905  13.274   8.729   7.966 -0.0835 -0.3867  0.1206
  307loPI   C4A 4906  13.280   8.949   7.635  0.1129 -0.2396  0.1217
  307loPI   C5A 4907  13.334   9.078   7.158  0.0694 -0.3597 -0.1344
  307loPI   C6A 4908  12.979   8.901   6.864 -0.0282 -0.0977  0.1618
  307loPI   C1B 4909  13.454   9.224   8.737 -0.3093 -0.0912  0.3585
  307loPI   C2B 4910  13.645   9.153   8.336  0.3136  0.0253 -0.0071
  307loPI   C3B 4911  13.782   8.981   7.922 -0.0057 -0.1278 -0.2909
  307loPI   C4B 4912  13.744   9.200   7.560  0.0716  0.1331 -0.3544
  308loPI    C1 4913   3.393   0.401  10.174 -0.0243  0.1433  0.1387
  308loPI    C2 4914   3.263   0.197  10.493 -0.3310  0.1259  0.0057
  308loPI    C3 4915   3.567   0.454  10.531 -0.2791  0.0273  0.2832
  308loPI   PO4 4916   3.360   0.187  10.030 -0.1255  0.0143 -0.1437
  308loPI   GL1 4917   3.030  -0.005  10.037  0.2468  0.0200 -0.5165
  308loPI   GL2 4918   2.738   0.040   9.895 -0.0151  0.0550  0.1684
  308loPI   C1A 4919   3.112  -0.219   9.578  0.2855  0.1875  0.1207
  308loPI   C2A 4920   3.108  -0.200   9.094  0.3894  0.0115  0.1418
  308loPI   C3A 4921   2.831  -0.155   8.686  0.1062  0.1170  0.1904
  308loPI   C4A 4922   2.888  -0.022   8.238 -0.3561 -0.2226  0.1040
  308loPI   C5A 4923   2.448   0.144   7.832  0.1474  0.1142  0.0563
  308loPI   C6A 4924   2.110   0.406   7.686 -0.1164  0.1027  0.1248
  308loPI   C1B 4925   2.613   0.100   9.550 -0.2325  0.0220  0.2290
  308loPI   C2B 4926   2.496  -0.022   9.093 -0.3457 -0.3850  0.4229
  308loPI   C3B 4927   2.325   0.093   8.694  0.1808 -0.2582 -0.2006
  308loPI   C4B 4928   2.349  -0.150   8.256 -0.5191 -0.1667 -0.0161
  309loPI    C1 4929   7.112  14.364  10.573 -0.0394  0.0600  0.0083
  309loPI    C2 4930   6.878  14.490  10.872 -0.0899 -0.2123  0.0865
  309loPI    C3 4931   7.191  14.253  10.949  0.0222 -0.1120 -0.0544
  309loPI   PO4 4932   7.004  14.596  10.354  0.2719  0.2437 -0.1042
  309loPI   GL1 4933   7.078  14.800   9.952 -0.0693 -0.0841  0.1360
  309loPI   GL2 4934   7.446  14.859   9.901 -0.0773 -0.0314 -0.0692
  309loPI   C1A 4935   7.027  14.604   9.581 -0.0474 -0.0711 -0.2046
  309loPI   C2A 4936   6.963  14.782   9.123  0.0567 -0.0055  0.2051
  309loPI   C3A 4937   7.129  15.174   9.007  0.2429 -0.1059  0.1101
  309loPI   C4A 4938   7.160  15.355   8.650  0.1130  0.1202  0.2035
  309loPI   C5A 4939   7.438  15.271   8.314  0.1148  0.1719 -0.0609
  309loPI   C6A 4940   7.695  14.883   8.255 -0.0336 -0.0694  0.0443
  309loPI   C1B 4941   7.764  14.896   9.593 -0.0484 -0.1749  0.0512
  309loPI   C2B 4942   8.023  15.173   9.335 -0.3328 -0.1495 -0.2807
  309loPI   C3B 4943   7.915  15.406   9.054  0.1283 -0.0663  0.1873
  309loPI   C4B 4944   7.568  15.556   8.776  0.2532  0.1679 -0.1539
  310loPI    C1 4945   1.455   3.774   9.876 -0.1076 -0.3244  0.1477
  310loPI    C2 4946   1.072   3.808   9.988 -0.1135  0.2206 -0.0103
  310loPI    C3 4947   1.351   4.038  10.158  0.1041  0.0179 -0.0879
  310loPI   PO4 4948   1.398   3.862   9.522  0.0596  0.0627  0.1163
  310loPI   GL1 4949   1.370   3.779   9.079  0.2267  0.0059 -0.0203
  310loPI   GL2 4950   1.290   3.747   8.717 -0.3357 -0.1046  0.0906
  310loPI   C1A 4951   1.299   3.298   9.052 -0.0657  0.0194  0.0666
  310loPI   C2A 4952   1.563   2.932   9.006  0.3722 -0.1096  0.0052
  310loPI   C3A 4953   1.792   2.591   8.808 -0.1408  0.1554 -0.1230
  310loPI   C4A 4954   1.791   2.372   8.477  0.0699  0.0273 -0.2345
  310loPI   C5A 4955   1.597   2.537   8.083  0.0055  0.0611  0.2322
  310loPI   C6A 4956   1.421   2.764   7.729 -0.1687  0.0612 -0.0921
  310loPI   C1B 4957   1.575   3.780   8.252 -0.3146  0.1163  0.0619
  310loPI   C2B 4958   1.855   3.926   8.000  0.0028 -0.0845  0.2989
  310loPI   C3B 4959   2.106   4.024   7.677 -0.3360 -0.1104  0.0749
  310loPI   C4B 4960   2.392   4.294   7.557 -0.2126  0.3073 -0.0813
  311loPI    C1 4961  14.369  14.605   9.907 -0.1648  0.3686 -0.2793
  311loPI    C2 4962  14.249  14.810  10.229 -0.0410  0.1224 -0.0731
  311loPI    C3 4963  14.428  14.455  10.273  0.0469  0.1213 -0.4117
  311loPI   PO4 4964  14.272  14.701   9.653 -0.2579 -0.0762 -0.1338
  311loPI   GL1 4965  14.538  14.703   9.382  0.2010 -0.0558 -0.2656
  311loPI   GL2 4966  14.749  14.512   9.485  0.0067 -0.0831 -0.0221
  311loPI   C1A 4967  14.810  14.707   9.049 -0.0353  0.2474 -0.0942
  311loPI   C2A 4968  14.970  14.854   8.676  0.1367  0.1657 -0.0886
  311loPI   C3A 4969  14.931  15.193   8.408  0.5905 -0.0474  0.1626
  311loPI   C4A 4970  15.102  15.332   8.030  0.5250 -0.0659  0.2972
  311loPI   C5A 4971  15.167  15.899   7.990 -0.2981 -0.1114  0.1742
  311loPI   C6A 4972  15.414  16.159   7.626  0.0163 -0.0932 -0.2387
  311loPI   C1B 4973  15.007  14.232   9.211  0.2172 -0.2248 -0.1810
  311loPI   C2B 4974  14.887  14.183   8.831 -0.1582 -0.0562 -0.2614
  311loPI   C3B 4975  14.947  14.203   8.402 -0.0287  0.0143  0.0216
  311loPI   C4B 4976  14.810  14.166   8.054 -0.0410 -0.1539 -0.0210
  312loPI    C1 4977   1.456  14.903  10.055 -0.0954  0.0818 -0.1742
  312loPI    C2 4978   1.220  14.581  10.063  0.0213 -0.0025 -0.0723
  312loPI    C3 4979   1.261  14.807  10.390  0.0877  0.0077 -0.0877
  312loPI   PO4 4980   1.403  15.028   9.770  0.0621  0.3039 -0.3843
  312loPI   GL1 4981   1.617  14.751   9.424  0.1647 -0.1266 -0.1245
  312loPI   GL2 4982   1.761  14.452   9.401  0.0084  0.2418  0.2138
  312loPI   C1A 4983   1.523  14.825   9.016 -0.1432 -0.0068  0.0556
  312loPI   C2A 4984   1.457  14.881   8.623 -0.2730 -0.2390 -0.1039
  312loPI   C3A 4985   1.467  14.834   8.149 -0.0750  0.0766 -0.1929
  312loPI   C4A 4986   1.406  14.659   7.742 -0.1526 -0.0363 -0.0438
  312loPI   C5A 4987   1.000  14.779   7.405  0.1002 -0.0103  0.1305
  312loPI   C6A 4988   0.790  14.633   7.009 -0.0059  0.0822  0.1261
  312loPI   C1B 4989   2.014  14.249   9.098  0.1365  0.0312  0.0097
  312loPI   C2B 4990   2.358  14.330   8.912  0.0567 -0.3623  0.1322
  312loPI   C3B 4991   2.334  14.232   8.477 -0.1430  0.0675  0.0069
  312loPI   C4B 4992   2.476  14.197   7.999 -0.1617 -0.2362 -0.1546
  313loPI    C1 4993   3.204   7.580  10.004 -0.1306 -0.0016 -0.3047
  313loPI    C2 4994   2.866   7.407   9.878 -0.2260 -0.0898  0.0631
  313loPI    C3 4995   2.901   7.525  10.259  0.1011  0.0618 -0.0107
  313loPI   PO4 4996   3.288   7.761   9.718  0.2394 -0.3934 -0.2265
  313loPI   GL1 4997   3.204   7.596   9.391 -0.0822  0.2802 -0.2557
  313loPI   GL2 4998   3.257   7.317   9.526 -0.3116 -0.0885  0.2620
  313loPI   C1A 4999   3.063   7.684   8.925  0.0153 -0.0719 -0.0880
  313loPI   C2A 5000   3.040   7.539   8.441  0.0487  0.1905 -0.3094
  313loPI   C3A 5001   2.924   7.490   8.044 -0.4206 -0.0535  0.2204
  313loPI   C4A 5002   2.855   7.881   7.751  0.1022 -0.1512 -0.0448
  313loPI   C5A 5003   2.651   8.344   7.748 -0.0724 -0.0588  0.4250
  313loPI   C6A 5004   2.950   8.793   7.513  0.2878  0.0688 -0.1404
  313loPI   C1B 5005   3.147   7.088   9.111  0.2192 -0.1277  0.2538
  313loPI   C2B 5006   3.127   7.042   8.690 -0.4396 -0.0719  0.0221
  313loPI   C3B 5007   3.047   6.945   8.221  0.0134 -0.0233  0.2228
  313loPI   C4B 5008   2.974   6.558   7.868  0.2012 -0.3304 -0.1144
  314loPI    C1 5009  14.511   9.803   9.826 -0.0578 -0.1387  0.2585
  314loPI    C2 5010  14.285  10.113   9.938  0.2517  0.2681 -0.2020
  314loPI    C3 5011  14.618  10.025  10.141  0.1311  0.1941 -0.0336
  314loPI   PO4 5012  14.514   9.844   9.620  0.0408  0.0055  0.1315
  314loPI   GL1 5013  14.266  10.069   9.416 -0.0874 -0.0533  0.1471
  314loPI   GL2 5014  13.982  10.055   9.201  0.0966 -0.4659 -0.2178
  314loPI   C1A 5015  14.551  10.010   8.991  0.0233 -0.1296 -0.2288
  314loPI   C2A 5016  14.304   9.880   8.635  0.0069 -0.1216  0.1725
  314loPI   C3A 5017  14.357   9.620   8.196  0.0522 -0.2988 -0.3732
  314loPI   C4A 5018  14.396   9.462   7.832 -0.1773  0.1627  0.0732
  314loPI   C5A 5019  14.385   9.249   7.511  0.0740  0.0189 -0.0836
  314loPI   C6A 5020  14.112   8.845   7.533  0.0010  0.0226  0.0531
  314loPI   C1B 5021  13.857  10.096   8.782 -0.0875  0.1626  0.1968
  314loPI   C2B 5022  13.714  10.105   8.332 -0.1235  0.0488 -0.2567
  314loPI   C3B 5023  13.570  10.057   7.921 -0.0694 -0.0690  0.1880
  314loPI   C4B 5024  13.363  10.225   7.576  0.0952  0.0377 -0.4669
  315loPI    C1 5025   2.765  17.345  10.118  0.0989  0.0286 -0.2164
  315loPI    C2 5026   3.098  17.252  10.320 -0.0835  0.2931  0.2216
  315loPI    C3 5027   2.817  16.974  10.258  0.1938  0.0788 -0.1170
  315loPI   PO4 5028   2.815  17.430   9.889 -0.0727  0.3024 -0.1161
  315loPI   GL1 5029   2.917  17.432   9.526 -0.4323  0.4090  0.0502
  315loPI   GL2 5030   2.971  17.040   9.351 -0.2167 -0.1966  0.1311
  315loPI   C1A 5031   2.957  17.418   9.081  0.2177  0.4180 -0.1851
  315loPI   C2A 5032   2.968  17.422   8.653 -0.2445  0.1514 -0.1203
  315loPI   C3A 5033   3.095  17.433   8.404  0.0250  0.3127 -0.0637
  315loPI   C4A 5034   3.244  17.415   7.999 -0.1010  0.0021  0.3216
  315loPI   C5A 5035   3.640  17.734   7.886 -0.0191 -0.2153  0.0997
  315loPI   C6A 5036   3.956  18.101   7.601  0.4760 -0.2181 -0.1583
  315loPI   C1B 5037   2.949  16.922   8.890 -0.1675  0.0510  0.0245
  315loPI   C2B 5038   3.025  16.932   8.416 -0.1039  0.3769  0.3776
  315loPI   C3B 5039   2.991  16.995   8.044  0.2792  0.1936 -0.2070
  315loPI   C4B 5040   3.225  17.024   7.715  0.2421  0.1532  0.1880
  316loPI    C1 5041   6.462  12.459  10.330 -0.0336  0.1860 -0.1099
  316loPI    C2 5042   6.755  12.193  10.276  0.1013  0.3259 -0.0746
  316loPI    C3 5043   6.542  12.188  10.614 -0.0084  0.1571 -0.1446
  316loPI   PO4 5044   6.284  12.465  10.095  0.3435 -0.0424 -0.1552
  316loPI   GL1 5045   6.255  12.443   9.684 -0.1475  0.0959 -0.0653
  316loPI   GL2 5046   6.101  12.701   9.584 -0.0882 -0.1630  0.1020
  316loPI   C1A 5047   6.668  12.318   9.428 -0.1450 -0.2398 -0.2972
  316loPI   C2A 5048   6.947  12.187   9.127 -0.1562  0.0855 -0.1654
  316loPI   C3A 5049   6.903  12.351   8.734  0.0103  0.0307  0.1808
  316loPI   C4A 5050   6.679  12.273   8.332 -0.0454 -0.1008  0.0786
  316loPI   C5A 5051   6.732  12.242   7.839 -0.1361 -0.1960  0.1329
  316loPI   C6A 5052   6.547  12.244   7.448 -0.2848  0.1490  0.1789
  316loPI   C1B 5053   5.909  12.802   9.203 -0.1620 -0.1039 -0.2592
  316loPI   C2B 5054   6.049  12.730   8.789 -0.1132  0.0318  0.3689
  316loPI   C3B 5055   6.469  12.802   8.634  0.0105 -0.2785 -0.1122
  316loPI   C4B 5056   6.308  12.584   8.286  0.2685 -0.0777  0.1366
  317loPI    C1 5057  12.689   2.816   9.995 -0.0887 -0.1323  0.1706
  317loPI    C2 5058  12.392   3.014  10.177 -0.0670  0.1148 -0.0585
  317loPI    C3 5059  12.748   3.190  10.123  0.0813 -0.1321  0.0940
  317loPI   PO4 5060  12.568   2.642   9.730 -0.4545  0.1037 -0.0959
  317loPI   GL1 5061  12.641   2.373   9.415  0.0682 -0.1488 -0.0969
  317loPI   GL2 5062  12.776   2.115   9.407  0.0613  0.0614 -0.0721
  317loPI   C1A 5063  12.463   2.516   8.955 -0.0599 -0.0652 -0.0442
  317loPI   C2A 5064  12.247   2.542   8.503 -0.0074 -0.1988 -0.0162
  317loPI   C3A 5065  12.318   2.632   8.084  0.1931  0.1609 -0.0382
  317loPI   C4A 5066  12.530   2.636   7.718 -0.0171  0.0803 -0.3006
  317loPI   C5A 5067  12.307   2.653   7.375  0.3112  0.0645  0.2371
  317loPI   C6A 5068  12.034   2.892   7.189 -0.1071 -0.0946  0.1300
  317loPI   C1B 5069  13.029   1.915   8.983 -0.0134 -0.0723 -0.0992
  317loPI   C2B 5070  13.036   1.929   8.559 -0.1549 -0.1970 -0.0779
  317loPI   C3B 5071  13.099   2.204   8.291  0.1291 -0.1392  0.0397
  317loPI   C4B 5072  13.296   2.213   7.953 -0.1929  0.0355  0.2385
  318loPI    C1 5073  14.687  12.731  10.261 -0.2113 -0.1987 -0.0759
  318loPI    C2 5074  14.660  12.900  10.623  0.0091  0.1062 -0.1969
  318loPI    C3 5075  14.970  12.662  10.536  0.0447  0.1674 -0.2384
  318loPI   PO4 5076  14.500  12.634  10.172  0.2794  0.4106  0.0771
  318loPI   GL1 5077  14.332  12.382   9.866 -0.1150  0.2076  0.0994
  318loPI   GL2 5078  14.160  12.114   9.845  0.1048  0.0021 -0.2352
  318loPI   C1A 5079  14.186  12.485   9.370  0.2600  0.2894 -0.0589
  318loPI   C2A 5080  14.101  12.399   8.907  0.1402  0.0934 -0.0372
  318loPI   C3A 5081  13.942  12.339   8.558  0.0071 -0.2774 -0.1177
  318loPI   C4A 5082  13.828  12.300   8.084  0.1863  0.0891 -0.1218
  318loPI   C5A 5083  13.889  12.108   7.755  0.1886  0.1536  0.1562
  318loPI   C6A 5084  13.733  11.723   7.644 -0.1898  0.1832 -0.2628
  318loPI   C1B 5085  14.280  11.971   9.440 -0.0212  0.0520 -0.0147
  318loPI   C2B 5086  14.222  11.912   9.019  0.1853 -0.2458  0.3075
  318loPI   C3B 5087  14.311  11.930   8.547  0.0439 -0.1296  0.1428
  318loPI   C4B 5088  14.324  12.249   8.184 -0.1846 -0.2256  0.1102
  319loPI    C1 5089   1.503   7.754   9.949 -0.2143  0.1037  0.1751
  319loPI    C2 5090   1.546   8.149   9.997 -0.2744  0.0972  0.2830
  319loPI    C3 5091   1.293   7.944  10.231 -0.2022 -0.0140  0.2643
  319loPI   PO4 5092   1.351   7.698   9.716  0.0081 -0.1227 -0.4710
  319loPI   GL1 5093   1.371   7.382   9.394  0.0998  0.0553  0.0309
  319loPI   GL2 5094   1.240   7.117   9.257 -0.3262  0.2680  0.0621
  319loPI   C1A 5095   1.330   7.402   8.906 -0.0476  0.0211  0.1323
  319loPI   C2A 5096   1.173   7.567   8.510  0.1278  0.3887  0.0442
  319loPI   C3A 5097   0.826   7.753   8.157  0.0577  0.0202  0.1639
  319loPI   C4A 5098   0.895   7.980   7.791  0.0466 -0.4080 -0.0242
  319loPI   C5A 5099   1.148   7.869   7.419  0.2340  0.1134  0.0597
  319loPI   C6A 5100   1.161   7.853   7.063  0.2389  0.0070  0.2405
  319loPI   C1B 5101   1.054   6.920   8.831  0.1937 -0.4832  0.1510
  319loPI   C2B 5102   0.846   7.159   8.509 -0.0017 -0.1627 -0.0326
  319loPI   C3B 5103   0.627   7.282   8.171  0.0776  0.3109 -0.0254
  319loPI   C4B 5104   0.881   7.400   7.839 -0.0764 -0.1809  0.0914
  320loPI    C1 5105  18.478  11.121   9.959  0.0491  0.1014 -0.0370
  320loPI    C2 5106  18.372  11.233  10.328  0.0228  0.1100 -0.0472
  320loPI    C3 5107  18.101  11.231  10.034  0.0555  0.1516 -0.0779
  320loPI   PO4 5108  18.676  11.212   9.805  0.0657 -0.3944 -0.0879
  320loPI   GL1 5109  18.972  11.020   9.549  0.0088 -0.2843  0.0342
  320loPI   GL2 5110  18.673  10.972   9.327  0.0856  0.0470  0.0316
  320loPI   C1A 5111  19.191  11.031   9.146  0.0004  0.4650 -0.2143
  320loPI   C2A 5112  19.255  11.054   8.791 -0.0472  0.2779  0.2366
  320loPI   C3A 5113  19.178  11.327   8.510  0.1351 -0.0523  0.2025
  320loPI   C4A 5114  19.160  11.353   8.001  0.0223  0.1447 -0.0895
  320loPI   C5A 5115  19.215  11.492   7.557  0.1539  0.2040  0.3909
  320loPI   C6A 5116  19.300  11.472   7.074 -0.1322 -0.0677 -0.3567
  320loPI   C1B 5117  18.793  10.818   8.924  0.2333  0.0428  0.1207
  320loPI   C2B 5118  18.929  10.800   8.495 -0.2155  0.1368 -0.0145
  320loPI   C3B 5119  19.028  10.837   8.069  0.0513  0.2783 -0.1103
  320loPI   C4B 5120  19.175  10.972   7.597 -0.2601 -0.0515 -0.0512
  321loPI    C1 5121   8.229   0.754  10.015  0.1635  0.3631  0.2383
  321loPI    C2 5122   8.551   0.519   9.986 -0.1629 -0.0569 -0.1359
  321loPI    C3 5123   8.241   0.406  10.213 -0.0048  0.4098  0.3334
  321loPI   PO4 5124   8.216   0.930   9.706 -0.1581 -0.2982 -0.1071
  321loPI   GL1 5125   7.954   0.997   9.356 -0.1763  0.0177 -0.0766
  321loPI   GL2 5126   8.127   0.721   9.191 -0.5262  0.2347  0.1909
  321loPI   C1A 5127   7.668   0.888   9.060  0.2107  0.3380 -0.1949
  321loPI   C2A 5128   7.473   0.935   8.683 -0.0903  0.2144  0.0593
  321loPI   C3A 5129   7.373   1.045   8.302 -0.4328 -0.2043  0.0217
  321loPI   C4A 5130   7.241   1.309   7.892 -0.0015  0.0881  0.4028
  321loPI   C5A 5131   6.972   1.424   7.654  0.0756 -0.2086 -0.2202
  321loPI   C6A 5132   6.821   1.780   7.434  0.1270 -0.1121 -0.1054
  321loPI   C1B 5133   8.078   0.646   8.763  0.0790  0.0687  0.0604
  321loPI   C2B 5134   8.379   0.602   8.438  0.2362 -0.1115  0.1985
  321loPI   C3B 5135   8.497   0.714   8.000 -0.0445  0.0559 -0.1257
  321loPI   C4B 5136   8.697   0.727   7.551  0.1116  0.3354 -0.3685
  322loPI    C1 5137  13.696  11.534  10.196  0.1381  0.0004  0.0885
  322loPI    C2 5138  13.961  11.335  10.419  0.1345 -0.0091  0.0844
  322loPI    C3 5139  13.570  11.282  10.480  0.1271 -0.3796 -0.2449
  322loPI   PO4 5140  13.824  11.686  10.003 -0.3409 -0.2179  0.0847
  322loPI   GL1 5141  13.710  11.746   9.609 -0.3183 -0.3116  0.0463
  322loPI   GL2 5142  13.609  12.030   9.595 -0.2866 -0.0705 -0.1308
  322loPI   C1A 5143  13.934  11.574   9.246 -0.1283 -0.2799 -0.1148
  322loPI   C2A 5144  13.852  11.639   8.818 -0.1614 -0.2466  0.1158
  322loPI   C3A 5145  13.827  11.855   8.381  0.1842 -0.1749  0.0812
  322loPI   C4A 5146  14.142  11.815   8.103 -0.0049  0.0575  0.2581
  322loPI   C5A 5147  14.363  11.839   7.742 -0.0791  0.1335  0.4391
  322loPI   C6A 5148  14.238  11.956   7.337  0.1372 -0.0971 -0.3638
  322loPI   C1B 5149  13.806  12.088   9.193  0.3212  0.0107 -0.0495
  322loPI   C2B 5150  13.611  12.042   8.838  0.1053  0.0179  0.4040
  322loPI   C3B 5151  13.431  12.122   8.510  0.2780 -0.3041 -0.1297
  322loPI   C4B 5152  13.267  12.424   8.185 -0.5835 -0.0729 -0.0769
  323loPI    C1 5153  18.407  16.007  10.134 -0.1577  0.1520  0.2444
  323loPI    C2 5154  18.251  15.653  10.237  0.1276 -0.0729 -0.0747
  323loPI    C3 5155  18.582  15.787  10.418  0.1031 -0.0365 -0.0566
  323loPI   PO4 5156  18.473  16.004   9.861  0.2415 -0.0640 -0.1899
  323loPI   GL1 5157  18.236  16.220   9.496 -0.0927 -0.0246  0.0184
  323loPI   GL2 5158  17.984  16.068   9.633 -0.1327 -0.0979 -0.1535
  323loPI   C1A 5159  18.458  16.432   9.130  0.2260 -0.6071  0.1036
  323loPI   C2A 5160  18.320  16.435   8.738  0.0596 -0.1243 -0.0003
  323loPI   C3A 5161  18.328  16.345   8.318 -0.0488 -0.0177 -0.0452
  323loPI   C4A 5162  18.221  16.120   7.936  0.0674 -0.0028  0.0305
  323loPI   C5A 5163  18.260  15.786   7.608  0.1127 -0.1181 -0.1397
  323loPI   C6A 5164  18.512  15.723   7.227  0.1932  0.1467  0.1593
  323loPI   C1B 5165  17.834  15.925   9.203  0.1137 -0.0351 -0.3197
  323loPI   C2B 5166  17.950  15.949   8.735 -0.3206  0.0154 -0.1237
  323loPI   C3B 5167  17.980  15.919   8.395 -0.1387 -0.0372  0.4161
  323loPI   C4B 5168  17.857  15.793   7.850  0.3837 -0.2697 -0.2361
  324loPI    C1 5169  14.908   2.679   9.881  0.0402 -0.1781 -0.0851
  324loPI    C2 5170  14.812   2.365  10.110  0.1067  0.0326  0.2384
  324loPI    C3 5171  15.187   2.504  10.110  0.1630 -0.1058 -0.1782
  324loPI   PO4 5172  14.831   2.639   9.608  0.0743 -0.0298  0.2780
  324loPI   GL1 5173  15.034   2.779   9.267  0.0158  0.3397 -0.2492
  324loPI   GL2 5174  15.176   3.012   9.205 -0.0560 -0.1352 -0.0467
  324loPI   C1A 5175  15.227   2.734   8.808  0.0746  0.3413 -0.0287
  324loPI   C2A 5176  15.306   2.777   8.361  0.1131 -0.0967 -0.0888
  324loPI   C3A 5177  15.466   2.777   7.916 -0.0450 -0.0006 -0.1897
  324loPI   C4A 5178  15.450   2.829   7.557  0.2404  0.0973 -0.2053
  324loPI   C5A 5179  15.662   3.106   7.284  0.1468 -0.4591 -0.0983
  324loPI   C6A 5180  15.940   3.554   7.316 -0.3040 -0.1532 -0.0250
  324loPI   C1B 5181  15.329   3.234   8.964 -0.4518  0.0194  0.1901
  324loPI   C2B 5182  15.290   3.271   8.550 -0.0676 -0.0845 -0.1925
  324loPI   C3B 5183  15.496   3.254   8.148 -0.0147 -0.1200 -0.0800
  324loPI   C4B 5184  15.670   3.319   7.735  0.0901  0.2013 -0.3615
  325loPI    C1 5185   9.168   7.211   9.848 -0.1458 -0.6235  0.1409
  325loPI    C2 5186   9.535   7.173  10.003 -0.0722  0.3436  0.2662
  325loPI    C3 5187   9.215   7.073  10.220  0.0941 -0.2775  0.2443
  325loPI   PO4 5188   9.070   7.038   9.664  0.1948  0.0240  0.2155
  325loPI   GL1 5189   9.156   7.026   9.222 -0.1119  0.2219  0.1365
  325loPI   GL2 5190   8.883   7.077   9.195  0.1617  0.1030  0.1032
  325loPI   C1A 5191   9.371   6.818   8.869 -0.3132  0.1847 -0.2594
  325loPI   C2A 5192   9.384   6.822   8.444 -0.2688  0.0172  0.0071
  325loPI   C3A 5193   9.273   6.942   8.090 -0.3713  0.1315  0.1080
  325loPI   C4A 5194   9.161   7.078   7.700  0.1633  0.0110 -0.1593
  325loPI   C5A 5195   8.979   7.150   7.370  0.1859  0.2109 -0.2765
  325loPI   C6A 5196   8.491   7.327   7.263 -0.0219  0.0224  0.1172
  325loPI   C1B 5197   8.935   7.024   8.718  0.0830  0.1684  0.1982
  325loPI   C2B 5198   8.789   7.069   8.287  0.0662  0.0258 -0.0713
  325loPI   C3B 5199   8.697   6.941   7.893 -0.1115  0.2114 -0.1352
  325loPI   C4B 5200   8.529   6.910   7.585  0.0330  0.2130 -0.0137
  326loPI    C1 5201  13.045  16.884   9.670 -0.2150 -0.1432 -0.0931
  326loPI    C2 5202  12.729  17.099   9.554 -0.1392  0.1420  0.2152
  326loPI    C3 5203  12.702  16.861   9.874 -0.0481  0.1534  0.2316
  326loPI   PO4 5204  13.032  16.739   9.455  0.1351  0.0943  0.1851
  326loPI   GL1 5205  13.045  16.323   9.291 -0.0973  0.0229  0.0613
  326loPI   GL2 5206  12.744  16.377   9.207 -0.1074 -0.1149  0.1549
  326loPI   C1A 5207  13.222  16.486   8.913  0.0359 -0.0985  0.2672
  326loPI   C2A 5208  13.250  16.560   8.479  0.2238  0.2770 -0.1304
  326loPI   C3A 5209  13.038  16.692   8.167 -0.2408 -0.1332 -0.2806
  326loPI   C4A 5210  12.868  17.138   8.068 -0.1369  0.1377 -0.0217
  326loPI   C5A 5211  13.143  17.419   7.886  0.4096 -0.1372  0.1244
  326loPI   C6A 5212  13.576  17.610   7.743  0.4607  0.2807 -0.2263
  326loPI   C1B 5213  12.751  16.280   8.795  0.2267 -0.2052 -0.0514
  326loPI   C2B 5214  12.761  16.270   8.358 -0.1500  0.2006 -0.1159
  326loPI   C3B 5215  12.779  16.306   7.920 -0.1183 -0.0699 -0.0437
  326loPI   C4B 5216  12.991  16.508   7.506 -0.1365  0.1042 -0.1478
  327loPI    C1 5217  15.899  18.379  10.214  0.0675 -0.3088 -0.0160
  327loPI    C2 5218  15.575  18.444  10.439  0.0529  0.1340 -0.1545
  327loPI    C3 5219  15.940  18.485  10.597  0.0464 -0.2097 -0.0409
  327loPI   PO4 5220  15.797  18.332   9.968 -0.0265  0.0552 -0.4045
  327loPI   GL1 5221  15.714  18.522   9.581  0.2082  0.3747 -0.0734
  327loPI   GL2 5222  15.994  18.585   9.404 -0.0621 -0.0427  0.1114
  327loPI   C1A 5223  15.451  18.345   9.284 -0.0006 -0.1572  0.0814
  327loPI   C2A 5224  15.420  18.168   8.916  0.1856  0.0579  0.1555
  327loPI   C3A 5225  15.373  17.802   8.529 -0.1951 -0.2418  0.1776
  327loPI   C4A 5226  15.474  17.869   8.162 -0.3885  0.0053  0.0886
  327loPI   C5A 5227  15.538  18.190   7.933 -0.2488  0.0628 -0.1587
  327loPI   C6A 5228  15.616  18.646   7.958  0.3726  0.0418 -0.0732
  327loPI   C1B 5229  15.771  18.687   9.071 -0.2605 -0.2968 -0.1107
  327loPI   C2B 5230  15.453  18.603   8.693  0.3903 -0.2128 -0.0695
  327loPI   C3B 5231  15.423  18.329   8.370 -0.1677 -0.2367  0.3712
  327loPI   C4B 5232  15.079  18.343   8.063 -0.0553 -0.0429 -0.0959
  328loPI    C1 5233  18.060  13.761   9.814  0.2246 -0.2109  0.2282
  328loPI    C2 5234  17.927  13.384   9.804  0.0066 -0.1291 -0.2873
  328loPI    C3 5235  17.824  13.625  10.107 -0.2243 -0.3508 -0.1857
  328loPI   PO4 5236  18.218  13.790   9.610 -0.2048 -0.0785  0.1961
  328loPI   GL1 5237  18.572  13.741   9.282 -0.1671 -0.2128 -0.0603
  328loPI   GL2 5238  18.824  13.911   9.075  0.2057  0.1501 -0.4089
  328loPI   C1A 5239  18.138  13.795   8.918 -0.4213  0.1333  0.2097
  328loPI   C2A 5240  18.121  13.857   8.497  0.1319  0.1021 -0.3045
  328loPI   C3A 5241  17.961  13.866   8.060 -0.2725  0.2672  0.0931
  328loPI   C4A 5242  17.811  13.926   7.572  0.1985 -0.3405 -0.2871
  328loPI   C5A 5243  17.517  14.048   7.268 -0.0549  0.1259  0.2837
  328loPI   C6A 5244  17.491  14.494   7.001  0.2981  0.0368  0.1099
  328loPI   C1B 5245  18.653  13.933   8.674 -0.0020  0.1430 -0.2629
  328loPI   C2B 5246  18.619  13.753   8.253 -0.2230 -0.0327 -0.0970
  328loPI   C3B 5247  18.357  13.683   7.887  0.1671 -0.1057 -0.1678
  328loPI   C4B 5248  18.105  13.343   7.700 -0.2085 -0.0274 -0.2490
  329loPI    C1 5249   6.093  15.973  10.078  0.1148 -0.0636 -0.1004
  329loPI    C2 5250   5.995  16.225  10.373  0.4053  0.2094 -0.2315
  329loPI    C3 5251   6.087  15.844  10.457 -0.1999  0.0936 -0.0492
  329loPI   PO4 5252   5.975  16.080   9.831  0.2908 -0.0743  0.0383
  329loPI   GL1 5253   5.979  16.141   9.325  0.0361  0.1038  0.1607
  329loPI   GL2 5254   5.944  16.364   9.447 -0.2710 -0.0762  0.1148
  329loPI   C1A 5255   5.814  16.121   8.976 -0.3888 -0.0281  0.0438
  329loPI   C2A 5256   5.731  16.182   8.488 -0.2517 -0.2003  0.0308
  329loPI   C3A 5257   5.537  16.066   8.146  0.2703  0.3942  0.3135
  329loPI   C4A 5258   5.408  16.271   7.826  0.0179  0.3968 -0.2258
  329loPI   C5A 5259   5.248  16.172   7.493 -0.2094 -0.1482  0.0792
  329loPI   C6A 5260   4.788  16.285   7.283  0.2496  0.1684  0.0617
  329loPI   C1B 5261   5.977  16.616   9.099 -0.2186 -0.1072 -0.0621
  329loPI   C2B 5262   6.008  16.660   8.652  0.0277  0.1413  0.1487
  329loPI   C3B 5263   5.795  16.720   8.238  0.2480 -0.1374 -0.2423
  329loPI   C4B 5264   5.717  16.850   7.821  0.1008  0.1618  0.1615
  330loPI    C1 5265   3.034  13.134   9.891 -0.0484  0.0434 -0.0615
  330loPI    C2 5266   2.697  12.989  10.051 -0.0270  0.1030  0.0384
  330loPI    C3 5267   2.756  13.384  10.034  0.1894  0.0877  0.3401
  330loPI   PO4 5268   3.047  13.032   9.659 -0.0446 -0.2190  0.2456
  330loPI   GL1 5269   3.183  12.890   9.326 -0.0399  0.0176 -0.1095
  330loPI   GL2 5270   3.087  12.782   9.109 -0.0837  0.0445  0.3776
  330loPI   C1A 5271   3.603  12.753   9.087 -0.1224 -0.0477 -0.0357
  330loPI   C2A 5272   3.957  12.791   8.769  0.0630 -0.4182 -0.2351
  330loPI   C3A 5273   3.730  12.796   8.282 -0.2023 -0.1069 -0.2335
  330loPI   C4A 5274   3.512  12.890   8.009 -0.1264  0.1795 -0.2254
  330loPI   C5A 5275   3.597  12.938   7.596 -0.0705  0.0360  0.1565
  330loPI   C6A 5276   3.478  13.141   7.258 -0.2740 -0.0136  0.2003
  330loPI   C1B 5277   3.116  12.815   8.720 -0.0756  0.1166  0.1304
  330loPI   C2B 5278   3.106  13.033   8.271  0.1648 -0.1313  0.0092
  330loPI   C3B 5279   2.926  13.024   8.005 -0.2141 -0.2783 -0.0050
  330loPI   C4B 5280   2.809  13.256   7.703 -0.1453  0.1640  0.0631
  331loPI    C1 5281  16.609  15.579   9.911 -0.0681  0.0266 -0.2261
  331loPI    C2 5282  16.751  15.520  10.280  0.0273  0.0145 -0.2644
  331loPI    C3 5283  16.396  15.696  10.229  0.2002  0.3987 -0.1759
  331loPI   PO4 5284  16.931  15.762   9.855 -0.2309  0.3190 -0.0850
  331loPI   GL1 5285  16.948  16.188   9.649  0.0726 -0.1936  0.2027
  331loPI   GL2 5286  16.703  15.905   9.389 -0.1039 -0.1847  0.1539
  331loPI   C1A 5287  16.825  16.433   9.251  0.1286  0.0157  0.2137
  331loPI   C2A 5288  16.942  16.522   8.909  0.3022 -0.0900 -0.2710
  331loPI   C3A 5289  16.852  16.653   8.428  0.2528  0.1603  0.0793
  331loPI   C4A 5290  16.499  16.807   8.104 -0.2078  0.2209 -0.1447
  331loPI   C5A 5291  16.131  16.562   7.923  0.2447 -0.1973  0.1067
  331loPI   C6A 5292  15.817  16.266   8.088  0.0576 -0.4078 -0.1420
  331loPI   C1B 5293  16.950  15.959   9.053 -0.2003 -0.2953 -0.0468
  331loPI   C2B 5294  16.975  16.012   8.672  0.3589  0.2370  0.1811
  331loPI   C3B 5295  16.945  16.128   8.235 -0.0949 -0.3037 -0.0294
  331loPI   C4B 5296  16.914  16.400   7.917 -0.2786  0.0594 -0.2070
  332loPI    C1 5297   2.202  13.297   9.898 -0.1493  0.2712  0.1548
  332loPI    C2 5298   2.165  13.693   9.861  0.0485  0.3217  0.4646
  332loPI    C3 5299   1.931  13.493  10.117 -0.1865  0.2079  0.1659
  332loPI   PO4 5300   2.206  13.190   9.553  0.0694 -0.5167 -0.2327
  332loPI   GL1 5301   2.379  13.290   9.131 -0.7210  0.1400 -0.1534
  332loPI   GL2 5302   2.221  12.953   9.094  0.2922  0.1671 -0.2490
  332loPI   C1A 5303   2.350  13.431   8.724  0.1376  0.0224  0.2195
  332loPI   C2A 5304   2.302  13.578   8.260  0.1701 -0.0139  0.1576
  332loPI   C3A 5305   2.378  13.583   7.756 -0.3412 -0.0262 -0.0414
  332loPI   C4A 5306   2.152  13.799   7.337 -0.2192  0.2645 -0.2152
  332loPI   C5A 5307   2.090  14.091   6.932  0.0006  0.0849 -0.1185
  332loPI   C6A 5308   2.027  14.114   6.535 -0.1428  0.0792  0.0441
  332loPI   C1B 5309   2.226  12.759   8.696 -0.0851  0.2297 -0.2175
  332loPI   C2B 5310   2.290  12.430   8.413  0.0675 -0.0317  0.1656
  332loPI   C3B 5311   2.350  12.081   8.124 -0.2598 -0.0297  0.0017
  332loPI   C4B 5312   2.597  11.836   7.863 -0.1868  0.0742 -0.0293
  333loPI    C1 5313   3.785  18.441  10.290  0.1755  0.1385 -0.1859
  333loPI    C2 5314   3.867  18.588  10.653 -0.0236  0.0600 -0.1071
  333loPI    C3 5315   3.973  18.213  10.560  0.2756  0.1713 -0.2278
  333loPI   PO4 5316   3.888  18.502  10.089 -0.3167  0.1020  0.2703
  333loPI   GL1 5317   3.603  18.706   9.858 -0.0136 -0.0861 -0.1434
  333loPI   GL2 5318   3.842  18.635   9.613  0.1332  0.4844 -0.1342
  333loPI   C1A 5319   3.575  19.034   9.460  0.0169 -0.1334 -0.1309
  333loPI   C2A 5320   3.535  19.044   9.054  0.0945  0.0114 -0.1616
  333loPI   C3A 5321   3.436  19.473   8.859 -0.1187  0.0101  0.2314
  333loPI   C4A 5322   3.541  19.476   8.399 -0.1157 -0.3536  0.0308
  333loPI   C5A 5323   3.517  19.769   8.021 -0.1402  0.0117  0.1083
  333loPI   C6A 5324   3.581  19.762   7.665  0.0390 -0.0996  0.1640
  333loPI   C1B 5325   3.591  18.583   9.355  0.1197 -0.2266 -0.0562
  333loPI   C2B 5326   3.658  18.564   8.961  0.0226  0.1954  0.0831
  333loPI   C3B 5327   3.767  18.411   8.566  0.0610 -0.0083 -0.0226
  333loPI   C4B 5328   3.803  18.146   8.141  0.1066 -0.1352  0.1882
  334loPI    C1 5329  15.183  10.157   9.864 -0.2663  0.0379  0.0769
  334loPI    C2 5330  14.996   9.812   9.788  0.1019 -0.1571  0.0295
  334loPI    C3 5331  15.174   9.869  10.141 -0.0303  0.0203  0.0690
  334loPI   PO4 5332  15.364  10.175   9.648 -0.0379 -0.3504  0.0058
  334loPI   GL1 5333  15.622   9.754   9.463  0.3328  0.1043 -0.1269
  334loPI   GL2 5334  15.646   9.413   9.421  0.2763 -0.1676  0.0256
  334loPI   C1A 5335  15.550   9.757   9.097  0.1861 -0.2592 -0.1189
  334loPI   C2A 5336  15.705   9.751   8.714 -0.4121  0.2190  0.1324
  334loPI   C3A 5337  15.599   9.899   8.329 -0.0858  0.1771  0.3933
  334loPI   C4A 5338  15.299  10.042   7.969 -0.1697  0.4095 -0.3015
  334loPI   C5A 5339  15.429  10.199   7.623  0.0278 -0.3604  0.0451
  334loPI   C6A 5340  15.799  10.192   7.342 -0.0897  0.0804  0.0969
  334loPI   C1B 5341  15.720   9.319   8.962 -0.1366  0.2045  0.2423
  334loPI   C2B 5342  15.855   9.210   8.498 -0.4833  0.0600  0.0638
  334loPI   C3B 5343  15.857   9.286   8.047  0.0204  0.0244 -0.1256
  334loPI   C4B 5344  15.524   9.281   7.590 -0.0098 -0.2600 -0.1151
  335loPI    C1 5345   5.389   7.346   9.853 -0.0390 -0.0534 -0.0368
  335loPI    C2 5346   5.455   7.114   9.534  0.2071  0.1276 -0.1213
  335loPI    C3 5347   5.527   6.974   9.902  0.0979 -0.0191 -0.1544
  335loPI   PO4 5348   5.190   7.548   9.712 -0.0690 -0.2552  0.0439
  335loPI   GL1 5349   5.263   7.667   9.194 -0.2448  0.4312  0.1419
  335loPI   GL2 5350   5.264   7.428   9.006 -0.1230 -0.2750  0.1374
  335loPI   C1A 5351   5.476   7.963   8.888  0.2213  0.1469  0.0395
  335loPI   C2A 5352   5.481   8.186   8.489 -0.0840  0.1530  0.1489
  335loPI   C3A 5353   5.589   8.350   8.096 -0.2552  0.0645 -0.4595
  335loPI   C4A 5354   5.766   8.631   7.828 -0.0949  0.0167 -0.0010
  335loPI   C5A 5355   5.638   9.115   7.689  0.0466 -0.3264 -0.0090
  335loPI   C6A 5356   5.669   9.525   7.415  0.1404 -0.3719  0.2692
  335loPI   C1B 5357   5.207   7.404   8.575 -0.3041 -0.1899  0.0776
  335loPI   C2B 5358   5.026   7.287   8.172  0.2631 -0.0756 -0.0225
  335loPI   C3B 5359   4.657   7.162   7.882  0.0731  0.1433 -0.4613
  335loPI   C4B 5360   4.477   6.812   7.672 -0.1665  0.0629 -0.0562
  336loPI    C1 5361   0.715  15.465  10.084  0.0706  0.2174  0.1035
  336loPI    C2 5362   0.592  15.611  10.435 -0.1381  0.1646  0.0533
  336loPI    C3 5363   0.690  15.224  10.402  0.1313  0.2259  0.1148
  336loPI   PO4 5364   0.462  15.566   9.952 -0.2345  0.1519 -0.2305
  336loPI   GL1 5365   0.296  15.493   9.453 -0.1817 -0.1080 -0.1828
  336loPI   GL2 5366   0.159  15.247   9.322 -0.1595 -0.0668 -0.1639
  336loPI   C1A 5367   0.402  15.822   9.207 -0.0343 -0.0019 -0.0497
  336loPI   C2A 5368   0.307  15.941   8.907 -0.2645 -0.0721  0.3733
  336loPI   C3A 5369   0.329  16.038   8.510 -0.1748  0.2010  0.1141
  336loPI   C4A 5370   0.334  16.030   8.018  0.1103 -0.2165  0.1905
  336loPI   C5A 5371   0.248  16.277   7.669 -0.1151 -0.2113  0.1452
  336loPI   C6A 5372   0.066  16.642   7.543  0.2131  0.0565  0.1373
  336loPI   C1B 5373   0.137  15.485   8.947  0.1062  0.0036  0.0037
  336loPI   C2B 5374   0.041  15.686   8.497 -0.0290  0.1059 -0.3112
  336loPI   C3B 5375   0.062  15.648   8.113  0.0825  0.0556 -0.4985
  336loPI   C4B 5376   0.118  15.807   7.607  0.0121  0.0486  0.2241
  337loPI    C1 5377   2.619   8.470   9.578 -0.1765  0.1676  0.1657
  337loPI    C2 5378   2.384   8.148   9.605 -0.2768  0.2428  0.1948
  337loPI    C3 5379   2.547   8.304   9.935  0.0154  0.0435  0.1480
  337loPI   PO4 5380   2.734   8.442   9.400 -0.1795  0.1171 -0.1377
  337loPI   GL1 5381   2.877   8.201   9.122  0.0848 -0.2603  0.0071
  337loPI   GL2 5382   3.084   8.110   9.079  0.0971  0.1307  0.0280
  337loPI   C1A 5383   2.730   8.462   8.779  0.1412  0.2939  0.0237
  337loPI   C2A 5384   2.692   8.531   8.308  0.0139  0.1492  0.0404
  337loPI   C3A 5385   2.475   8.740   7.963  0.1437 -0.1367  0.3687
  337loPI   C4A 5386   2.492   8.865   7.640  0.1529  0.1196 -0.0813
  337loPI   C5A 5387   2.142   8.805   7.395  0.0311 -0.0600  0.0090
  337loPI   C6A 5388   1.713   8.871   7.423 -0.0073 -0.2561 -0.1841
  337loPI   C1B 5389   3.074   8.053   8.607  0.2660 -0.0078 -0.2404
  337loPI   C2B 5390   3.059   8.107   8.155 -0.5136 -0.2459  0.0201
  337loPI   C3B 5391   3.281   7.929   7.944 -0.2399 -0.2463  0.3996
  337loPI   C4B 5392   3.407   8.006   7.481 -0.0173 -0.0853 -0.1631
  338loPI    C1 5393  16.610   3.247   9.693  0.2157  0.0549 -0.0863
  338loPI    C2 5394  16.622   3.323  10.085  0.1421  0.1788 -0.1076
  338loPI    C3 5395  16.319   3.462   9.864  0.2262  0.1791 -0.2230
  338loPI   PO4 5396  16.962   3.321   9.652  0.0376 -0.3720  0.1278
  338loPI   GL1 5397  17.171   3.152   9.416 -0.0986 -0.4492 -0.5258
  338loPI   GL2 5398  16.925   3.039   9.197 -0.0348 -0.2712 -0.4733
  338loPI   C1A 5399  17.353   3.065   9.024 -0.1397  0.0638 -0.0819
  338loPI   C2A 5400  17.461   3.164   8.634  0.3146  0.0054 -0.1290
  338loPI   C3A 5401  17.385   3.203   8.276  0.4284  0.3374 -0.1113
  338loPI   C4A 5402  17.569   3.382   7.888  0.0085 -0.0080 -0.1369
  338loPI   C5A 5403  17.871   3.666   7.540  0.1670 -0.1813  0.2103
  338loPI   C6A 5404  18.350   3.779   7.583  0.1664  0.1532  0.1172
  338loPI   C1B 5405  16.868   3.090   8.729 -0.0523 -0.2131 -0.0267
  338loPI   C2B 5406  16.867   3.120   8.255  0.1356 -0.3065  0.1690
  338loPI   C3B 5407  17.029   3.392   7.885 -0.0413  0.0629 -0.4521
  338loPI   C4B 5408  17.056   3.632   7.502  0.2246 -0.1544 -0.3241
  339loPI    C1 5409  16.036  15.082  10.215 -0.2421  0.1074 -0.0927
  339loPI    C2 5410  16.410  15.067  10.072 -0.2062 -0.2024  0.0269
  339loPI    C3 5411  16.343  15.196  10.445 -0.1861 -0.4188  0.1070
  339loPI   PO4 5412  15.782  14.993  10.004 -0.0887 -0.1093  0.5038
  339loPI   GL1 5413  15.762  14.828   9.552 -0.1282 -0.0849 -0.2075
  339loPI   GL2 5414  15.880  14.645   9.383  0.1745  0.0360 -0.3315
  339loPI   C1A 5415  15.663  15.264   9.359 -0.0944  0.0347 -0.0547
  339loPI   C2A 5416  15.689  15.399   8.997 -0.2009  0.2472  0.1434
  339loPI   C3A 5417  15.588  15.639   8.664  0.0774 -0.3041  0.1807
  339loPI   C4A 5418  15.464  16.011   8.403 -0.3075  0.1059 -0.0388
  339loPI   C5A 5419  15.321  16.358   8.076 -0.1220  0.1100 -0.0687
  339loPI   C6A 5420  15.684  16.575   7.708  0.1731  0.1163  0.1131
  339loPI   C1B 5421  15.604  14.520   8.982  0.1786 -0.0355  0.3203
  339loPI   C2B 5422  15.374  14.586   8.535  0.0080 -0.2591 -0.0010
  339loPI   C3B 5423  15.042  14.624   8.145  0.0354  0.0725 -0.0628
  339loPI   C4B 5424  15.204  14.749   7.771 -0.0384  0.0871  0.4365
  340loPI    C1 5425   5.298  17.504  10.057  0.0603  0.1301 -0.0320
  340loPI    C2 5426   5.243  17.108  10.033  0.0676  0.1179  0.1391
  340loPI    C3 5427   5.029  17.325  10.293 -0.0338  0.2470 -0.0495
  340loPI   PO4 5428   5.340  17.602   9.765 -0.2409 -0.0478  0.1734
  340loPI   GL1 5429   5.648  17.826   9.566 -0.4091 -0.1692 -0.1426
  340loPI   GL2 5430   5.862  17.777   9.398  0.0833  0.0271 -0.0556
  340loPI   C1A 5431   5.401  17.996   9.199  0.0677 -0.0422 -0.0540
  340loPI   C2A 5432   5.488  17.988   8.710  0.0986  0.0541  0.1595
  340loPI   C3A 5433   5.223  18.150   8.346  0.0376 -0.0747 -0.2119
  340loPI   C4A 5434   5.124  18.222   7.919 -0.0444 -0.0750 -0.4328
  340loPI   C5A 5435   4.817  18.476   7.617 -0.2415 -0.1760  0.1460
  340loPI   C6A 5436   4.585  18.882   7.612  0.0664 -0.3337  0.3964
  340loPI   C1B 5437   6.193  17.704   9.165  0.1175 -0.1026 -0.1312
  340loPI   C2B 5438   6.326  17.581   8.747  0.2126 -0.0287 -0.1461
  340loPI   C3B 5439   6.235  17.525   8.259  0.6044  0.0225 -0.5563
  340loPI   C4B 5440   6.360  17.416   7.839  0.0481  0.2293 -0.0802
  341loPI    C1 5441   4.039   2.065  10.307 -0.1438 -0.0314  0.3073
  341loPI    C2 5442   3.961   2.437  10.433 -0.1508  0.0540  0.0568
  341loPI    C3 5443   3.705   2.140  10.514 -0.1118  0.0889  0.3164
  341loPI   PO4 5444   4.172   2.061  10.114 -0.2246  0.1542 -0.1055
  341loPI   GL1 5445   4.096   1.883   9.784  0.0216 -0.0351 -0.0131
  341loPI   GL2 5446   4.244   1.916   9.442  0.3028 -0.4400 -0.0718
  341loPI   C1A 5447   3.668   1.900   9.537 -0.1483  0.2519 -0.0325
  341loPI   C2A 5448   3.406   2.015   9.272  0.0060 -0.2890 -0.2015
  341loPI   C3A 5449   3.399   1.887   8.912 -0.3015  0.1579 -0.1480
  341loPI   C4A 5450   3.089   1.796   8.515  0.1176 -0.0709  0.1405
  341loPI   C5A 5451   2.971   1.742   8.081 -0.1589 -0.0545 -0.0422
  341loPI   C6A 5452   2.817   2.132   7.819 -0.0755 -0.1791 -0.0691
  341loPI   C1B 5453   4.250   1.881   8.944 -0.0027  0.2709 -0.1278
  341loPI   C2B 5454   4.436   1.807   8.602  0.1418 -0.0099 -0.1144
  341loPI   C3B 5455   4.635   1.802   8.199  0.0247 -0.1301  0.1194
  341loPI   C4B 5456   4.948   1.793   8.046 -0.0432  0.0077  0.1852
  342loPI    C1 5457   0.621   6.360  10.258  0.1930  0.1300 -0.0541
  342loPI    C2 5458   0.536   6.720  10.409  0.1545  0.1199 -0.0516
  342loPI    C3 5459   0.554   6.401  10.650  0.0559  0.0973 -0.0735
  342loPI   PO4 5460   0.546   6.267  10.116 -0.1383  0.1448  0.0200
  342loPI   GL1 5461   0.588   6.342   9.643 -0.3233  0.0851  0.2335
  342loPI   GL2 5462   0.528   6.746   9.515 -0.0095  0.0734  0.1123
  342loPI   C1A 5463   0.687   5.953   9.402  0.0068 -0.0738  0.0044
  342loPI   C2A 5464   0.582   5.700   9.132  0.1562 -0.0140  0.2493
  342loPI   C3A 5465   0.900   5.390   8.880  0.2218 -0.0271  0.1541
  342loPI   C4A 5466   0.787   5.324   8.414 -0.0889  0.2957 -0.1310
  342loPI   C5A 5467   0.615   5.378   7.960  0.4067 -0.0494 -0.0545
  342loPI   C6A 5468   0.593   5.432   7.402 -0.4540  0.3698  0.1122
  342loPI   C1B 5469   0.136   7.007   9.346  0.0015  0.2688  0.2652
  342loPI   C2B 5470  -0.057   7.067   8.928  0.1308  0.1391 -0.0646
  342loPI   C3B 5471  -0.018   6.798   8.587  0.2187 -0.1250 -0.0020
  342loPI   C4B 5472  -0.198   6.490   8.304 -0.1004  0.2944 -0.2118
  343loPI    C1 5473   3.560  16.795   9.798 -0.2475 -0.0393  0.0834
  343loPI    C2 5474   3.863  16.746  10.055 -0.2335 -0.3553  0.0105
  343loPI    C3 5475   3.547  16.968  10.158  0.0495  0.0346  0.0620
  343loPI   PO4 5476   3.475  16.579   9.759 -0.0027  0.0640  0.0204
  343loPI   GL1 5477   3.073  16.440   9.537  0.1055 -0.0673 -0.2093
  343loPI   GL2 5478   3.227  16.641   9.321  0.5044  0.2006 -0.1883
  343loPI   C1A 5479   2.929  16.151   9.247  0.2126  0.1921 -0.3810
  343loPI   C2A 5480   2.972  16.151   8.735  0.2845  0.3869  0.0407
  343loPI   C3A 5481   3.175  15.975   8.283  0.0506 -0.0578 -0.0824
  343loPI   C4A 5482   3.298  15.983   7.922  0.1519 -0.1677 -0.0001
  343loPI   C5A 5483   3.432  15.945   7.560  0.1220 -0.0630 -0.2116
  343loPI   C6A 5484   3.709  15.842   7.217 -0.2345  0.1736 -0.1337
  343loPI   C1B 5485   3.254  16.468   8.947  0.0123  0.1631  0.2444
  343loPI   C2B 5486   3.303  16.491   8.490 -0.2005  0.2005 -0.2581
  343loPI   C3B 5487   3.174  16.496   8.023  0.2092 -0.0061  0.0371
  343loPI   C4B 5488   2.890  16.475   7.785  0.0762  0.2668  0.4238
  344loPI    C1 5489   2.853   6.900  10.008  0.0263 -0.0647  0.1213
  344loPI    C2 5490   3.219   7.062   9.996 -0.0448  0.0875 -0.0428
  344loPI    C3 5491   3.096   6.868  10.324  0.2177 -0.0486 -0.0224
  344loPI   PO4 5492   2.809   6.635   9.953 -0.3242  0.1375  0.0963
  344loPI   GL1 5493   2.651   6.396   9.436  0.1662  0.1143 -0.0940
  344loPI   GL2 5494   2.914   6.516   9.391 -0.0400  0.3122  0.1757
  344loPI   C1A 5495   2.694   6.141   9.063 -0.0156 -0.0426  0.2689
  344loPI   C2A 5496   2.473   5.964   8.889  0.1740 -0.1905  0.0560
  344loPI   C3A 5497   2.359   5.934   8.471  0.1023 -0.1086  0.2679
  344loPI   C4A 5498   2.135   5.913   8.194  0.2062 -0.0635  0.1809
  344loPI   C5A 5499   1.964   5.520   7.872 -0.3001 -0.0763 -0.0652
  344loPI   C6A 5500   2.006   5.487   7.480 -0.1121 -0.0410 -0.0855
  344loPI   C1B 5501   3.241   6.197   9.110  0.1521  0.0927 -0.0951
  344loPI   C2B 5502   3.299   5.941   8.695  0.0920 -0.3168 -0.1593
  344loPI   C3B 5503   3.273   5.955   8.310  0.2564 -0.0674 -0.0853
  344loPI   C4B 5504   3.186   6.066   7.935 -0.0756  0.1806  0.1523
  345loPI    C1 5505   3.086   9.193  10.382  0.0440  0.3058 -0.1477
  345loPI    C2 5506   3.229   8.820  10.361 -0.1119  0.2369 -0.0101
  345loPI    C3 5507   3.305   9.046  10.682  0.1686  0.4038 -0.1899
  345loPI   PO4 5508   3.118   9.181  10.026  0.0231  0.1573 -0.0695
  345loPI   GL1 5509   3.064   9.327   9.505 -0.0163 -0.1830 -0.3097
  345loPI   GL2 5510   3.132   9.600   9.640  0.2443  0.0041 -0.1685
  345loPI   C1A 5511   2.964   9.498   9.081 -0.0958  0.1521  0.2836
  345loPI   C2A 5512   3.026   9.564   8.576  0.0647 -0.2233  0.2126
  345loPI   C3A 5513   3.137   9.488   8.135 -0.0346 -0.1636  0.2689
  345loPI   C4A 5514   3.462   9.601   7.931  0.1631  0.0177 -0.2246
  345loPI   C5A 5515   3.808   9.687   7.678  0.2696  0.2427  0.1516
  345loPI   C6A 5516   3.856   9.882   7.342 -0.1331 -0.1316  0.1398
  345loPI   C1B 5517   3.140   9.884   9.363  0.4907 -0.1330  0.0677
  345loPI   C2B 5518   3.160   9.991   8.958 -0.1155  0.1823  0.1510
  345loPI   C3B 5519   3.243   9.984   8.501  0.3160  0.3566 -0.0721
  345loPI   C4B 5520   3.523  10.013   8.173 -0.0816  0.3195  0.0625
  346loPI    C1 5521   2.177   7.024   9.513 -0.3143  0.0941  0.0224
  346loPI    C2 5522   2.373   7.157   9.835 -0.0916 -0.1868  0.0061
  346loPI    C3 5523   1.996   7.028   9.871 -0.0647 -0.2261  0.1567
  346loPI   PO4 5524   2.312   6.892   9.393 -0.1791  0.1385 -0.1834
  346loPI   GL1 5525   2.425   6.546   9.017 -0.1731  0.0398  0.0540
  346loPI   GL2 5526   2.662   6.804   9.046  0.2894 -0.1761 -0.1429
  346loPI   C1A 5527   2.403   6.423   8.660 -0.4520 -0.0082 -0.2103
  346loPI   C2A 5528   2.205   6.353   8.275  0.0135 -0.1948  0.0461
  346loPI   C3A 5529   1.982   6.334   7.915  0.0687 -0.1366 -0.0806
  346loPI   C4A 5530   1.688   5.964   7.739  0.3528  0.0370 -0.1447
  346loPI   C5A 5531   1.304   5.938   7.848  0.1250  0.0094 -0.0966
  346loPI   C6A 5532   1.232   6.103   8.282 -0.3486  0.0128  0.3237
  346loPI   C1B 5533   2.694   6.832   8.736  0.1354 -0.0199 -0.0679
  346loPI   C2B 5534   2.581   6.729   8.276 -0.2372 -0.1579 -0.0515
  346loPI   C3B 5535   2.372   6.603   7.834  0.0411 -0.2185  0.1427
  346loPI   C4B 5536   2.057   6.738   7.479 -0.0119 -0.0543 -0.1032
  347loPI    C1 5537  15.658   5.306   9.769  0.3822 -0.3553  0.1240
  347loPI    C2 5538  15.435   4.981   9.699  0.0202 -0.0451 -0.2098
  347loPI    C3 5539  15.339   5.229   9.998  0.0675 -0.0415 -0.1974
  347loPI   PO4 5540  15.670   5.431   9.537  0.1759  0.0159 -0.0400
  347loPI   GL1 5541  15.501   5.662   9.208  0.1603  0.1912  0.0859
  347loPI   GL2 5542  15.784   5.847   9.267 -0.1398  0.1555  0.2099
  347loPI   C1A 5543  15.340   5.937   8.904  0.0770  0.1410 -0.0926
  347loPI   C2A 5544  15.002   5.930   8.575 -0.0651 -0.1402 -0.0914
  347loPI   C3A 5545  14.833   6.097   8.103 -0.4942 -0.0848 -0.3058
  347loPI   C4A 5546  14.535   6.140   7.771  0.1503  0.1431 -0.2394
  347loPI   C5A 5547  14.389   6.000   7.483  0.1010  0.2042  0.0129
  347loPI   C6A 5548  14.373   6.138   7.118 -0.1818  0.0266  0.1199
  347loPI   C1B 5549  15.873   5.734   8.788 -0.1158  0.0712 -0.4409
  347loPI   C2B 5550  16.103   5.560   8.665 -0.1417 -0.2971 -0.0854
  347loPI   C3B 5551  16.337   5.229   8.635 -0.2548 -0.2800  0.1435
  347loPI   C4B 5552  16.371   4.869   8.676  0.2497  0.0522 -0.1303
  348loPI    C1 5553   6.917  18.075  10.130 -0.1283 -0.0078 -0.0710
  348loPI    C2 5554   6.620  17.883  10.317  0.0274 -0.1775  0.0054
  348loPI    C3 5555   6.939  18.007  10.524 -0.0738  0.1725 -0.0420
  348loPI   PO4 5556   6.823  18.260   9.903 -0.2144  0.0011  0.4081
  348loPI   GL1 5557   6.878  18.487   9.494  0.1977 -0.0974 -0.1962
  348loPI   GL2 5558   7.118  18.551   9.551  0.0009 -0.1780  0.1457
  348loPI   C1A 5559   6.697  18.599   9.122  0.2503 -0.4056  0.0288
  348loPI   C2A 5560   6.758  18.472   8.691  0.2433 -0.1473 -0.2151
  348loPI   C3A 5561   6.817  18.734   8.277 -0.0950 -0.2053  0.1614
  348loPI   C4A 5562   7.038  18.559   7.851 -0.2069 -0.1769  0.0227
  348loPI   C5A 5563   7.537  18.776   7.820 -0.1389  0.0833 -0.1003
  348loPI   C6A 5564   7.664  19.133   8.096  0.1173 -0.0917  0.1344
  348loPI   C1B 5565   7.220  18.546   9.121 -0.1408 -0.0056 -0.0927
  348loPI   C2B 5566   7.485  18.498   8.758  0.0953 -0.0773 -0.2518
  348loPI   C3B 5567   7.478  18.433   8.301 -0.0670 -0.4131  0.2653
  348loPI   C4B 5568   7.434  18.299   7.854 -0.0851 -0.2852  0.0323
  349loPI    C1 5569   1.928  16.962  10.354 -0.3551  0.3402  0.0969
  349loPI    C2 5570   1.761  16.654  10.547 -0.0455 -0.1623 -0.4031
  349loPI    C3 5571   2.002  16.906  10.743 -0.2309 -0.2857 -0.0048
  349loPI   PO4 5572   1.768  17.137  10.251  0.1683  0.3213  0.0038
  349loPI   GL1 5573   1.450  17.004   9.770 -0.3878  0.3966 -0.0880
  349loPI   GL2 5574   1.549  17.216   9.583 -0.2666 -0.0179  0.0181
  349loPI   C1A 5575   1.326  16.815   9.372 -0.3847 -0.1576  0.2531
  349loPI   C2A 5576   1.358  16.824   8.813 -0.1059  0.0048 -0.0404
  349loPI   C3A 5577   1.474  16.971   8.342  0.2267 -0.2134  0.1255
  349loPI   C4A 5578   1.639  16.651   8.096  0.0419  0.1115 -0.0099
  349loPI   C5A 5579   2.038  16.532   7.949  0.3008  0.0627 -0.1003
  349loPI   C6A 5580   2.409  16.676   7.787 -0.0735 -0.0337 -0.3759
  349loPI   C1B 5581   1.385  17.266   9.166  0.0446  0.0104  0.1394
  349loPI   C2B 5582   1.156  17.426   8.803 -0.1656 -0.0625  0.0516
  349loPI   C3B 5583   1.088  17.824   8.644  0.0115 -0.1060  0.1288
  349loPI   C4B 5584   0.772  18.161   8.368  0.0961  0.5134 -0.1071
  350loPI    C1 5585  16.153   1.403  10.021  0.2101  0.0636  0.1590
  350loPI    C2 5586  15.885   1.108  10.060  0.2439 -0.0155 -0.1771
  350loPI    C3 5587  16.260   1.055  10.188  0.2237 -0.0817 -0.1447
  350loPI   PO4 5588  16.081   1.484   9.771  0.2018 -0.1549  0.1690
  350loPI   GL1 5589  16.302   1.434   9.373 -0.1847 -0.2077 -0.1176
  350loPI   GL2 5590  16.228   1.709   9.174  0.2041  0.0827  0.3259
  350loPI   C1A 5591  16.513   1.310   9.058 -0.2007 -0.3199 -0.1249
  350loPI   C2A 5592  16.632   1.273   8.593 -0.1052 -0.0232 -0.1814
  350loPI   C3A 5593  16.792   1.159   8.225  0.1263 -0.2521 -0.2688
  350loPI   C4A 5594  16.656   0.799   7.948 -0.1699 -0.0987  0.0295
  350loPI   C5A 5595  16.272   0.746   7.859 -0.0949  0.0832  0.1260
  350loPI   C6A 5596  16.033   0.652   7.560  0.1298 -0.3293 -0.3376
  350loPI   C1B 5597  16.256   1.612   8.702 -0.0813 -0.0281 -0.0287
  350loPI   C2B 5598  16.368   1.608   8.283 -0.0077 -0.0611  0.2327
  350loPI   C3B 5599  16.527   1.548   7.831 -0.0379  0.0898  0.1907
  350loPI   C4B 5600  16.530   1.578   7.390 -0.1670  0.0291  0.1164
  351loPI    C1 5601  17.657  11.453  10.120 -0.0321 -0.0671  0.1087
  351loPI    C2 5602  17.348  11.698  10.184 -0.0730 -0.1282  0.1460
  351loPI    C3 5603  17.560  11.559  10.493 -0.0226 -0.1053  0.1221
  351loPI   PO4 5604  17.560  11.314   9.937 -0.1378  0.3913 -0.0793
  351loPI   GL1 5605  17.200  11.255   9.620  0.2675 -0.1168  0.3333
  351loPI   GL2 5606  17.413  11.082   9.403  0.0824 -0.1558 -0.1920
  351loPI   C1A 5607  17.152  11.489   9.221 -0.0977 -0.0899 -0.2133
  351loPI   C2A 5608  16.963  11.440   8.743 -0.1069  0.4056 -0.0370
  351loPI   C3A 5609  17.020  11.589   8.372 -0.0463  0.1864 -0.0495
  351loPI   C4A 5610  16.918  11.698   7.987  0.1625 -0.0722  0.2727
  351loPI   C5A 5611  16.959  11.787   7.560 -0.1121  0.2396 -0.3368
  351loPI   C6A 5612  17.038  12.290   7.278  0.3900  0.0229 -0.0020
  351loPI   C1B 5613  17.197  10.962   9.054  0.2518  0.0430 -0.1690
  351loPI   C2B 5614  17.092  10.950   8.593  0.5713 -0.1585 -0.0396
  351loPI   C3B 5615  17.020  11.025   8.105  0.0876  0.0376  0.1695
  351loPI   C4B 5616  16.915  10.767   7.723  0.3186 -0.1513 -0.0048
  352loPI    C1 5617  13.860  17.147  10.166  0.2165 -0.0218 -0.0014
  352loPI    C2 5618  13.657  16.876  10.379 -0.2471  0.1439 -0.2186
  352loPI    C3 5619  13.909  17.127  10.562  0.0420 -0.2993  0.0089
  352loPI   PO4 5620  13.951  17.007   9.912  0.1367  0.0998 -0.1344
  352loPI   GL1 5621  13.917  17.131   9.452  0.2188  0.0618  0.0281
  352loPI   GL2 5622  14.203  16.959   9.509 -0.1871 -0.3209  0.2037
  352loPI   C1A 5623  13.836  17.246   9.043 -0.2923 -0.0306  0.2144
  352loPI   C2A 5624  13.970  17.338   8.550 -0.1015  0.0962  0.0160
  352loPI   C3A 5625  13.839  17.269   8.108 -0.0943 -0.3452 -0.1608
  352loPI   C4A 5626  13.704  17.089   7.786  0.4290 -0.0105 -0.2155
  352loPI   C5A 5627  13.971  17.055   7.298  0.1390 -0.2208  0.0199
  352loPI   C6A 5628  14.386  17.062   6.959  0.0626  0.1404  0.0972
  352loPI   C1B 5629  14.385  17.091   9.110  0.0046  0.3021 -0.2807
  352loPI   C2B 5630  14.495  17.132   8.666 -0.0765  0.7520  0.1454
  352loPI   C3B 5631  14.242  16.972   8.286  0.1821  0.1152 -0.0939
  352loPI   C4B 5632  14.271  17.019   7.842 -0.0214  0.1077 -0.0039
  353loPI    C1 5633   9.620  13.590  10.450  0.0308  0.1172  0.0262
  353loPI    C2 5634   9.306  13.523  10.688 -0.0540 -0.1145 -0.1470
  353loPI    C3 5635   9.624  13.723  10.827 -0.3400  0.2616 -0.0167
  353loPI   PO4 5636   9.484  13.609  10.187 -0.0115 -0.0634 -0.0635
  353loPI   GL1 5637   9.526  13.766   9.695  0.2748  0.2473  0.0576
  353loPI   GL2 5638   9.164  13.853   9.704  0.0759  0.1677  0.0984
  353loPI   C1A 5639   9.518  13.954   9.239  0.1355 -0.0347 -0.0755
  353loPI   C2A 5640   9.368  14.047   8.830 -0.0633  0.1384 -0.0875
  353loPI   C3A 5641   9.417  14.044   8.358 -0.3126 -0.0755 -0.2590
  353loPI   C4A 5642   9.334  14.139   7.915 -0.2832  0.1868  0.3082
  353loPI   C5A 5643   9.125  14.501   7.649 -0.1602 -0.2634 -0.1346
  353loPI   C6A 5644   8.745  14.433   7.481  0.3040  0.1374 -0.0777
  353loPI   C1B 5645   9.102  13.674   9.315 -0.1307  0.0247  0.0985
  353loPI   C2B 5646   8.840  13.674   8.971  0.3053 -0.1712 -0.1463
  353loPI   C3B 5647   8.754  13.684   8.533  0.2887 -0.1760  0.0596
  353loPI   C4B 5648   9.007  13.858   8.234 -0.3897  0.2728  0.0430
  354loPI    C1 5649  12.966  15.019  10.310 -0.0477 -0.1986 -0.0977
  354loPI    C2 5650  12.909  14.626  10.361  0.2717 -0.2518 -0.1238
  354loPI    C3 5651  12.818  14.882  10.655 -0.4212 -0.2877 -0.2881
  354loPI   PO4 5652  12.950  14.987  10.019  0.2395 -0.0147 -0.0147
  354loPI   GL1 5653  12.686  14.839   9.822 -0.0421  0.1238 -0.1582
  354loPI   GL2 5654  12.544  15.046   9.742 -0.1400 -0.2010  0.2643
  354loPI   C1A 5655  12.758  14.556   9.503 -0.0468 -0.1791  0.0622
  354loPI   C2A 5656  12.687  14.354   9.093  0.1379 -0.4561  0.0205
  354loPI   C3A 5657  12.791  14.339   8.619  0.0139 -0.3179 -0.0063
  354loPI   C4A 5658  12.710  14.418   8.186  0.1670 -0.1596  0.1377
  354loPI   C5A 5659  12.690  14.503   7.792 -0.0744  0.0860 -0.1816
  354loPI   C6A 5660  12.308  14.286   7.461  0.0455 -0.0399 -0.4169
  354loPI   C1B 5661  12.198  14.991   9.323 -0.1544 -0.5227  0.3659
  354loPI   C2B 5662  12.114  14.945   8.843  0.0976 -0.0809 -0.0195
  354loPI   C3B 5663  12.020  14.703   8.464  0.1791 -0.0687  0.0246
  354loPI   C4B 5664  11.860  14.755   8.121 -0.0491 -0.4716 -0.0146
  355loPI    C1 5665  16.628  17.353  10.484  0.0586  0.2294  0.0381
  355loPI    C2 5666  16.243  17.260  10.541  0.0577  0.2217  0.0183
  355loPI    C3 5667  16.345  17.631  10.431  0.0331  0.1522 -0.2469
  355loPI   PO4 5668  16.743  17.057  10.381  0.1602  0.1534 -0.1916
  355loPI   GL1 5669  16.868  16.783  10.079 -0.4041 -0.1869  0.0895
  355loPI   GL2 5670  17.001  16.502  10.051 -0.4600 -0.1696  0.1551
  355loPI   C1A 5671  16.770  16.793   9.644 -0.0689 -0.1515  0.1825
  355loPI   C2A 5672  16.883  16.935   9.203  0.0943 -0.0238  0.0236
  355loPI   C3A 5673  16.961  17.078   8.827  0.0094  0.0619  0.0535
  355loPI   C4A 5674  17.164  17.078   8.397  0.2696  0.1829  0.2117
  355loPI   C5A 5675  16.849  17.118   8.044 -0.0538  0.2527 -0.0068
  355loPI   C6A 5676  16.972  16.853   7.740  0.2451  0.1145 -0.2123
  355loPI   C1B 5677  17.350  16.901   9.894 -0.2351 -0.1313 -0.1570
  355loPI   C2B 5678  17.098  17.160   9.602 -0.0128  0.0424 -0.1101
  355loPI   C3B 5679  17.289  17.269   9.135  0.2376  0.1003 -0.4164
  355loPI   C4B 5680  17.341  17.404   8.689  0.0002 -0.2680  0.5194
  356loPI    C1 5681  12.130   2.377   9.678  0.1760  0.1910 -0.3882
  356loPI    C2 5682  12.073   2.726   9.865  0.0203  0.0160 -0.1007
  356loPI    C3 5683  12.107   2.389  10.077  0.3383 -0.1252 -0.3663
  356loPI   PO4 5684  11.955   2.333   9.485 -0.0063 -0.0732  0.2060
  356loPI   GL1 5685  11.900   2.253   9.121 -0.1341  0.1703  0.2780
  356loPI   GL2 5686  11.629   2.481   9.163  0.0234  0.0265 -0.1537
  356loPI   C1A 5687  12.023   2.116   8.707  0.1278 -0.1390  0.1976
  356loPI   C2A 5688  12.029   2.093   8.227  0.1701  0.0206  0.2041
  356loPI   C3A 5689  12.040   1.761   7.903  0.0846  0.2027 -0.0051
  356loPI   C4A 5690  12.390   1.721   7.589  0.1801  0.1740 -0.1626
  356loPI   C5A 5691  12.650   1.604   7.216  0.2135  0.1044 -0.0035
  356loPI   C6A 5692  13.103   1.556   7.126  0.1662 -0.1224 -0.3985
  356loPI   C1B 5693  11.686   2.513   8.759 -0.2716 -0.0555 -0.4670
  356loPI   C2B 5694  11.764   2.516   8.341  0.1149  0.1429  0.0278
  356loPI   C3B 5695  11.785   2.453   7.922 -0.1264 -0.1564 -0.3612
  356loPI   C4B 5696  12.012   2.265   7.714  0.0999  0.0827 -0.2666
  357loPI    C1 5697   5.091  15.405   9.742  0.3100 -0.0944 -0.0979
  357loPI    C2 5698   5.370  15.204   9.946  0.0854 -0.0582  0.2548
  357loPI    C3 5699   5.230  15.550  10.088 -0.1923 -0.1126  0.1208
  357loPI   PO4 5700   4.840  15.218   9.667 -0.1559  0.1159 -0.1808
  357loPI   GL1 5701   4.936  14.879   9.460  0.0632 -0.2365  0.3249
  357loPI   GL2 5702   4.713  14.769   9.262  0.3391 -0.2422  0.2452
  357loPI   C1A 5703   5.069  14.974   9.007 -0.3724  0.2230  0.2083
  357loPI   C2A 5704   5.042  15.046   8.564 -0.1953  0.0243 -0.0025
  357loPI   C3A 5705   5.067  14.839   8.145 -0.2607 -0.2399 -0.1048
  357loPI   C4A 5706   5.111  14.511   7.853 -0.0689 -0.1375 -0.5735
  357loPI   C5A 5707   4.849  14.246   7.739  0.0236 -0.2420 -0.2260
  357loPI   C6A 5708   4.307  14.192   7.693 -0.0902  0.0124 -0.0097
  357loPI   C1B 5709   4.595  14.810   8.831  0.1588 -0.1154  0.1374
  357loPI   C2B 5710   4.524  14.898   8.399  0.1131 -0.0539  0.1044
  357loPI   C3B 5711   4.451  15.074   7.994 -0.0259  0.0631 -0.0046
  357loPI   C4B 5712   4.349  15.487   7.716  0.1835 -0.0387 -0.0474
  358loPI    C1 5713  13.561   7.135   9.988  0.1259  0.1213  0.3660
  358loPI    C2 5714  13.476   6.878  10.282 -0.0018 -0.0752  0.1606
  358loPI    C3 5715  13.187   7.107  10.128 -0.0116 -0.2261 -0.0492
  358loPI   PO4 5716  13.714   7.014   9.717  0.2757  0.0641 -0.4306
  358loPI   GL1 5717  13.601   6.861   9.425 -0.1722  0.2755 -0.1526
  358loPI   GL2 5718  13.354   6.815   9.251  0.1748 -0.2084  0.1375
  358loPI   C1A 5719  13.941   6.782   9.111  0.5025  0.0999  0.1273
  358loPI   C2A 5720  14.154   6.887   8.864  0.0423 -0.0522 -0.1694
  358loPI   C3A 5721  14.385   6.735   8.446  0.0664 -0.0631 -0.2641
  358loPI   C4A 5722  14.571   6.724   8.065  0.2399  0.0788 -0.0035
  358loPI   C5A 5723  14.827   6.961   7.615  0.3675  0.0439 -0.0909
  358loPI   C6A 5724  15.192   7.099   7.350  0.0680 -0.0012 -0.1467
  358loPI   C1B 5725  13.432   6.680   8.875 -0.1267  0.3204 -0.1521
  358loPI   C2B 5726  13.337   6.742   8.461  0.0216  0.0675 -0.2160
  358loPI   C3B 5727  13.400   6.515   8.090 -0.1201  0.1056 -0.1059
  358loPI   C4B 5728  13.411   6.233   7.710 -0.4234  0.1296  0.0123
  359loPI    C1 5729  12.821  15.891   9.928  0.2327 -0.0104 -0.1425
  359loPI    C2 5730  12.859  16.089  10.273 -0.0442 -0.1916 -0.0047
  359loPI    C3 5731  12.505  15.934  10.169  0.0303 -0.1155 -0.3847
  359loPI   PO4 5732  12.952  16.022   9.754  0.1635  0.1813 -0.1902
  359loPI   GL1 5733  12.932  15.746   9.364  0.1299 -0.0590  0.3254
  359loPI   GL2 5734  12.926  15.433   9.278 -0.0536 -0.0746  0.0501
  359loPI   C1A 5735  12.743  15.834   9.013 -0.2288 -0.1749  0.4191
  359loPI   C2A 5736  12.785  15.712   8.511 -0.0318 -0.0587 -0.1423
  359loPI   C3A 5737  12.795  15.784   8.124 -0.1681  0.2320  0.2084
  359loPI   C4A 5738  12.705  15.850   7.763 -0.0223  0.1636  0.1326
  359loPI   C5A 5739  12.360  16.025   7.580  0.1289 -0.0871  0.2625
  359loPI   C6A 5740  11.914  16.022   7.778  0.2472  0.2609 -0.1895
  359loPI   C1B 5741  12.709  15.070   9.266  0.1647  0.0487  0.0804
  359loPI   C2B 5742  12.579  14.802   8.932  0.1907  0.2812  0.0047
  359loPI   C3B 5743  12.477  14.801   8.472 -0.5555  0.0189 -0.0160
  359loPI   C4B 5744  12.369  14.882   8.028  0.0232  0.0341  0.1653
  360loPI    C1 5745   4.725  13.067  10.322 -0.0157 -0.0544  0.1016
  360loPI    C2 5746   4.684  13.293  10.649  0.0693  0.1374 -0.0185
  360loPI    C3 5747   4.812  12.916  10.683 -0.0119  0.1255  0.1772
  360loPI   PO4 5748   4.591  13.023  10.205  0.1817 -0.0358  0.2947
  360loPI   GL1 5749   4.458  12.819   9.775  0.0639  0.0990  0.1246
  360loPI   GL2 5750   4.732  12.740   9.737  0.0440  0.2521  0.1468
  360loPI   C1A 5751   4.206  12.572   9.508 -0.2290 -0.3026  0.0075
  360loPI   C2A 5752   3.988  12.370   9.206 -0.0576  0.0093  0.2992
  360loPI   C3A 5753   3.867  12.316   8.750 -0.3392  0.0287 -0.1358
  360loPI   C4A 5754   3.755  12.211   8.266 -0.3366 -0.0417 -0.0564
  360loPI   C5A 5755   3.530  12.127   7.909  0.0872  0.1016  0.0905
  360loPI   C6A 5756   3.540  12.116   7.453  0.1444 -0.0904 -0.0049
  360loPI   C1B 5757   4.789  12.980   9.333 -0.0931 -0.4072 -0.2526
  360loPI   C2B 5758   4.796  12.890   8.936  0.1897 -0.3455  0.2489
  360loPI   C3B 5759   4.742  12.672   8.564 -0.3921 -0.0018 -0.3700
  360loPI   C4B 5760   4.654  12.562   8.204  0.0550  0.0906 -0.0045
  361loPI    C1 5761   4.295   3.072  10.245 -0.3160 -0.1466  0.2559
  361loPI    C2 5762   4.507   3.208  10.555 -0.0444 -0.1132  0.0583
  361loPI    C3 5763   4.359   2.836  10.562  0.0219 -0.1377  0.1976
  361loPI   PO4 5764   4.144   3.287  10.130  0.0646 -0.0694 -0.1472
  361loPI   GL1 5765   4.100   3.537   9.747 -0.1378 -0.1046 -0.1788
  361loPI   GL2 5766   4.106   3.877   9.624  0.0772  0.0343  0.4798
  361loPI   C1A 5767   4.373   3.456   9.393  0.0834  0.0851  0.0209
  361loPI   C2A 5768   4.252   3.626   9.020  0.1128  0.7892 -0.1430
  361loPI   C3A 5769   4.250   3.619   8.630  0.0672 -0.0781  0.1025
  361loPI   C4A 5770   4.270   3.371   8.241 -0.1194 -0.0060 -0.1838
  361loPI   C5A 5771   4.284   3.132   7.870 -0.1301 -0.0354 -0.5123
  361loPI   C6A 5772   4.305   3.034   7.407 -0.2553  0.0039 -0.0831
  361loPI   C1B 5773   4.378   3.994   9.341 -0.0334  0.0859 -0.3541
  361loPI   C2B 5774   4.413   4.086   9.047  0.2173 -0.0630  0.3832
  361loPI   C3B 5775   4.571   4.052   8.705  0.2514  0.0897  0.1226
  361loPI   C4B 5776   4.371   4.063   8.353 -0.3373 -0.0747 -0.1035
  362loPI    C1 5777  11.518   4.048  10.044  0.3274 -0.0744  0.0524
  362loPI    C2 5778  11.298   4.381  10.074  0.3086 -0.0704 -0.1172
  362loPI    C3 5779  11.558   4.285  10.363  0.0922 -0.0701  0.0800
  362loPI   PO4 5780  11.615   4.146   9.775 -0.1342 -0.1597 -0.2309
  362loPI   GL1 5781  12.002   4.303   9.564  0.1409 -0.1435 -0.1787
  362loPI   GL2 5782  11.843   4.352   9.325  0.0378  0.0549  0.2856
  362loPI   C1A 5783  12.412   4.231   9.228 -0.1239 -0.0355 -0.1149
  362loPI   C2A 5784  12.484   4.245   8.826 -0.1273 -0.1357 -0.0437
  362loPI   C3A 5785  12.624   4.022   8.462 -0.2753  0.3368  0.3943
  362loPI   C4A 5786  12.429   3.948   8.123 -0.0473 -0.1202  0.1499
  362loPI   C5A 5787  12.203   4.015   7.635 -0.1307  0.2340 -0.1069
  362loPI   C6A 5788  12.314   3.920   7.315  0.1503 -0.1185 -0.1576
  362loPI   C1B 5789  12.033   4.473   8.894 -0.0262  0.1501 -0.3838
  362loPI   C2B 5790  11.981   4.494   8.498 -0.6924 -0.1339 -0.0522
  362loPI   C3B 5791  11.809   4.558   8.140 -0.0955 -0.2919 -0.0812
  362loPI   C4B 5792  11.610   4.658   7.737  0.2951  0.0808  0.1097
  363loPI    C1 5793   0.214   2.351  10.350 -0.2813  0.1085  0.1174
  363loPI    C2 5794   0.135   1.973  10.248 -0.3400  0.1650 -0.0489
  363loPI    C3 5795   0.328   2.051  10.589 -0.1256 -0.0270 -0.1235
  363loPI   PO4 5796   0.382   2.482  10.168  0.4383  0.0760 -0.0912
  363loPI   GL1 5797   0.383   2.159   9.821  0.1430 -0.0554  0.0143
  363loPI   GL2 5798   0.361   2.452   9.667  0.1839  0.0071  0.0342
  363loPI   C1A 5799   0.487   1.984   9.442  0.0398 -0.0063  0.0516
  363loPI   C2A 5800   0.190   2.086   9.061 -0.1766 -0.1532 -0.0294
  363loPI   C3A 5801   0.148   1.986   8.637  0.4645 -0.1603 -0.2545
  363loPI   C4A 5802   0.292   1.812   8.291 -0.4346  0.2958 -0.2947
  363loPI   C5A 5803   0.312   1.689   7.814  0.3724 -0.0921  0.0036
  363loPI   C6A 5804   0.583   1.415   7.818  0.1516  0.0147 -0.2825
  363loPI   C1B 5805   0.140   2.497   9.357 -0.1804  0.1078 -0.1692
  363loPI   C2B 5806   0.129   2.865   9.166  0.2532  0.0009  0.1487
  363loPI   C3B 5807   0.235   3.347   9.123 -0.0194  0.2539 -0.0814
  363loPI   C4B 5808   0.405   3.513   8.733  0.2433 -0.6784  0.1720
  364loPI    C1 5809  13.844   2.851   9.892  0.2359 -0.1438  0.0482
  364loPI    C2 5810  13.785   2.940  10.277 -0.3907 -0.0762 -0.0524
  364loPI    C3 5811  14.146   2.992  10.112 -0.1619  0.0684  0.4738
  364loPI   PO4 5812  13.598   2.955   9.752 -0.0306 -0.1720  0.1431
  364loPI   GL1 5813  13.490   2.947   9.421 -0.3520 -0.5113 -0.1156
  364loPI   GL2 5814  13.458   2.719   9.246 -0.1854  0.1184 -0.0575
  364loPI   C1A 5815  13.102   3.057   9.146  0.1406  0.1876  0.0294
  364loPI   C2A 5816  13.146   3.128   8.748 -0.2230  0.2981  0.2801
  364loPI   C3A 5817  13.102   3.152   8.347  0.3063 -0.1853  0.3298
  364loPI   C4A 5818  12.998   3.082   7.873 -0.0346 -0.2211  0.0169
  364loPI   C5A 5819  12.730   3.180   7.489 -0.0357  0.0217  0.3266
  364loPI   C6A 5820  12.327   3.199   7.431 -0.0868  0.1315 -0.0241
  364loPI   C1B 5821  13.458   2.748   8.850 -0.2009 -0.3953  0.0329
  364loPI   C2B 5822  13.377   2.733   8.392 -0.1483 -0.0938  0.1576
  364loPI   C3B 5823  13.456   2.829   7.921 -0.1344 -0.1199 -0.1059
  364loPI   C4B 5824  13.524   2.880   7.542 -0.0488 -0.4095  0.0907
  365loPI    C1 5825  17.677  12.181   9.556 -0.0302  0.5706  0.2056
  365loPI    C2 5826  17.290  12.101   9.497  0.0712  0.0468  0.1981
  365loPI    C3 5827  17.435  12.123   9.869 -0.0008  0.4536  0.2072
  365loPI   PO4 5828  17.755  12.397   9.301  0.1552  0.3092 -0.1145
  365loPI   GL1 5829  17.479  12.378   9.010  0.0886 -0.1338  0.0082
  365loPI   GL2 5830  17.303  12.505   9.078  0.0794 -0.3289  0.2131
  365loPI   C1A 5831  17.688  12.335   8.686  0.1568 -0.3122  0.2724
  365loPI   C2A 5832  17.586  12.403   8.285 -0.0500 -0.0435  0.3751
  365loPI   C3A 5833  17.568  12.677   7.917 -0.2626 -0.1941 -0.1888
  365loPI   C4A 5834  17.475  12.992   7.699 -0.1901  0.2336  0.0224
  365loPI   C5A 5835  17.243  13.160   7.513 -0.4094 -0.0068  0.1689
  365loPI   C6A 5836  16.852  13.344   7.535  0.0457 -0.3785 -0.0509
  365loPI   C1B 5837  17.156  12.452   8.601  0.2217 -0.2557 -0.3531
  365loPI   C2B 5838  17.102  12.532   8.117 -0.1588  0.3182 -0.0440
  365loPI   C3B 5839  17.073  12.634   7.680 -0.1222 -0.0690 -0.0648
  365loPI   C4B 5840  16.885  12.800   7.417 -0.0863 -0.0365 -0.1767
  366loPI    C1 5841  17.972   7.401   9.704  0.1080  0.0113  0.2390
  366loPI    C2 5842  18.004   7.497   9.317 -0.2235 -0.1202  0.1756
  366loPI    C3 5843  18.203   7.708   9.593 -0.1415  0.1003 -0.0481
  366loPI   PO4 5844  17.666   7.355   9.678  0.2445 -0.1415  0.1908
  366loPI   GL1 5845  17.350   7.122   9.427 -0.0926 -0.2761 -0.2613
  366loPI   GL2 5846  17.452   6.766   9.464  0.2807 -0.0376 -0.1972
  366loPI   C1A 5847  17.401   7.106   8.922  0.2503 -0.2979  0.2421
  366loPI   C2A 5848  17.466   6.914   8.615  0.1146  0.2746  0.0749
  366loPI   C3A 5849  17.232   6.569   8.329 -0.0688  0.0699  0.1297
  366loPI   C4A 5850  17.183   6.482   7.911  0.0780  0.3330 -0.4502
  366loPI   C5A 5851  17.249   6.078   7.604  0.3268  0.2068  0.4016
  366loPI   C6A 5852  17.202   5.553   7.701  0.2029  0.0146  0.1230
  366loPI   C1B 5853  17.560   6.542   9.092 -0.0815 -0.2145  0.2195
  366loPI   C2B 5854  17.569   6.407   8.719  0.0698 -0.1936 -0.0021
  366loPI   C3B 5855  17.696   6.412   8.283  0.1763 -0.0880 -0.0815
  366loPI   C4B 5856  17.833   6.357   7.881 -0.0191  0.0633  0.1042
  367loPI    C1 5857  17.105   1.503   9.775  0.0732 -0.1215  0.0844
  367loPI    C2 5858  17.319   1.684  10.060  0.0335  0.0161  0.0272
  367loPI    C3 5859  17.172   1.318  10.123  0.3176 -0.0954  0.0531
  367loPI   PO4 5860  16.962   1.689   9.684 -0.0448 -0.0495 -0.0048
  367loPI   GL1 5861  16.719   1.737   9.336 -0.0593 -0.1269  0.0925
  367loPI   GL2 5862  16.554   2.104   9.279  0.0951  0.1714  0.1211
  367loPI   C1A 5863  16.736   1.714   8.873  0.3203  0.2203  0.2293
  367loPI   C2A 5864  16.860   1.693   8.498  0.2274  0.0230  0.1654
  367loPI   C3A 5865  16.990   1.523   8.002 -0.0723  0.3251  0.0648
  367loPI   C4A 5866  17.316   1.340   7.780 -0.1175  0.0565 -0.1736
  367loPI   C5A 5867  17.363   0.952   7.635  0.0402  0.3354  0.1574
  367loPI   C6A 5868  16.979   0.702   7.566  0.0660 -0.1623  0.1051
  367loPI   C1B 5869  16.561   2.144   8.830 -0.1207  0.0723  0.2079
  367loPI   C2B 5870  16.524   2.062   8.426 -0.0692  0.0873  0.1146
  367loPI   C3B 5871  16.504   2.078   7.966  0.0967  0.4570 -0.0913
  367loPI   C4B 5872  16.610   2.090   7.545 -0.0698  0.0937  0.4067
  368loPI    C1 5873  10.779   7.575   9.544  0.1147 -0.1855  0.2458
  368loPI    C2 5874  10.627   7.320   9.276  0.2045  0.0398 -0.0250
  368loPI    C3 5875  10.726   7.190   9.642 -0.1779 -0.2123 -0.0046
  368loPI   PO4 5876  10.507   7.776   9.465  0.3023 -0.2457  0.0929
  368loPI   GL1 5877  10.322   8.010   9.211  0.0808 -0.0659 -0.0660
  368loPI   GL2 5878  10.087   7.784   9.175  0.0003 -0.2217 -0.0631
  368loPI   C1A 5879  10.141   8.336   8.930  0.0033 -0.0701 -0.0895
  368loPI   C2A 5880  10.037   8.304   8.587  0.2333  0.0663 -0.4615
  368loPI   C3A 5881   9.905   8.280   8.184 -0.4133  0.0146  0.2073
  368loPI   C4A 5882   9.606   8.286   7.849  0.1286 -0.0496 -0.1094
  368loPI   C5A 5883   9.583   8.288   7.405 -0.1308  0.1059 -0.0410
  368loPI   C6A 5884   9.201   8.157   7.190  0.2399  0.0028 -0.0493
  368loPI   C1B 5885  10.233   7.875   8.730 -0.0516  0.4384  0.0763
  368loPI   C2B 5886  10.290   7.963   8.210 -0.0927 -0.0573  0.1232
  368loPI   C3B 5887  10.447   7.821   7.704  0.2435  0.0377 -0.3951
  368loPI   C4B 5888  10.254   7.700   7.352  0.0399 -0.1417 -0.1324
  369loPI    C1 5889  13.770  16.504  10.031  0.0099  0.3322 -0.0783
  369loPI    C2 5890  14.046  16.581  10.311 -0.0880  0.2440  0.0435
  369loPI    C3 5891  13.847  16.234  10.316 -0.0609  0.2241 -0.1607
  369loPI   PO4 5892  13.844  16.549   9.846  0.1320  0.0487  0.0710
  369loPI   GL1 5893  14.035  16.473   9.564 -0.4012  0.2037  0.1348
  369loPI   GL2 5894  13.933  16.247   9.340 -0.0556  0.0404 -0.1422
  369loPI   C1A 5895  13.979  16.716   9.163  0.1560 -0.1485 -0.0332
  369loPI   C2A 5896  14.006  16.898   8.813 -0.0515  0.0908  0.0728
  369loPI   C3A 5897  13.693  16.929   8.609  0.3569 -0.1337  0.5578
  369loPI   C4A 5898  13.410  17.023   8.181  0.0249 -0.2487 -0.0653
  369loPI   C5A 5899  13.220  16.890   7.792  0.0914 -0.0852  0.1740
  369loPI   C6A 5900  12.853  17.001   7.593 -0.2854  0.0794  0.0604
  369loPI   C1B 5901  13.698  16.291   9.015 -0.2254 -0.2115 -0.2201
  369loPI   C2B 5902  13.698  16.461   8.725  0.0974  0.1168  0.0182
  369loPI   C3B 5903  13.715  16.606   8.202  0.0420 -0.0182 -0.1244
  369loPI   C4B 5904  13.884  16.644   7.760 -0.1651  0.1956  0.0343
  370loPI    C1 5905   6.801  13.661  10.057 -0.0295 -0.1096  0.0974
  370loPI    C2 5906   6.676  13.344  10.267 -0.0454 -0.0459  0.1845
  370loPI    C3 5907   6.529  13.707  10.346 -0.1510 -0.0408 -0.0267
  370loPI   PO4 5908   6.794  13.557   9.817  0.1479  0.1116 -0.0213
  370loPI   GL1 5909   6.901  13.753   9.419 -0.3021  0.1685  0.0602
  370loPI   GL2 5910   7.053  14.017   9.641 -0.0294  0.3584 -0.1548
  370loPI   C1A 5911   7.178  13.994   8.989 -0.2362 -0.2680 -0.1575
  370loPI   C2A 5912   7.065  14.151   8.555  0.1719 -0.2267  0.0347
  370loPI   C3A 5913   6.959  14.519   8.404  0.1425 -0.0334  0.0782
  370loPI   C4A 5914   6.724  14.725   7.993 -0.0599 -0.1518 -0.0805
  370loPI   C5A 5915   6.596  14.848   7.568 -0.1536 -0.0482 -0.1389
  370loPI   C6A 5916   6.619  14.789   7.141  0.1572  0.2345 -0.0385
  370loPI   C1B 5917   6.932  14.249   9.284 -0.0657  0.1781  0.0438
  370loPI   C2B 5918   6.673  14.380   8.859  0.0379  0.0081  0.0999
  370loPI   C3B 5919   6.530  14.219   8.416 -0.1740 -0.0174  0.1989
  370loPI   C4B 5920   6.466  14.236   7.988  0.1343 -0.5227 -0.2938
  371loPI    C1 5921   1.196   1.129  10.462  0.0791 -0.1625  0.3007
  371loPI    C2 5922   1.124   1.417  10.730  0.1733  0.0341  0.1177
  371loPI    C3 5923   0.943   1.062  10.764 -0.2764  0.2561  0.1056
  371loPI   PO4 5924   1.232   1.302  10.165 -0.2084  0.0031  0.0030
  371loPI   GL1 5925   1.280   1.198   9.719 -0.0542  0.0734  0.0681
  371loPI   GL2 5926   1.329   1.532   9.706 -0.2977  0.2295  0.0218
  371loPI   C1A 5927   0.989   1.062   9.349  0.0361 -0.0182  0.2336
  371loPI   C2A 5928   0.690   1.137   9.004 -0.2910  0.2229  0.0728
  371loPI   C3A 5929   0.746   1.089   8.494  0.1601  0.1147 -0.2159
  371loPI   C4A 5930   1.116   0.920   8.044  0.3355 -0.0937  0.0503
  371loPI   C5A 5931   1.519   0.705   7.991 -0.0021 -0.1397 -0.1984
  371loPI   C6A 5932   1.793   0.469   8.160 -0.0726  0.0303  0.1403
  371loPI   C1B 5933   1.277   1.422   9.264 -0.0860 -0.2462  0.0074
  371loPI   C2B 5934   1.182   1.343   8.881  0.4990  0.2023  0.0733
  371loPI   C3B 5935   1.304   1.448   8.593 -0.4756  0.0298  0.0480
  371loPI   C4B 5936   1.369   1.564   8.171  0.0480  0.1131 -0.0167
  372loPI    C1 5937   9.561  12.785  10.068  0.2007 -0.1940 -0.1011
  372loPI    C2 5938   9.789  13.034  10.281  0.1731 -0.0232 -0.2682
  372loPI    C3 5939   9.641  12.704  10.451 -0.0431  0.2291  0.0455
  372loPI   PO4 5940   9.685  12.673   9.874 -0.1568  0.1969 -0.3895
  372loPI   GL1 5941   9.760  12.982   9.499 -0.0913 -0.3312  0.0465
  372loPI   GL2 5942   9.490  13.165   9.308 -0.0846 -0.1148 -0.0795
  372loPI   C1A 5943   9.583  12.720   9.097  0.0683 -0.2878 -0.1912
  372loPI   C2A 5944   9.525  12.415   8.848 -0.2735 -0.0415  0.3621
  372loPI   C3A 5945   9.296  12.309   8.437 -0.0973  0.2213 -0.2527
  372loPI   C4A 5946   9.211  12.398   8.065 -0.0991  0.0058  0.0169
  372loPI   C5A 5947   9.457  12.223   7.697  0.0367  0.0362 -0.0621
  372loPI   C6A 5948   9.681  12.348   7.354 -0.0261 -0.1643  0.1591
  372loPI   C1B 5949   9.364  13.326   9.026 -0.1038 -0.1382  0.3026
  372loPI   C2B 5950   9.204  13.467   8.546 -0.0873 -0.4596  0.2838
  372loPI   C3B 5951   9.291  13.492   8.133  0.2337 -0.1305 -0.0184
  372loPI   C4B 5952   8.926  13.567   7.787  0.2274  0.0021 -0.2110
  373loPI    C1 5953   4.279   2.793   9.823 -0.0639 -0.2000  0.0215
  373loPI    C2 5954   4.651   2.732   9.688 -0.1651 -0.1900 -0.2676
  373loPI    C3 5955   4.510   3.105   9.724 -0.0612 -0.1812  0.0862
  373loPI   PO4 5956   4.114   2.706   9.689  0.0209 -0.2001 -0.1582
  373loPI   GL1 5957   3.888   2.707   9.304  0.3327  0.0733  0.0608
  373loPI   GL2 5958   3.895   2.370   9.397 -0.1100  0.0680 -0.1815
  373loPI   C1A 5959   3.920   2.547   8.930  0.0466 -0.4132 -0.2399
  373loPI   C2A 5960   3.777   2.497   8.460 -0.0409  0.2075  0.0853
  373loPI   C3A 5961   3.646   2.535   8.024  0.1212 -0.0678 -0.0379
  373loPI   C4A 5962   3.838   2.285   7.684  0.0777  0.2942  0.1439
  373loPI   C5A 5963   4.102   2.233   7.393  0.2584 -0.1856  0.4013
  373loPI   C6A 5964   4.576   2.279   7.347  0.0207 -0.1876 -0.1513
  373loPI   C1B 5965   3.868   2.073   9.137  0.1489  0.2086 -0.0383
  373loPI   C2B 5966   3.829   2.059   8.717  0.1336 -0.0812  0.2078
  373loPI   C3B 5967   3.951   1.960   8.371 -0.1751  0.0490 -0.0521
  373loPI   C4B 5968   4.027   2.076   8.041  0.1611  0.1495 -0.0880
  374loPI    C1 5969   2.324   4.169  10.040  0.0584 -0.0873 -0.0799
  374loPI    C2 5970   2.337   3.806  10.208 -0.0947 -0.0522  0.0090
  374loPI    C3 5971   2.423   4.131  10.426  0.3280 -0.0564 -0.1441
  374loPI   PO4 5972   2.149   4.199   9.860  0.2825 -0.1092 -0.1990
  374loPI   GL1 5973   2.172   4.431   9.476 -0.1459 -0.0823 -0.3581
  374loPI   GL2 5974   1.819   4.516   9.310  0.1670  0.1198 -0.1520
  374loPI   C1A 5975   2.201   4.512   8.984  0.3447 -0.0051  0.1224
  374loPI   C2A 5976   2.078   4.656   8.625 -0.3046 -0.0101  0.0807
  374loPI   C3A 5977   1.992   4.893   8.200 -0.1991  0.1843  0.2152
  374loPI   C4A 5978   2.044   5.019   7.787  0.2391 -0.1646  0.0678
  374loPI   C5A 5979   2.012   4.712   7.360  0.0467  0.1203 -0.2339
  374loPI   C6A 5980   2.276   4.579   7.065  0.2844  0.2560 -0.3578
  374loPI   C1B 5981   1.578   4.678   8.942 -0.4012  0.1227 -0.1973
  374loPI   C2B 5982   1.607   4.822   8.557 -0.3319 -0.0739 -0.1909
  374loPI   C3B 5983   1.557   4.683   8.100  0.1410  0.0923 -0.0136
  374loPI   C4B 5984   1.842   4.478   7.907 -0.1307 -0.2201  0.0616
  375loPI    C1 5985   0.843  16.353  10.164  0.2744 -0.0704  0.2277
  375loPI    C2 5986   0.567  16.085  10.274  0.2047 -0.1138 -0.0460
  375loPI    C3 5987   0.949  16.034  10.380  0.1420 -0.1595  0.1624
  375loPI   PO4 5988   0.768  16.365   9.840 -0.1662  0.1925 -0.1279
  375loPI   GL1 5989   1.024  16.450   9.543 -0.3535  0.0980 -0.5997
  375loPI   GL2 5990   1.236  16.154   9.581 -0.2018 -0.3210  0.2852
  375loPI   C1A 5991   0.987  16.563   9.126  0.1240  0.1704 -0.1503
  375loPI   C2A 5992   0.994  16.516   8.767 -0.0995  0.2310 -0.1012
  375loPI   C3A 5993   0.969  16.820   8.477 -0.0546 -0.3768  0.0781
  375loPI   C4A 5994   1.051  17.284   8.324  0.0380 -0.0960  0.1064
  375loPI   C5A 5995   1.079  17.699   8.102 -0.0751 -0.2468  0.2521
  375loPI   C6A 5996   0.879  18.015   7.827  0.1197 -0.0400 -0.1619
  375loPI   C1B 5997   1.290  16.153   9.169 -0.2212 -0.1049 -0.0908
  375loPI   C2B 5998   1.377  16.226   8.793  0.2807  0.0478 -0.0639
  375loPI   C3B 5999   1.249  16.396   8.340  0.2628 -0.0196 -0.0575
  375loPI   C4B 6000   1.183  16.337   7.905  0.1225 -0.0572  0.1262
  376loPI    C1 6001   7.534  17.245  10.662  0.1717 -0.3326 -0.0799
  376loPI    C2 6002   7.388  17.615  10.624  0.0612 -0.3918 -0.2446
  376loPI    C3 6003   7.494  17.478  10.984 -0.2353 -0.3267 -0.1302
  376loPI   PO4 6004   7.429  17.145  10.394 -0.2020  0.3101 -0.1180
  376loPI   GL1 6005   7.683  17.043  10.089  0.0680  0.2950 -0.0605
  376loPI   GL2 6006   7.752  16.889   9.795  0.0442 -0.1892 -0.2862
  376loPI   C1A 6007   7.532  17.293   9.677  0.3128 -0.1178  0.1510
  376loPI   C2A 6008   7.400  17.590   9.478  0.1003 -0.0657  0.1501
  376loPI   C3A 6009   7.337  17.447   8.975 -0.0075  0.1982  0.0981
  376loPI   C4A 6010   7.209  17.312   8.544  0.0342  0.0318  0.2256
  376loPI   C5A 6011   7.217  17.229   8.074 -0.0936  0.3362 -0.0179
  376loPI   C6A 6012   7.159  16.900   7.777  0.2105  0.2319  0.0785
  376loPI   C1B 6013   7.772  16.678   9.303  0.2843 -0.1534 -0.1604
  376loPI   C2B 6014   7.905  16.513   8.958  0.0877  0.1979  0.0977
  376loPI   C3B 6015   7.905  16.401   8.577 -0.1229 -0.1071 -0.0569
  376loPI   C4B 6016   7.861  16.369   8.164 -0.0237 -0.0343  0.1770
  377loPI    C1 6017   1.831   8.478   9.829  0.1127 -0.0110 -0.1077
  377loPI    C2 6018   2.067   8.230  10.036  0.2003 -0.2024 -0.4300
  377loPI    C3 6019   1.815   8.473  10.228  0.1862 -0.4678 -0.1049
  377loPI   PO4 6020   1.944   8.472   9.600 -0.0073  0.3867  0.4138
  377loPI   GL1 6021   2.153   8.310   9.190 -0.2633  0.2112 -0.0894
  377loPI   GL2 6022   2.313   8.419   9.056 -0.2448  0.0714 -0.0904
  377loPI   C1A 6023   2.056   7.997   8.802  0.2353 -0.2817 -0.3536
  377loPI   C2A 6024   2.037   7.999   8.365 -0.2126 -0.0614  0.0561
  377loPI   C3A 6025   1.922   7.872   8.024  0.1608 -0.0268 -0.3335
  377loPI   C4A 6026   1.920   7.953   7.604 -0.1460 -0.1025  0.1362
  377loPI   C5A 6027   1.615   8.011   7.274  0.2092  0.0307  0.1099
  377loPI   C6A 6028   1.476   8.094   6.791  0.3193 -0.0843 -0.0693
  377loPI   C1B 6029   2.275   8.398   8.652 -0.1062  0.2147  0.0324
  377loPI   C2B 6030   2.229   8.390   8.173 -0.0535  0.0673 -0.0130
  377loPI   C3B 6031   2.176   8.333   7.609  0.2603  0.0047  0.0022
  377loPI   C4B 6032   1.932   8.377   7.219 -0.2184  0.1586 -0.1057
  378loPI    C1 6033   8.567  12.696  10.086 -0.0391 -0.2364 -0.1563
  378loPI    C2 6034   8.217  12.572  10.233 -0.0413  0.0036  0.0476
  378loPI    C3 6035   8.545  12.350  10.286 -0.1418 -0.1719 -0.0547
  378loPI   PO4 6036   8.609  12.860   9.814  0.2220 -0.2797 -0.1035
  378loPI   GL1 6037   8.331  12.648   9.435  0.1921 -0.2076  0.1404
  378loPI   GL2 6038   8.698  12.678   9.353 -0.1858  0.3571  0.0964
  378loPI   C1A 6039   8.383  12.344   9.175 -0.0539  0.4004 -0.1090
  378loPI   C2A 6040   8.254  12.129   8.761  0.2088 -0.1600  0.0041
  378loPI   C3A 6041   8.202  11.955   8.354  0.0397  0.3562 -0.1165
  378loPI   C4A 6042   7.936  11.999   8.006  0.1014  0.1495 -0.0324
  378loPI   C5A 6043   7.537  12.182   7.802  0.0065  0.3441  0.1229
  378loPI   C6A 6044   7.253  12.565   7.928 -0.1227  0.0243 -0.3313
  378loPI   C1B 6045   8.608  12.757   9.021 -0.0229 -0.3759 -0.5495
  378loPI   C2B 6046   8.461  12.539   8.763 -0.2039 -0.3183  0.0525
  378loPI   C3B 6047   8.604  12.268   8.385  0.2848 -0.2142 -0.0759
  378loPI   C4B 6048   8.688  11.885   8.079  0.0705 -0.4619  0.1143
  379loPI    C1 6049   9.877  10.505  10.088  0.1305  0.0281 -0.3542
  379loPI    C2 6050   9.627  10.203  10.011 -0.0562  0.0394  0.1659
  379loPI    C3 6051   9.963  10.137  10.219  0.0278  0.1473  0.0656
  379loPI   PO4 6052   9.901  10.664   9.863 -0.3307  0.0511  0.2555
  379loPI   GL1 6053  10.094  10.580   9.541 -0.0816 -0.1154  0.0353
  379loPI   GL2 6054  10.006  10.277   9.523  0.4302 -0.0359  0.0026
  379loPI   C1A 6055  10.110  10.732   9.149  0.1250  0.3436  0.2432
  379loPI   C2A 6056  10.249  11.021   8.851 -0.2082 -0.2348  0.0234
  379loPI   C3A 6057  10.229  11.134   8.494 -0.2521  0.0830  0.2190
  379loPI   C4A 6058  10.113  11.026   8.090  0.1331 -0.0708 -0.3546
  379loPI   C5A 6059  10.108  11.163   7.731 -0.1372 -0.2583 -0.0953
  379loPI   C6A 6060  10.153  11.398   7.518 -0.0006  0.1253  0.3669
  379loPI   C1B 6061   9.993  10.075   9.115  0.1800  0.0471  0.1483
  379loPI   C2B 6062   9.909   9.860   8.663  0.0168 -0.1032  0.0444
  379loPI   C3B 6063  10.047   9.733   8.230 -0.1912 -0.2895  0.1049
  379loPI   C4B 6064  10.054   9.764   7.803 -0.1104 -0.0098  0.0996
  380loPI    C1 6065   0.381  11.049   9.962 -0.0393  0.1298 -0.1103
  380loPI    C2 6066   0.021  10.897  10.049  0.0375  0.0679  0.1077
  380loPI    C3 6067   0.317  10.656   9.927  0.0187  0.1129 -0.0293
  380loPI   PO4 6068   0.330  11.294   9.849 -0.0287  0.1251 -0.2366
  380loPI   GL1 6069   0.254  11.465   9.490  0.1818  0.1224 -0.0761
  380loPI   GL2 6070   0.691  11.437   9.466  0.1111 -0.0034 -0.0268
  380loPI   C1A 6071   0.355  11.499   9.121  0.0526 -0.0366  0.2837
  380loPI   C2A 6072   0.736  11.253   8.956 -0.0888 -0.0366 -0.1095
  380loPI   C3A 6073   0.840  11.255   8.646  0.0617  0.2932 -0.2309
  380loPI   C4A 6074   0.631  11.312   8.222  0.1329 -0.0383  0.1119
  380loPI   C5A 6075   0.689  11.464   7.891  0.2657 -0.1770 -0.1749
  380loPI   C6A 6076   0.720  11.674   7.510 -0.2409  0.1111 -0.0445
  380loPI   C1B 6077   1.013  11.257   9.375  0.0097  0.0538 -0.2569
  380loPI   C2B 6078   1.162  11.035   9.031  0.3683  0.1903 -0.0832
  380loPI   C3B 6079   1.263  10.996   8.601 -0.4590  0.1735 -0.3050
  380loPI   C4B 6080   1.263  11.418   8.216 -0.2137 -0.2045 -0.1530
  381loPI    C1 6081   4.800   4.037  10.320  0.0116 -0.0600 -0.1612
  381loPI    C2 6082   5.017   3.849  10.598  0.1741  0.2378 -0.0826
  381loPI    C3 6083   4.621   3.793  10.582  0.2012  0.0030  0.0299
  381loPI   PO4 6084   4.868   3.967  10.086 -0.1879  0.1397  0.3032
  381loPI   GL1 6085   4.881   4.024   9.538 -0.4217 -0.1286  0.1371
  381loPI   GL2 6086   5.123   4.119   9.335  0.0181  0.0105  0.0403
  381loPI   C1A 6087   4.769   3.734   9.267  0.5007 -0.2639 -0.3167
  381loPI   C2A 6088   4.746   3.602   8.858  0.2113  0.1131  0.2969
  381loPI   C3A 6089   4.720   3.660   8.442 -0.5471  0.0175 -0.2456
  381loPI   C4A 6090   4.761   3.433   8.208  0.0978 -0.3304 -0.1059
  381loPI   C5A 6091   4.739   3.302   7.811 -0.0492 -0.0214  0.2983
  381loPI   C6A 6092   4.772   3.253   7.354  0.2226  0.1136  0.3392
  381loPI   C1B 6093   5.053   4.216   8.846 -0.1907  0.1142 -0.0292
  381loPI   C2B 6094   4.952   4.148   8.434 -0.2592 -0.0441 -0.0463
  381loPI   C3B 6095   4.873   4.026   8.037 -0.0873 -0.0517 -0.1900
  381loPI   C4B 6096   4.416   3.772   7.988 -0.2813 -0.1673  0.1267
  382loPI    C1 6097  11.936   5.561   9.882  0.0272 -0.3131  0.1733
  382loPI    C2 6098  11.617   5.322   9.922  0.0408 -0.2873  0.4590
  382loPI    C3 6099  11.649   5.651  10.147 -0.1826  0.2197 -0.2174
  382loPI   PO4 6100  12.024   5.511   9.663  0.1429 -0.4410  0.4362
  382loPI   GL1 6101  12.123   5.522   9.192 -0.0335 -0.0123 -0.0999
  382loPI   GL2 6102  11.850   5.388   9.025  0.0295  0.2728 -0.1805
  382loPI   C1A 6103  12.333   5.339   8.839 -0.2334 -0.2147 -0.2719
  382loPI   C2A 6104  12.361   5.294   8.351  0.1443  0.1394 -0.6810
  382loPI   C3A 6105  12.171   5.352   7.979 -0.0205  0.0232  0.1924
  382loPI   C4A 6106  12.011   5.356   7.583  0.3556 -0.0127 -0.0987
  382loPI   C5A 6107  11.882   5.389   7.120  0.1049  0.0528  0.1418
  382loPI   C6A 6108  11.515   5.505   6.936  0.0200 -0.0496  0.0871
  382loPI   C1B 6109  11.940   5.042   8.714  0.0265  0.3501 -0.1384
  382loPI   C2B 6110  11.851   5.102   8.244  0.0680  0.2152 -0.0787
  382loPI   C3B 6111  11.594   5.172   7.861  0.2719  0.0917  0.0624
  382loPI   C4B 6112  11.530   5.280   7.508  0.3553  0.0981  0.1862
  383loPI    C1 6113   4.397  17.179   9.839  0.1604  0.0155  0.0828
  383loPI    C2 6114   4.530  17.301  10.196  0.0235 -0.0668  0.1627
  383loPI    C3 6115   4.285  17.535   9.983 -0.2067 -0.1810  0.2982
  383loPI   PO4 6116   4.310  16.913   9.902 -0.0459 -0.3096 -0.1398
  383loPI   GL1 6117   4.040  16.774   9.585  0.0206  0.2064  0.2479
  383loPI   GL2 6118   3.920  16.597   9.527 -0.3540  0.1928  0.0635
  383loPI   C1A 6119   4.066  17.043   9.315 -0.2494  0.2544 -0.0122
  383loPI   C2A 6120   4.017  17.165   8.912  0.0887 -0.0949 -0.3075
  383loPI   C3A 6121   3.932  17.146   8.488 -0.1915  0.0858 -0.3777
  383loPI   C4A 6122   3.984  17.193   8.104 -0.1069  0.0608 -0.0540
  383loPI   C5A 6123   3.661  17.262   7.707 -0.0767  0.2137  0.0262
  383loPI   C6A 6124   3.399  17.410   7.330  0.3848 -0.1277  0.0469
  383loPI   C1B 6125   3.935  16.641   9.085  0.1299  0.1775  0.0353
  383loPI   C2B 6126   3.828  16.638   8.686 -0.1505  0.2988  0.0255
  383loPI   C3B 6127   3.920  16.685   8.307 -0.1572 -0.2298  0.2087
  383loPI   C4B 6128   3.780  16.836   7.842 -0.0743  0.1548 -0.2367
  384loPI    C1 6129  12.051   8.501   9.798  0.2300 -0.0970 -0.1353
  384loPI    C2 6130  12.071   8.541  10.195 -0.1193  0.2289 -0.1447
  384loPI    C3 6131  12.214   8.211  10.020 -0.1017  0.0130  0.2637
  384loPI   PO4 6132  12.130   8.647   9.589 -0.2492 -0.0275 -0.1353
  384loPI   GL1 6133  12.004   8.833   9.259  0.2435 -0.1942  0.1571
  384loPI   GL2 6134  11.774   9.091   9.240  0.0136 -0.1005 -0.0591
  384loPI   C1A 6135  12.039   8.799   8.793 -0.0054  0.3826  0.2269
  384loPI   C2A 6136  11.907   8.877   8.344 -0.0980  0.0073  0.2577
  384loPI   C3A 6137  11.735   8.774   7.975  0.0746 -0.0288 -0.1379
  384loPI   C4A 6138  11.356   8.413   7.864 -0.1356 -0.0794  0.1377
  384loPI   C5A 6139  10.946   8.352   7.646 -0.1799  0.0032  0.1798
  384loPI   C6A 6140  10.531   8.240   7.451  0.0032 -0.0711 -0.2529
  384loPI   C1B 6141  11.526   9.062   8.690  0.2443  0.0512  0.1346
  384loPI   C2B 6142  11.415   9.059   8.355  0.3507 -0.3145  0.2613
  384loPI   C3B 6143  11.482   9.172   8.013 -0.0320  0.1325 -0.4427
  384loPI   C4B 6144  11.488   9.234   7.565 -0.2053  0.3853 -0.1242
  385loPI    C1 6145  11.257  17.239  10.011 -0.2082  0.2415  0.0713
  385loPI    C2 6146  11.558  17.031  10.172 -0.1754  0.0933 -0.1760
  385loPI    C3 6147  11.359  17.298  10.393  0.0884  0.1398  0.0105
  385loPI   PO4 6148  11.334  17.172   9.777 -0.0883 -0.0019  0.0811
  385loPI   GL1 6149  11.336  16.787   9.455  0.4653 -0.3111  0.0280
  385loPI   GL2 6150  11.002  16.726   9.449  0.0944 -0.3130  0.0506
  385loPI   C1A 6151  11.485  16.651   8.980  0.0614 -0.0149  0.0031
  385loPI   C2A 6152  11.771  16.629   8.714  0.3755 -0.1023 -0.1686
  385loPI   C3A 6153  11.890  16.494   8.375 -0.3703 -0.0844 -0.2574
  385loPI   C4A 6154  12.167  16.504   8.044  0.0151 -0.2570 -0.0060
  385loPI   C5A 6155  12.019  16.575   7.638 -0.1725  0.0216  0.0786
  385loPI   C6A 6156  12.023  16.708   7.180 -0.0176  0.0499  0.1632
  385loPI   C1B 6157  10.978  16.615   9.025 -0.0113 -0.0041  0.0032
  385loPI   C2B 6158  10.998  16.570   8.591  0.0821  0.3205 -0.3297
  385loPI   C3B 6159  10.797  16.663   8.322 -0.1064  0.0587  0.0129
  385loPI   C4B 6160  10.704  16.944   7.950  0.0454  0.0532 -0.0872
  386loPI    C1 6161  17.515  15.239  10.253 -0.0255 -0.0720  0.2308
  386loPI    C2 6162  17.299  15.498  10.037  0.0527 -0.0761  0.1473
  386loPI    C3 6163  17.229  15.456  10.429  0.1066  0.1450  0.1820
  386loPI   PO4 6164  17.534  15.040  10.045 -0.2015  0.3401  0.2181
  386loPI   GL1 6165  17.355  14.962   9.700 -0.0688 -0.1107  0.1417
  386loPI   GL2 6166  17.057  14.764   9.641  0.0821 -0.3601 -0.2379
  386loPI   C1A 6167  17.551  15.213   9.350 -0.2500 -0.0981  0.1230
  386loPI   C2A 6168  17.588  15.418   8.965 -0.1179  0.1453 -0.3842
  386loPI   C3A 6169  17.551  15.476   8.548 -0.0144  0.2359  0.0150
  386loPI   C4A 6170  17.561  15.478   8.094  0.1407  0.0343  0.0628
  386loPI   C5A 6171  17.672  15.363   7.620 -0.2058 -0.3901 -0.0070
  386loPI   C6A 6172  18.087  15.312   7.683 -0.0409  0.1072 -0.2676
  386loPI   C1B 6173  17.154  14.860   9.152 -0.2608  0.2571 -0.1460
  386loPI   C2B 6174  17.315  15.021   8.888  0.2300  0.0394  0.1885
  386loPI   C3B 6175  17.240  14.994   8.417  0.0321  0.1063  0.0409
  386loPI   C4B 6176  17.268  15.095   7.987 -0.2991 -0.2563  0.2658
  387loPI    C1 6177   2.708   2.157  10.511  0.0404  0.1417 -0.1227
  387loPI    C2 6178   2.884   1.843  10.686 -0.1010  0.1170 -0.0233
  387loPI    C3 6179   3.050   2.205  10.713 -0.1037  0.1070  0.1342
  387loPI   PO4 6180   2.661   2.006  10.178  0.1979 -0.2019 -0.0805
  387loPI   GL1 6181   2.502   2.070   9.859 -0.0760 -0.0492  0.0507
  387loPI   GL2 6182   2.219   2.136   9.815  0.0573  0.2075 -0.0340
  387loPI   C1A 6183   2.638   2.213   9.554 -0.0322  0.0190 -0.2384
  387loPI   C2A 6184   2.906   2.261   9.265  0.2356  0.2026  0.0619
  387loPI   C3A 6185   2.837   2.202   8.827 -0.2884 -0.0599 -0.0798
  387loPI   C4A 6186   2.785   2.220   8.421  0.0358 -0.0333  0.0554
  387loPI   C5A 6187   3.138   2.371   8.124 -0.1824  0.1568 -0.0229
  387loPI   C6A 6188   3.293   2.367   7.660  0.3170 -0.2385  0.2102
  387loPI   C1B 6189   2.123   2.038   9.432 -0.2193 -0.1658  0.2609
  387loPI   C2B 6190   2.416   2.056   9.113  0.0597 -0.0417 -0.1750
  387loPI   C3B 6191   2.323   2.150   8.663 -0.2815 -0.1359  0.0504
  387loPI   C4B 6192   2.063   1.962   8.416 -0.1688 -0.0719  0.0155
  388loPI    C1 6193  10.498  16.347  10.340 -0.0594 -0.3194 -0.1020
  388loPI    C2 6194  10.285  16.638  10.513 -0.3243 -0.3306 -0.4004
  388loPI    C3 6195  10.528  16.410  10.734 -0.1053  0.1202 -0.1636
  388loPI   PO4 6196  10.550  16.505  10.094  0.1686  0.1610 -0.0831
  388loPI   GL1 6197  10.574  16.463   9.684 -0.0624 -0.2309 -0.0346
  388loPI   GL2 6198  10.216  16.473   9.685 -0.1475 -0.0020 -0.4090
  388loPI   C1A 6199  10.558  16.663   9.246 -0.1525  0.0733  0.1822
  388loPI   C2A 6200  10.525  16.656   8.780  0.2538 -0.0543  0.4043
  388loPI   C3A 6201  10.329  16.900   8.419 -0.3305 -0.1912 -0.0048
  388loPI   C4A 6202  10.159  17.039   8.175  0.0511 -0.3215  0.1528
  388loPI   C5A 6203   9.703  17.048   7.949  0.0625 -0.0533 -0.0714
  388loPI   C6A 6204   9.396  17.169   7.672 -0.1041  0.0899 -0.0971
  388loPI   C1B 6205  10.232  16.320   9.245  0.3311  0.0283 -0.1304
  388loPI   C2B 6206  10.109  16.257   8.814  0.0304  0.1706 -0.2586
  388loPI   C3B 6207  10.134  16.076   8.395 -0.0757  0.4430 -0.1182
  388loPI   C4B 6208  10.061  15.756   7.973  0.2611  0.1183  0.0151
  389loPI    C1 6209   5.711   3.672  10.306  0.1466 -0.0073 -0.5306
  389loPI    C2 6210   6.055   3.698  10.509 -0.0752  0.1120 -0.1610
  389loPI    C3 6211   5.796   3.404  10.590 -0.0928  0.0622 -0.3904
  389loPI   PO4 6212   5.685   3.701  10.072  0.0055 -0.0362 -0.1032
  389loPI   GL1 6213   5.875   3.516   9.672 -0.1539 -0.4104  0.1896
  389loPI   GL2 6214   5.900   3.869   9.593  0.1578 -0.0954 -0.1740
  389loPI   C1A 6215   5.730   3.317   9.200 -0.2485 -0.1328 -0.1769
  389loPI   C2A 6216   5.610   3.146   8.810  0.4339 -0.0597  0.1173
  389loPI   C3A 6217   5.623   2.809   8.543 -0.2365  0.0764  0.1170
  389loPI   C4A 6218   5.905   2.782   8.271  0.1226 -0.1883 -0.3775
  389loPI   C5A 6219   5.928   2.876   7.935 -0.1947 -0.0147  0.2460
  389loPI   C6A 6220   6.106   3.304   7.858  0.0897  0.0874 -0.3137
  389loPI   C1B 6221   6.118   3.701   9.313  0.1300  0.0411  0.0855
  389loPI   C2B 6222   6.236   3.397   8.985  0.1374  0.0139  0.1787
  389loPI   C3B 6223   6.595   3.413   8.737 -0.1645  0.2754 -0.3159
  389loPI   C4B 6224   6.850   3.510   8.399  0.1760  0.1114 -0.0330
  390loPI    C1 6225   0.226   8.016  10.079  0.2240  0.0038 -0.0179
  390loPI    C2 6226   0.452   7.699  10.171 -0.1040 -0.1607  0.2417
  390loPI    C3 6227   0.229   7.874  10.453 -0.4273 -0.1040 -0.0424
  390loPI   PO4 6228   0.143   7.971   9.914  0.0530 -0.0338 -0.4558
  390loPI   GL1 6229   0.089   8.156   9.559  0.2331  0.1638  0.2580
  390loPI   GL2 6230   0.219   8.418   9.589  0.0646  0.3102  0.0042
  390loPI   C1A 6231   0.337   8.122   9.112  0.0552 -0.0419  0.0897
  390loPI   C2A 6232   0.444   8.008   8.802 -0.2407  0.1230 -0.2379
  390loPI   C3A 6233   0.542   8.128   8.306 -0.2297 -0.2445 -0.0137
  390loPI   C4A 6234   0.450   8.050   7.961 -0.2580 -0.0196 -0.1283
  390loPI   C5A 6235   0.203   7.904   7.703 -0.0647 -0.4639 -0.1829
  390loPI   C6A 6236   0.342   7.489   7.831 -0.1124  0.4186 -0.2171
  390loPI   C1B 6237   0.032   8.525   9.128  0.1014  0.1959  0.0358
  390loPI   C2B 6238   0.157   8.458   8.699 -0.1024 -0.1413  0.4129
  390loPI   C3B 6239   0.170   8.515   8.150  0.0124 -0.1247 -0.4190
  390loPI   C4B 6240   0.316   8.547   7.747  0.3292  0.0906  0.0735
  391loPI    C1 6241  10.076  17.136  10.404  0.1206 -0.1602 -0.2328
  391loPI    C2 6242  10.393  17.183  10.644 -0.0610  0.1064 -0.0388
  391loPI    C3 6243  10.059  17.014  10.785 -0.0537 -0.0495 -0.2039
  391loPI   PO4 6244  10.096  17.278  10.257 -0.1804 -0.0844 -0.0718
  391loPI   GL1 6245  10.001  17.246   9.819  0.1042  0.2177 -0.1482
  391loPI   GL2 6246   9.959  17.216   9.424  0.0139 -0.1409  0.2093
  391loPI   C1A 6247   9.592  17.278   9.821  0.3911  0.1196 -0.0912
  391loPI   C2A 6248   9.307  17.506   9.518  0.4645 -0.2565 -0.0542
  391loPI   C3A 6249   9.299  17.573   9.100 -0.2252 -0.0040 -0.0978
  391loPI   C4A 6250   9.284  17.333   8.718 -0.1060 -0.0813  0.1740
  391loPI   C5A 6251   9.400  16.882   8.547 -0.1692 -0.1014  0.0253
  391loPI   C6A 6252   9.326  16.579   8.208  0.1513 -0.1623  0.3542
  391loPI   C1B 6253   9.528  17.149   9.193  0.1446  0.1147 -0.0194
  391loPI   C2B 6254   9.321  16.885   9.052  0.0884 -0.0929  0.1391
  391loPI   C3B 6255   9.178  16.514   8.828  0.0262  0.0596 -0.1512
  391loPI   C4B 6256   9.214  16.116   8.781  0.0939  0.1082 -0.1094
  392loPI    C1 6257  11.141   5.229   9.715 -0.0218  0.1299 -0.0307
  392loPI    C2 6258  10.758   5.221   9.600  0.0042  0.0697 -0.1142
  392loPI    C3 6259  10.862   5.411   9.937 -0.0871  0.1583 -0.1353
  392loPI   PO4 6260  11.335   4.966   9.527  0.0057  0.0776  0.1805
  392loPI   GL1 6261  11.513   4.761   9.230 -0.2717  0.3771 -0.2501
  392loPI   GL2 6262  11.520   5.043   9.031  0.1716  0.1213  0.1279
  392loPI   C1A 6263  11.194   4.571   8.973 -0.0252 -0.2236  0.0450
  392loPI   C2A 6264  10.931   4.651   8.481 -0.1294 -0.0597 -0.3415
  392loPI   C3A 6265  10.847   4.489   8.015  0.0236 -0.0187  0.0270
  392loPI   C4A 6266  10.892   4.386   7.597  0.1327  0.2285 -0.2292
  392loPI   C5A 6267  11.327   4.364   7.385 -0.0058 -0.0969  0.2290
  392loPI   C6A 6268  11.401   4.046   7.026  0.1656 -0.3294 -0.0704
  392loPI   C1B 6269  11.476   4.848   8.676 -0.2218  0.0631 -0.4443
  392loPI   C2B 6270  11.379   4.772   8.214 -0.1173 -0.1877  0.0231
  392loPI   C3B 6271  11.143   4.940   7.865  0.2988  0.2493 -0.0331
  392loPI   C4B 6272  11.209   4.913   7.419  0.1665 -0.2211 -0.1475
  393loPI    C1 6273   6.522  17.445  10.501  0.0121  0.1007  0.0030
  393loPI    C2 6274   6.524  17.134  10.753 -0.3115 -0.0823 -0.2118
  393loPI    C3 6275   6.309  17.461  10.839 -0.1969 -0.0304 -0.1198
  393loPI   PO4 6276   6.565  17.365  10.301 -0.0324  0.1044 -0.1203
  393loPI   GL1 6277   6.728  17.277   9.946  0.1324 -0.2207  0.4328
  393loPI   GL2 6278   7.019  17.509   9.805  0.2631  0.4466 -0.0726
  393loPI   C1A 6279   6.846  16.910   9.574 -0.2768 -0.2847 -0.0653
  393loPI   C2A 6280   6.981  16.592   9.293 -0.2068 -0.0669 -0.0738
  393loPI   C3A 6281   6.900  16.286   8.889  0.3496  0.0767 -0.2297
  393loPI   C4A 6282   6.826  16.181   8.488  0.1248  0.1326 -0.4864
  393loPI   C5A 6283   6.725  16.055   8.092 -0.1604 -0.3654 -0.4042
  393loPI   C6A 6284   6.564  15.829   7.783  0.0764  0.2372  0.0521
  393loPI   C1B 6285   7.055  17.294   9.369  0.0213 -0.0835 -0.1978
  393loPI   C2B 6286   6.966  17.042   9.077  0.2444  0.0586  0.0007
  393loPI   C3B 6287   7.051  16.860   8.651  0.0468 -0.3965  0.2192
  393loPI   C4B 6288   7.152  16.771   8.246  0.1540  0.3341  0.0676
  394loPI    C1 6289   8.561   9.387  10.203 -0.0437  0.3979 -0.0702
  394loPI    C2 6290   8.324   9.621  10.425  0.1071  0.2701  0.2310
  394loPI    C3 6291   8.675   9.495  10.571  0.0553 -0.0953  0.0507
  394loPI   PO4 6292   8.333   9.325  10.017  0.1425  0.4818 -0.0546
  394loPI   GL1 6293   8.299   9.342   9.529  0.2076 -0.0679  0.1937
  394loPI   GL2 6294   8.019   9.561   9.637 -0.0085  0.0716 -0.0269
  394loPI   C1A 6295   8.398   9.421   9.135  0.1564 -0.2167 -0.2266
  394loPI   C2A 6296   8.617   9.423   8.762  0.0283 -0.0941  0.3020
  394loPI   C3A 6297   8.526   9.591   8.430 -0.2384 -0.0959 -0.0752
  394loPI   C4A 6298   8.363   9.582   8.133  0.1082 -0.2936 -0.0195
  394loPI   C5A 6299   8.215   9.654   7.794  0.0920 -0.0825 -0.1077
  394loPI   C6A 6300   8.071  10.086   7.764  0.0229 -0.1070 -0.0678
  394loPI   C1B 6301   8.064   9.758   9.271  0.0120  0.1272  0.3504
  394loPI   C2B 6302   7.992   9.772   8.747  0.1672 -0.4427 -0.0866
  394loPI   C3B 6303   7.889   9.746   8.247 -0.2247 -0.0379  0.1640
  394loPI   C4B 6304   7.729   9.536   7.856  0.4742  0.5899 -0.2477
  395loPI    C1 6305  17.285   4.021   9.983  0.1683  0.0476 -0.0433
  395loPI    C2 6306  17.145   3.714  10.198  0.0628  0.1884  0.0923
  395loPI    C3 6307  17.273   4.045  10.382  0.1483  0.2383 -0.0543
  395loPI   PO4 6308  17.092   4.043   9.699 -0.2743  0.1812 -0.2616
  395loPI   GL1 6309  17.158   3.740   9.302 -0.2155 -0.1050 -0.0868
  395loPI   GL2 6310  17.495   3.574   9.244 -0.0675 -0.0880  0.3072
  395loPI   C1A 6311  17.108   3.513   8.996  0.0076  0.0599  0.0069
  395loPI   C2A 6312  17.080   3.505   8.627  0.1838 -0.1786 -0.0957
  395loPI   C3A 6313  17.238   3.684   8.280  0.0154  0.0866 -0.0356
  395loPI   C4A 6314  17.439   3.937   8.038 -0.3152  0.1442  0.0952
  395loPI   C5A 6315  17.460   3.945   7.587 -0.0935 -0.1611  0.1607
  395loPI   C6A 6316  17.202   4.309   7.468 -0.0847 -0.0682  0.1095
  395loPI   C1B 6317  17.581   3.601   8.761 -0.2330  0.2189  0.4663
  395loPI   C2B 6318  17.724   3.649   8.315  0.0889  0.1017  0.1383
  395loPI   C3B 6319  18.011   3.580   7.989  0.2820 -0.0484  0.1158
  395loPI   C4B 6320  18.187   3.247   7.701 -0.0663  0.0016  0.0028
  396loPI    C1 6321  16.615  18.935  10.024 -0.0012 -0.0129 -0.2236
  396loPI    C2 6322  16.340  19.107  10.257 -0.1198 -0.2663 -0.1737
  396loPI    C3 6323  16.727  19.133  10.353 -0.1545 -0.2221 -0.0431
  396loPI   PO4 6324  16.531  19.101   9.777  0.3717  0.1520  0.1364
  396loPI   GL1 6325  16.585  19.511   9.441  0.1301 -0.3309 -0.3161
  396loPI   GL2 6326  16.538  19.843   9.390  0.0225 -0.0485  0.0231
  396loPI   C1A 6327  16.440  19.462   9.017  0.0548  0.0957 -0.2749
  396loPI   C2A 6328  16.339  19.055   8.726 -0.2093 -0.2073 -0.1511
  396loPI   C3A 6329  16.377  18.911   8.415 -0.0445 -0.1177  0.1666
  396loPI   C4A 6330  16.623  18.789   7.995  0.2088 -0.0911 -0.2138
  396loPI   C5A 6331  16.521  18.723   7.497 -0.0561 -0.0353  0.2373
  396loPI   C6A 6332  16.408  18.454   7.232  0.1368  0.0655  0.0335
  396loPI   C1B 6333  16.702  19.825   8.987  0.0671 -0.1050 -0.0324
  396loPI   C2B 6334  16.640  19.753   8.536  0.2895 -0.1774 -0.0903
  396loPI   C3B 6335  16.387  19.453   8.278  0.3304  0.0316 -0.0251
  396loPI   C4B 6336  16.369  19.212   8.011  0.1524  0.0686 -0.2857
  397loPI    C1 6337   6.154  16.830  10.339  0.1319  0.1898 -0.1683
  397loPI    C2 6338   6.494  16.693  10.499 -0.0457 -0.0202  0.0354
  397loPI    C3 6339   6.168  16.736  10.727 -0.0970  0.3949 -0.1076
  397loPI   PO4 6340   6.085  16.681  10.127  0.1328  0.0537 -0.4420
  397loPI   GL1 6341   6.212  16.664   9.713 -0.1231  0.3775 -0.0334
  397loPI   GL2 6342   6.121  16.818   9.568  0.0673 -0.1739 -0.1828
  397loPI   C1A 6343   6.493  16.527   9.396  0.0286 -0.2939  0.2673
  397loPI   C2A 6344   6.528  16.581   8.940 -0.1414 -0.2574 -0.1143
  397loPI   C3A 6345   6.567  16.673   8.471 -0.0866  0.3446 -0.1309
  397loPI   C4A 6346   6.734  16.533   8.069  0.0259 -0.0004 -0.1846
  397loPI   C5A 6347   7.000  16.411   7.781 -0.0621  0.1410 -0.1955
  397loPI   C6A 6348   7.064  16.535   7.412  0.1769  0.0337 -0.1882
  397loPI   C1B 6349   6.415  16.952   9.204 -0.2027  0.0475  0.1320
  397loPI   C2B 6350   6.448  17.165   8.857 -0.0304  0.0811 -0.0151
  397loPI   C3B 6351   6.618  17.140   8.544  0.2160  0.3310  0.1089
  397loPI   C4B 6352   6.706  16.983   8.120 -0.3999 -0.0002  0.1746
  398loPI    C1 6353  11.305   0.532   9.883 -0.1033  0.0581 -0.2409
  398loPI    C2 6354  11.648   0.738   9.896 -0.0864  0.0177  0.0066
  398loPI    C3 6355  11.361   0.810  10.165 -0.1640 -0.1367 -0.0335
  398loPI   PO4 6356  11.207   0.510   9.636 -0.0749  0.0847  0.1760
  398loPI   GL1 6357  11.482   0.170   9.333  0.2303  0.0221 -0.1136
  398loPI   GL2 6358  11.136   0.250   9.151 -0.4474  0.1965 -0.0264
  398loPI   C1A 6359  11.487   0.119   8.907 -0.0574  0.1998  0.0311
  398loPI   C2A 6360  11.334   0.309   8.543 -0.0089  0.2984  0.2772
  398loPI   C3A 6361  11.602   0.372   8.289 -0.0651  0.3161  0.4593
  398loPI   C4A 6362  11.870   0.273   8.008  0.1706 -0.0726  0.0054
  398loPI   C5A 6363  12.133   0.376   7.631 -0.0376 -0.0902  0.1236
  398loPI   C6A 6364  12.392   0.270   7.256 -0.2689 -0.1411  0.1083
  398loPI   C1B 6365  10.968   0.167   8.846  0.1928  0.0161 -0.2484
  398loPI   C2B 6366  11.086  -0.110   8.503 -0.2473  0.1412  0.0682
  398loPI   C3B 6367  11.541  -0.164   8.415 -0.4237 -0.0165 -0.1143
  398loPI   C4B 6368  11.826  -0.410   8.622 -0.2424  0.0244 -0.1683
  399loPI    C1 6369  11.136  15.641  10.286  0.0259 -0.0643  0.0701
  399loPI    C2 6370  11.181  15.564  10.676 -0.1617 -0.1928  0.0677
  399loPI    C3 6371  11.429  15.399  10.410  0.1377  0.1102  0.1514
  399loPI   PO4 6372  11.199  15.891  10.217  0.1699 -0.0222  0.0981
  399loPI   GL1 6373  11.204  16.027   9.900 -0.0355 -0.0440 -0.0980
  399loPI   GL2 6374  11.015  16.186   9.713  0.0677 -0.1197 -0.2313
  399loPI   C1A 6375  11.160  15.771   9.518  0.3035 -0.3090 -0.2028
  399loPI   C2A 6376  11.023  15.765   9.152 -0.1731  0.3901 -0.4097
  399loPI   C3A 6377  11.014  15.780   8.720 -0.1533 -0.2043 -0.0076
  399loPI   C4A 6378  10.948  15.860   8.367 -0.0036 -0.2044 -0.0412
  399loPI   C5A 6379  10.965  15.934   7.895  0.1759  0.0532 -0.1539
  399loPI   C6A 6380  10.902  15.996   7.519 -0.0747  0.1025  0.4113
  399loPI   C1B 6381  10.776  16.185   9.275 -0.3416 -0.0193 -0.1985
  399loPI   C2B 6382  10.641  16.063   8.964 -0.3004 -0.0034 -0.2526
  399loPI   C3B 6383  10.599  16.205   8.560  0.3153  0.0730  0.1855
  399loPI   C4B 6384  10.373  16.473   8.195  0.1928 -0.1575  0.2214
  400loPI    C1 6385   4.687  17.980   9.875 -0.1018 -0.0289 -0.2410
  400loPI    C2 6386   4.530  17.905  10.235 -0.1825  0.1316 -0.2419
  400loPI    C3 6387   4.885  17.750  10.135 -0.0925  0.2034 -0.0394
  400loPI   PO4 6388   4.529  17.896   9.737  0.0249  0.1058 -0.1733
  400loPI   GL1 6389   4.458  17.525   9.463 -0.1135 -0.4369 -0.1983
  400loPI   GL2 6390   4.350  17.743   9.177 -0.1439 -0.0526 -0.4018
  400loPI   C1A 6391   4.517  17.300   9.069  0.0928  0.0079 -0.0688
  400loPI   C2A 6392   4.495  17.317   8.629  0.4679 -0.1279 -0.0351
  400loPI   C3A 6393   4.572  17.392   8.188 -0.3665 -0.1207  0.0549
  400loPI   C4A 6394   4.738  17.163   7.806 -0.0296  0.0474 -0.0715
  400loPI   C5A 6395   4.920  16.995   7.447 -0.2358  0.0433  0.4120
  400loPI   C6A 6396   4.903  17.146   7.081  0.1972  0.2165 -0.3443
  400loPI   C1B 6397   4.543  17.744   8.883 -0.0635 -0.0525 -0.0969
  400loPI   C2B 6398   4.585  17.800   8.463  0.0613 -0.1349 -0.1952
  400loPI   C3B 6399   4.624  17.991   8.114 -0.1673  0.1741 -0.2412
  400loPI   C4B 6400   4.252  18.171   8.000  0.0067 -0.6222 -0.0490
  401loPI    C1 6401   0.574  12.623  10.079  0.1349  0.0063  0.0076
  401loPI    C2 6402   0.543  12.893  10.373  0.0103 -0.0412  0.0388
  401loPI    C3 6403   0.634  12.513  10.458 -0.0190 -0.0535  0.0154
  401loPI   PO4 6404   0.471  12.707   9.903  0.0403  0.0503 -0.2058
  401loPI   GL1 6405   0.502  12.716   9.462 -0.1507  0.1483 -0.0166
  401loPI   GL2 6406   0.483  12.970   9.481  0.2227 -0.0258 -0.2260
  401loPI   C1A 6407   0.401  12.430   9.114  0.1210 -0.1078  0.2339
  401loPI   C2A 6408   0.304  12.369   8.744 -0.0464 -0.1780  0.1067
  401loPI   C3A 6409   0.352  12.431   8.316 -0.2473 -0.4153 -0.0025
  401loPI   C4A 6410   0.291  12.549   7.912 -0.3036  0.0087  0.1645
  401loPI   C5A 6411  -0.042  12.264   7.825  0.0506 -0.0351 -0.1097
  401loPI   C6A 6412  -0.167  12.161   7.494 -0.3701  0.0666  0.1113
  401loPI   C1B 6413   0.340  12.956   9.041 -0.0158 -0.0407 -0.0677
  401loPI   C2B 6414   0.314  12.864   8.609 -0.0235  0.2549  0.2455
  401loPI   C3B 6415   0.358  12.943   8.162 -0.4109 -0.0129  0.0259
  401loPI   C4B 6416   0.593  12.876   7.742 -0.1861  0.1382 -0.3550
  402loPI    C1 6417   7.708  13.071  10.123  0.1789 -0.1104 -0.2337
  402loPI    C2 6418   7.427  12.846  10.297  0.0741  0.0899 -0.1413
  402loPI    C3 6419   7.756  12.674  10.149 -0.0689 -0.1398 -0.1982
  402loPI   PO4 6420   7.526  13.230   9.977 -0.1026  0.0233 -0.1994
  402loPI   GL1 6421   7.514  13.076   9.588 -0.0924  0.0873 -0.0529
  402loPI   GL2 6422   7.799  13.072   9.379 -0.0474 -0.0357 -0.0622
  402loPI   C1A 6423   7.250  13.125   9.123  0.1570 -0.0527 -0.3343
  402loPI   C2A 6424   6.955  12.893   8.814  0.0226  0.3436  0.0568
  402loPI   C3A 6425   6.906  12.689   8.360 -0.0237  0.4216 -0.0573
  402loPI   C4A 6426   6.726  12.738   8.078  0.0459  0.1816  0.2037
  402loPI   C5A 6427   6.768  12.722   7.671 -0.1062 -0.0629  0.1295
  402loPI   C6A 6428   7.015  12.433   7.376  0.0691  0.0648 -0.0297
  402loPI   C1B 6429   7.696  12.912   9.043 -0.2220 -0.2025  0.0540
  402loPI   C2B 6430   7.458  12.912   8.653  0.3941  0.2523  0.0105
  402loPI   C3B 6431   7.365  13.088   8.326 -0.1375  0.2029 -0.0130
  402loPI   C4B 6432   7.207  13.445   8.127  0.1455 -0.0528  0.2392
  403loPI    C1 6433  11.000  18.037   9.756 -0.1635 -0.0828 -0.1987
  403loPI    C2 6434  10.798  17.852  10.048  0.1510 -0.0966  0.0149
  403loPI    C3 6435  11.098  17.664   9.862  0.2131  0.0571 -0.0415
  403loPI   PO4 6436  11.039  18.272   9.804 -0.1094  0.0523 -0.2740
  403loPI   GL1 6437  11.009  18.561   9.457 -0.1672  0.1047  0.0473
  403loPI   GL2 6438  10.655  18.565   9.499  0.2086  0.1703 -0.2703
  403loPI   C1A 6439  11.217  18.528   9.029 -0.2869 -0.3257 -0.0492
  403loPI   C2A 6440  11.137  18.298   8.734 -0.2940 -0.0579 -0.0777
  403loPI   C3A 6441  11.161  18.315   8.353 -0.2471  0.0768  0.0944
  403loPI   C4A 6442  11.137  18.491   7.928  0.0845 -0.1012 -0.0072
  403loPI   C5A 6443  10.865  18.442   7.537 -0.1252  0.2126 -0.0478
  403loPI   C6A 6444  11.043  18.399   7.163  0.2744 -0.0412 -0.0035
  403loPI   C1B 6445  10.535  18.691   9.144  0.0735 -0.1960  0.1385
  403loPI   C2B 6446  10.726  18.646   8.790 -0.1505 -0.1978 -0.1662
  403loPI   C3B 6447  10.703  18.453   8.421  0.0215  0.2040  0.2212
  403loPI   C4B 6448  10.683  18.230   7.999  0.0866 -0.3103  0.2752
  404loPI    C1 6449  16.256  11.033  10.142  0.2785  0.0706  0.1275
  404loPI    C2 6450  16.208  11.366   9.926 -0.2454 -0.0968 -0.0297
  404loPI    C3 6451  16.445  11.369  10.249  0.0828  0.3122 -0.2644
  404loPI   PO4 6452  16.235  10.853   9.940  0.2450 -0.4678 -0.2984
  404loPI   GL1 6453  16.360  11.032   9.505  0.3377  0.1455  0.0324
  404loPI   GL2 6454  16.461  10.841   9.255 -0.2430 -0.1899 -0.0289
  404loPI   C1A 6455  16.058  11.288   9.139  0.1706 -0.0074 -0.0106
  404loPI   C2A 6456  16.024  11.303   8.621  0.1068 -0.1728 -0.1183
  404loPI   C3A 6457  16.126  11.326   8.219  0.4052 -0.3129 -0.0830
  404loPI   C4A 6458  15.978  11.552   7.887 -0.0531 -0.1504  0.0503
  404loPI   C5A 6459  15.885  11.633   7.513 -0.1050 -0.1038  0.1646
  404loPI   C6A 6460  15.803  11.865   7.212 -0.1693 -0.3214 -0.0259
  404loPI   C1B 6461  16.754  10.613   8.946 -0.0835 -0.2330 -0.0237
  404loPI   C2B 6462  16.758  10.547   8.498 -0.0269 -0.2641 -0.2887
  404loPI   C3B 6463  16.598  10.788   8.135  0.0166  0.0447  0.0133
  404loPI   C4B 6464  16.407  11.112   7.863 -0.4259  0.2020  0.1677
  405loPI    C1 6465  14.845  14.703   9.989 -0.2088 -0.4333 -0.1141
  405loPI    C2 6466  14.720  14.855  10.337 -0.1418 -0.4548 -0.0804
  405loPI    C3 6467  14.934  14.517  10.332 -0.0118 -0.3724 -0.1308
  405loPI   PO4 6468  14.775  14.874   9.836  0.1107 -0.2171  0.2854
  405loPI   GL1 6469  14.919  14.993   9.496 -0.3286 -0.0238  0.3126
  405loPI   GL2 6470  14.683  15.170   9.392 -0.0332  0.4226 -0.2922
  405loPI   C1A 6471  15.101  15.292   9.207 -0.0410  0.2449 -0.4257
  405loPI   C2A 6472  15.130  15.443   8.791  0.2661  0.1470  0.0730
  405loPI   C3A 6473  15.095  15.697   8.454  0.1193 -0.2353  0.2121
  405loPI   C4A 6474  14.899  15.986   8.375  0.2277  0.1111 -0.1965
  405loPI   C5A 6475  14.798  16.295   8.044 -0.2090 -0.1626  0.0151
  405loPI   C6A 6476  14.802  16.309   7.531  0.0728  0.0183 -0.3732
  405loPI   C1B 6477  14.673  15.222   8.914  0.1017  0.1796  0.1174
  405loPI   C2B 6478  14.444  15.173   8.621  0.2020 -0.0189  0.1082
  405loPI   C3B 6479  14.230  15.103   8.282  0.1666 -0.0986 -0.1516
  405loPI   C4B 6480  13.904  15.096   7.950  0.0992  0.0832 -0.0270
  406POPI    C1 6481  14.971  16.611  10.059  0.1598 -0.0139 -0.2751
  406POPI    C2 6482  15.337  16.586   9.900  0.2759 -0.0289 -0.0115
  406POPI    C3 6483  15.211  16.307  10.158  0.0972  0.0041 -0.0616
  406POPI   PO4 6484  14.844  16.623   9.814 -0.0153  0.2396 -0.2077
  406POPI   GL1 6485  15.019  16.599   9.448  0.1842  0.2388  0.1140
  406POPI   GL2 6486  15.196  16.952   9.453  0.0052 -0.2984  0.2814
  406POPI   C1A 6487  15.141  16.592   9.126 -0.1887  0.0227  0.1623
  406POPI   D2A 6488  15.464  16.669   8.980  0.2664 -0.2296  0.2459
  406POPI   C3A 6489  15.565  16.606   8.512 -0.0942  0.1815 -0.1822
  406POPI   C4A 6490  15.695  16.843   8.115 -0.0603  0.0757 -0.2773
  406POPI   C1B 6491  15.540  16.616   9.458  0.2359  0.0939 -0.0445
  406POPI   C2B 6492  15.885  16.535   9.187  0.1324  0.0062 -0.0813
  406POPI   C3B 6493  15.864  16.241   8.746  0.1647  0.0414 -0.0603
  406POPI   C4B 6494  16.014  15.969   8.455 -0.2101  0.1535 -0.0126
  407POPI    C1 6495  12.890  15.527  10.256  0.0623 -0.1853 -0.0951
  407POPI    C2 6496  12.937  15.411  10.636  0.1894  0.1817  0.0064
  407POPI    C3 6497  13.257  15.461  10.401  0.1203  0.0958 -0.1075
  407POPI   PO4 6498  12.608  15.407  10.194  0.0050  0.6357  0.3930
  407POPI   GL1 6499  12.416  15.529   9.781  0.2447 -0.0958 -0.0177
  407POPI   GL2 6500  12.329  15.858   9.708  0.3379 -0.4652 -0.0177
  407POPI   C1A 6501  12.367  15.492   9.279  0.1483 -0.2076 -0.5737
  407POPI   D2A 6502  12.422  15.438   8.923 -0.1651 -0.0153 -0.4484
  407POPI   C3A 6503  12.694  15.238   8.682 -0.2496  0.0115  0.0337
  407POPI   C4A 6504  12.648  15.268   8.299 -0.3006 -0.1511  0.1778
  407POPI   C1B 6505  12.374  15.989   9.280 -0.1282 -0.2272  0.0846
  407POPI   C2B 6506  12.246  15.889   8.888  0.1388 -0.1072 -0.1546
  407POPI   C3B 6507  12.342  15.644   8.491  0.1680 -0.2720 -0.0037
  407POPI   C4B 6508  12.384  15.496   7.952 -0.0113  0.0246 -0.0715
  408POPI    C1 6509  11.102   3.287   9.855 -0.0393 -0.0658 -0.2023
  408POPI    C2 6510  10.956   2.922   9.930  0.1501 -0.1528 -0.2506
  408POPI    C3 6511  11.352   2.981   9.916  0.1256  0.1130  0.0400
  408POPI   PO4 6512  10.978   3.319   9.614 -0.0606 -0.1172 -0.0203
  408POPI   GL1 6513  10.934   3.422   9.170 -0.0834  0.2164 -0.1649
  408POPI   GL2 6514  11.267   3.520   9.160 -0.1139 -0.1959 -0.1218
  408POPI   C1A 6515  10.797   3.365   8.680  0.2728 -0.0776 -0.0347
  408POPI   D2A 6516  10.533   3.190   8.304 -0.1227 -0.0824 -0.2557
  408POPI   C3A 6517  10.603   3.170   7.893 -0.0545  0.3460 -0.0577
  408POPI   C4A 6518  10.693   3.197   7.508  0.5014  0.0552 -0.1970
  408POPI   C1B 6519  11.503   3.550   8.825  0.2088 -0.2919 -0.0587
  408POPI   C2B 6520  11.617   3.568   8.431  0.1907  0.0183  0.1495
  408POPI   C3B 6521  11.572   3.329   8.050  0.4368 -0.1834 -0.0270
  408POPI   C4B 6522  11.213   3.232   7.697 -0.1115 -0.0998 -0.2895
  409POPI    C1 6523  11.968  13.574  10.666 -0.0863  0.0961  0.2067
  409POPI    C2 6524  11.930  13.960  10.570  0.1219  0.0620 -0.0236
  409POPI    C3 6525  12.170  13.851  10.871  0.1692  0.1027 -0.0464
  409POPI   PO4 6526  11.911  13.558  10.291  0.0711 -0.0501 -0.0504
  409POPI   GL1 6527  12.020  13.536   9.880 -0.2276 -0.1032  0.2180
  409POPI   GL2 6528  12.277  13.502   9.704  0.1278 -0.1442  0.0040
  409POPI   C1A 6529  11.712  13.753   9.646  0.2818 -0.1666  0.2539
  409POPI   D2A 6530  11.521  13.761   9.323 -0.0073  0.0681 -0.1718
  409POPI   C3A 6531  11.447  13.887   9.016 -0.0931  0.1178  0.3956
  409POPI   C4A 6532  11.539  13.825   8.664  0.1504  0.0299 -0.0073
  409POPI   C1B 6533  12.047  13.587   9.307 -0.0318 -0.1306 -0.3149
  409POPI   C2B 6534  11.851  13.466   8.845  0.1286 -0.5704  0.0833
  409POPI   C3B 6535  11.849  13.308   8.415  0.2971 -0.2726 -0.2634
  409POPI   C4B 6536  11.764  13.242   8.085  0.0536  0.0426 -0.1378
  410POPI    C1 6537   6.893   7.464  10.030  0.0973  0.1759  0.1822
  410POPI    C2 6538   6.905   7.085  10.155  0.1400  0.0955 -0.0601
  410POPI    C3 6539   7.223   7.322  10.206  0.2528 -0.0130 -0.2489
  410POPI   PO4 6540   6.703   7.496   9.835 -0.5215 -0.0976  0.3435
  410POPI   GL1 6541   6.850   7.564   9.319 -0.0819 -0.0302 -0.2411
  410POPI   GL2 6542   7.159   7.529   9.491 -0.0458  0.2687  0.0383
  410POPI   C1A 6543   6.738   7.701   8.975 -0.1644  0.0838  0.3973
  410POPI   D2A 6544   6.705   7.684   8.483 -0.0114  0.0047  0.1751
  410POPI   C3A 6545   7.065   7.760   8.244  0.1034 -0.1223  0.0025
  410POPI   C4A 6546   7.420   7.930   8.083 -0.0057 -0.3764  0.1766
  410POPI   C1B 6547   7.273   7.643   9.071  0.1179 -0.1312 -0.4245
  410POPI   C2B 6548   7.247   7.666   8.726 -0.1808  0.0107 -0.3527
  410POPI   C3B 6549   7.323   7.368   8.357  0.3104 -0.0601 -0.1281
  410POPI   C4B 6550   7.294   7.434   7.892 -0.1032  0.0152 -0.1386
  411POPI    C1 6551  12.961   3.648   9.928 -0.0279 -0.1968  0.1342
  411POPI    C2 6552  12.866   3.715  10.311  0.0996  0.1662  0.1054
  411POPI    C3 6553  12.860   4.016  10.047 -0.1345 -0.1105 -0.2125
  411POPI   PO4 6554  12.799   3.551   9.802 -0.1672 -0.2318 -0.1559
  411POPI   GL1 6555  12.669   3.515   9.394  0.0193 -0.0134 -0.0512
  411POPI   GL2 6556  12.970   3.684   9.290  0.1474  0.0696  0.3734
  411POPI   C1A 6557  12.770   3.342   8.962  0.0245  0.0979 -0.1425
  411POPI   D2A 6558  12.536   3.003   8.775  0.2395 -0.0381  0.1346
  411POPI   C3A 6559  12.550   3.071   8.314 -0.0722  0.1434  0.1513
  411POPI   C4A 6560  12.460   3.074   7.913 -0.1461 -0.0681  0.0199
  411POPI   C1B 6561  12.930   3.822   8.810 -0.0117  0.1053 -0.0945
  411POPI   C2B 6562  12.732   3.532   8.484  0.2437  0.2344  0.3013
  411POPI   C3B 6563  12.700   3.480   8.078  0.0697  0.0297  0.2861
  411POPI   C4B 6564  12.454   3.590   7.729  0.3948 -0.1931 -0.0518
  412POPI    C1 6565   6.834   3.948  10.031 -0.0947 -0.0869 -0.0113
  412POPI    C2 6566   6.622   3.942  10.370  0.0737 -0.0666  0.0954
  412POPI    C3 6567   6.860   4.253  10.288 -0.2046  0.0762 -0.1910
  412POPI   PO4 6568   6.615   3.979   9.847  0.1807  0.0008 -0.0177
  412POPI   GL1 6569   6.581   3.795   9.434 -0.0800 -0.1500  0.1675
  412POPI   GL2 6570   6.737   4.078   9.348  0.2936  0.1850 -0.2331
  412POPI   C1A 6571   6.692   3.397   9.248 -0.3544  0.1980 -0.3460
  412POPI   D2A 6572   6.663   2.987   9.062  0.0310  0.3641 -0.0376
  412POPI   C3A 6573   6.419   2.809   8.816  0.1380 -0.0012  0.1238
  412POPI   C4A 6574   6.351   2.667   8.467  0.2708  0.0860  0.0063
  412POPI   C1B 6575   6.582   3.930   8.947  0.0459  0.0399  0.3480
  412POPI   C2B 6576   6.237   3.756   8.594  0.0757  0.2794 -0.1599
  412POPI   C3B 6577   6.217   3.626   8.244 -0.0729  0.3315  0.0664
  412POPI   C4B 6578   6.491   3.564   7.825  0.0989 -0.1514 -0.0498
  413POPI    C1 6579   6.601   6.197   9.846  0.3164 -0.0205  0.0269
  413POPI    C2 6580   6.778   5.841   9.891 -0.1106 -0.2609 -0.1362
  413POPI    C3 6581   6.422   5.910  10.059  0.0817  0.1819  0.1067
  413POPI   PO4 6582   6.535   6.319   9.595 -0.3585 -0.0094  0.0455
  413POPI   GL1 6583   6.607   6.358   9.176 -0.0091  0.2521  0.0854
  413POPI   GL2 6584   6.823   6.206   9.001  0.0288 -0.2961  0.0327
  413POPI   C1A 6585   6.376   6.293   8.802 -0.0741  0.2014 -0.3565
  413POPI   D2A 6586   6.254   6.451   8.490 -0.0884  0.3164 -0.1467
  413POPI   C3A 6587   6.428   6.402   8.121 -0.4516  0.0092  0.0327
  413POPI   C4A 6588   6.330   6.385   7.662 -0.0450 -0.1886  0.1886
  413POPI   C1B 6589   6.871   6.207   8.672  0.2016 -0.0499  0.2007
  413POPI   C2B 6590   6.939   6.213   8.262  0.2524  0.1045  0.0785
  413POPI   C3B 6591   6.910   6.346   7.885 -0.2243 -0.0034  0.0560
  413POPI   C4B 6592   7.009   6.310   7.496 -0.1031  0.0492 -0.3169
  414POPI    C1 6593   0.947   7.623  10.316 -0.0642  0.1025 -0.0991
  414POPI    C2 6594   0.921   7.449  10.675 -0.2407 -0.0584 -0.1880
  414POPI    C3 6595   0.756   7.808  10.614  0.2884  0.2352  0.0489
  414POPI   PO4 6596   0.990   7.485  10.149  0.4445 -0.1228  0.1160
  414POPI   GL1 6597   0.791   7.572   9.779 -0.0388  0.1379  0.2980
  414POPI   GL2 6598   0.963   7.263   9.719 -0.0480 -0.3142 -0.0119
  414POPI   C1A 6599   0.614   7.670   9.245 -0.1354  0.0949  0.1337
  414POPI   D2A 6600   0.865   7.467   8.888  0.0354  0.2383  0.0359
  414POPI   C3A 6601   0.622   7.635   8.575  0.3167  0.1010 -0.1541
  414POPI   C4A 6602   0.322   7.696   8.308 -0.0494 -0.1040  0.0424
  414POPI   C1B 6603   0.750   7.209   9.339  0.0723  0.0750 -0.1004
  414POPI   C2B 6604   0.573   7.036   9.005 -0.0086 -0.5001 -0.0744
  414POPI   C3B 6605   0.378   7.142   8.644 -0.3038  0.0147  0.1746
  414POPI   C4B 6606   0.064   7.243   8.187 -0.1903  0.0880  0.1637
  415POPI    C1 6607   4.761  18.693  10.038 -0.0985  0.1567  0.0501
  415POPI    C2 6608   5.033  18.405   9.978 -0.2554  0.0535 -0.1805
  415POPI    C3 6609   4.825  18.416  10.320 -0.0593  0.0531 -0.0599
  415POPI   PO4 6610   4.635  18.646   9.820 -0.0084 -0.2718 -0.4038
  415POPI   GL1 6611   4.902  18.419   9.401 -0.1385  0.0721  0.3472
  415POPI   GL2 6612   4.721  18.165   9.307 -0.4392  0.1928 -0.1436
  415POPI   C1A 6613   4.923  18.795   9.117  0.0176 -0.0910  0.0414
  415POPI   D2A 6614   4.464  18.635   9.039 -0.0394 -0.0764 -0.0896
  415POPI   C3A 6615   4.190  18.242   8.899  0.0433 -0.3397  0.2350
  415POPI   C4A 6616   4.260  18.204   8.496 -0.1494 -0.1565 -0.1076
  415POPI   C1B 6617   4.960  18.071   8.974 -0.3295 -0.4818 -0.0804
  415POPI   C2B 6618   4.765  18.271   8.566 -0.1886 -0.2741  0.0086
  415POPI   C3B 6619   4.754  18.488   8.200 -0.3253  0.1326  0.1488
  415POPI   C4B 6620   4.489  18.682   8.073 -0.0630 -0.0997 -0.3022
  416POPI    C1 6621  13.553   5.630  10.007 -0.3463  0.0086  0.0722
  416POPI    C2 6622  13.455   5.389   9.703 -0.4636 -0.0208  0.1329
  416POPI    C3 6623  13.534   5.234  10.063  0.1381 -0.0300  0.0066
  416POPI   PO4 6624  13.553   5.897   9.780  0.1469  0.0309 -0.0232
  416POPI   GL1 6625  13.383   5.911   9.378  0.0113 -0.0799  0.0584
  416POPI   GL2 6626  13.375   6.326   9.220 -0.0388 -0.1194 -0.0859
  416POPI   C1A 6627  13.598   5.523   9.279 -0.0163 -0.2027  0.0499
  416POPI   D2A 6628  13.809   5.416   8.856 -0.1799 -0.2993 -0.0271
  416POPI   C3A 6629  13.891   5.306   8.427  0.0125 -0.0149 -0.1395
  416POPI   C4A 6630  13.958   5.325   8.015  0.0183 -0.1745  0.3476
  416POPI   C1B 6631  13.457   6.156   8.896  0.4474  0.3013  0.2774
  416POPI   C2B 6632  13.495   6.187   8.433 -0.4686  0.1244  0.1381
  416POPI   C3B 6633  13.821   6.308   8.109 -0.1227  0.0560  0.0865
  416POPI   C4B 6634  14.068   6.508   7.912 -0.2618 -0.0241 -0.0724
  417POPI    C1 6635   9.433   7.634   9.816 -0.0444 -0.1290  0.0017
  417POPI    C2 6636   9.604   7.825  10.122  0.1634 -0.3246  0.0101
  417POPI    C3 6637   9.254   7.639  10.174 -0.0828  0.1159 -0.0189
  417POPI   PO4 6638   9.686   7.659   9.620  0.0856 -0.1866  0.1387
  417POPI   GL1 6639   9.627   7.756   9.282  0.2368 -0.2030 -0.1709
  417POPI   GL2 6640   9.697   7.432   9.172  0.0185 -0.1589  0.4769
  417POPI   C1A 6641   9.726   8.110   8.945  0.0273 -0.1097  0.0470
  417POPI   D2A 6642   9.431   8.334   8.757  0.1349 -0.1947 -0.0746
  417POPI   C3A 6643   9.576   8.473   8.497  0.1967  0.2645  0.0234
  417POPI   C4A 6644   9.501   8.638   8.121  0.2774  0.0163 -0.0088
  417POPI   C1B 6645   9.750   7.671   8.783  0.0062  0.2188 -0.1011
  417POPI   C2B 6646   9.746   7.829   8.393 -0.0070  0.0724  0.2251
  417POPI   C3B 6647   9.485   7.722   8.013  0.1684  0.1209 -0.0250
  417POPI   C4B 6648   9.271   7.925   7.612  0.1907 -0.2840  0.0419
  418POPI    C1 6649  15.408   7.866  10.079  0.1594 -0.0637  0.0540
  418POPI    C2 6650  15.567   8.035   9.753 -0.0400 -0.0456 -0.0353
  418POPI    C3 6651  15.746   8.078  10.108  0.0770  0.0929 -0.1100
  418POPI   PO4 6652  15.321   7.641   9.998  0.0911  0.3060  0.0341
  418POPI   GL1 6653  15.071   7.619   9.566  0.0325  0.0514 -0.1617
  418POPI   GL2 6654  14.890   7.345   9.655  0.1788 -0.1819  0.0856
  418POPI   C1A 6655  15.300   7.426   9.299  0.3239  0.3523  0.1760
  418POPI   D2A 6656  15.495   7.329   8.885 -0.0980 -0.0990 -0.1185
  418POPI   C3A 6657  15.866   7.443   8.660 -0.0996 -0.0945 -0.0139
  418POPI   C4A 6658  16.269   7.586   8.492 -0.1484 -0.1206 -0.3052
  418POPI   C1B 6659  14.840   7.308   9.125 -0.0847  0.0533  0.2914
  418POPI   C2B 6660  15.010   7.286   8.639  0.0283  0.2022 -0.1180
  418POPI   C3B 6661  15.346   7.084   8.418 -0.0392 -0.2448 -0.0504
  418POPI   C4B 6662  15.622   6.844   8.199  0.1295 -0.0623 -0.2665
  419POPI    C1 6663   4.697  11.203  10.180 -0.2003  0.0233  0.0648
  419POPI    C2 6664   4.904  10.941  10.399  0.1011  0.0394 -0.1927
  419POPI    C3 6665   4.983  11.332  10.429 -0.0856  0.0702 -0.0891
  419POPI   PO4 6666   4.762  11.085   9.813  0.0291 -0.0854  0.0790
  419POPI   GL1 6667   4.958  11.139   9.428 -0.1897 -0.1062 -0.1637
  419POPI   GL2 6668   4.804  11.470   9.463  0.2432 -0.0876  0.2249
  419POPI   C1A 6669   4.794  11.221   8.991 -0.0086  0.1235  0.0864
  419POPI   D2A 6670   4.705  11.554   8.753 -0.2511  0.0495 -0.0280
  419POPI   C3A 6671   4.960  11.627   8.580 -0.0308  0.0061  0.1875
  419POPI   C4A 6672   5.095  11.415   8.289 -0.0317 -0.0564  0.0167
  419POPI   C1B 6673   4.849  11.723   9.184  0.1123  0.1762 -0.1672
  419POPI   C2B 6674   4.759  12.054   8.883 -0.2408  0.2693  0.3149
  419POPI   C3B 6675   4.797  12.065   8.423  0.2195 -0.0491 -0.2601
  419POPI   C4B 6676   5.082  12.189   8.086  0.0971  0.1268 -0.1191
  420POPI    C1 6677   3.153   1.498  10.350  0.1548 -0.0339 -0.1315
  420POPI    C2 6678   3.173   1.868  10.199  0.0443 -0.0679 -0.2311
  420POPI    C3 6679   3.354   1.783  10.546 -0.3382  0.2047  0.0439
  420POPI   PO4 6680   3.038   1.360  10.090 -0.0912 -0.0654  0.3585
  420POPI   GL1 6681   2.731   1.273   9.783 -0.1145  0.1259  0.0693
  420POPI   GL2 6682   2.642   0.980  10.016  0.2564 -0.0320 -0.2695
  420POPI   C1A 6683   2.622   1.128   9.358  0.3362  0.0172 -0.0148
  420POPI   D2A 6684   2.560   1.161   8.884 -0.0637 -0.2031 -0.0709
  420POPI   C3A 6685   2.442   1.076   8.435 -0.0712 -0.0155  0.0488
  420POPI   C4A 6686   2.424   1.332   8.094  0.0626  0.0197 -0.0365
  420POPI   C1B 6687   2.803   0.787   9.669  0.0255 -0.0240 -0.1163
  420POPI   C2B 6688   3.063   0.417   9.389  0.2762  0.0657 -0.0259
  420POPI   C3B 6689   3.066   0.272   9.002  0.0222  0.0584 -0.0398
  420POPI   C4B 6690   3.303   0.080   8.570 -0.3564  0.0688 -0.1668
  421POPI    C1 6691  18.535  17.624  10.331 -0.0002 -0.1973 -0.0971
  421POPI    C2 6692  18.622  17.236  10.286  0.4325 -0.1015 -0.1336
  421POPI    C3 6693  18.753  17.434  10.608  0.0580 -0.0247 -0.0233
  421POPI   PO4 6694  18.517  17.755  10.083  0.0631 -0.0123 -0.0983
  421POPI   GL1 6695  18.410  17.639   9.660  0.0296 -0.1359  0.0333
  421POPI   GL2 6696  18.652  17.430   9.693 -0.0079 -0.1957  0.1127
  421POPI   C1A 6697  18.614  17.763   9.284  0.1077 -0.1100  0.2711
  421POPI   D2A 6698  18.943  18.007   9.173  0.1131 -0.3400  0.1525
  421POPI   C3A 6699  18.989  18.168   8.734  0.3242  0.0787  0.0737
  421POPI   C4A 6700  19.206  18.132   8.389 -0.0388  0.0869  0.4851
  421POPI   C1B 6701  18.852  17.265   9.332  0.3140  0.1654  0.1030
  421POPI   C2B 6702  18.936  17.193   8.882 -0.1096  0.2614 -0.1566
  421POPI   C3B 6703  19.027  17.237   8.422  0.0994  0.1915  0.0235
  421POPI   C4B 6704  19.163  17.508   8.249 -0.2121  0.0006  0.1779
  422POPI    C1 6705   6.139  11.996  10.276  0.0477 -0.1260  0.0818
  422POPI    C2 6706   6.182  11.656  10.069  0.0351 -0.0102 -0.1135
  422POPI    C3 6707   6.488  11.800  10.283  0.0118 -0.1916  0.0445
  422POPI   PO4 6708   5.910  12.094   9.998  0.0468 -0.0173 -0.2209
  422POPI   GL1 6709   5.916  12.075   9.576 -0.2245 -0.2266  0.2402
  422POPI   GL2 6710   5.631  12.162   9.605  0.0079 -0.0126 -0.4427
  422POPI   C1A 6711   5.898  12.285   9.263 -0.2702  0.1159  0.0631
  422POPI   D2A 6712   5.552  12.407   9.134  0.2262 -0.2429  0.1045
  422POPI   C3A 6713   5.554  12.732   8.877  0.0961 -0.1188 -0.1396
  422POPI   C4A 6714   5.679  12.543   8.464 -0.0542 -0.0902  0.1997
  422POPI   C1B 6715   5.750  11.819   9.209 -0.3671  0.1564 -0.0100
  422POPI   C2B 6716   5.960  11.517   9.128  0.1980 -0.2440  0.0620
  422POPI   C3B 6717   5.908  11.161   8.917 -0.0763 -0.0396 -0.0647
  422POPI   C4B 6718   5.607  11.013   8.663 -0.0614  0.1419  0.4027
  423POPI    C1 6719   5.938   5.918  10.004  0.0686 -0.0987  0.0504
  423POPI    C2 6720   5.654   5.680  10.154 -0.0483  0.0236  0.0259
  423POPI    C3 6721   5.684   6.058  10.279  0.0932  0.0166  0.0150
  423POPI   PO4 6722   5.897   5.819   9.754  0.3201  0.1239 -0.3042
  423POPI   GL1 6723   5.877   5.721   9.310  0.0837 -0.8232 -0.1324
  423POPI   GL2 6724   5.773   5.437   9.116 -0.2251 -0.3002 -0.2711
  423POPI   C1A 6725   6.222   5.401   9.040 -0.1957  0.0205  0.0614
  423POPI   D2A 6726   6.569   5.295   8.737  0.1330  0.0195 -0.2558
  423POPI   C3A 6727   6.501   5.306   8.289 -0.2778  0.1297 -0.1955
  423POPI   C4A 6728   6.561   5.100   7.896  0.0843  0.2301 -0.1023
  423POPI   C1B 6729   5.846   5.055   8.881  0.4376 -0.2875  0.0800
  423POPI   C2B 6730   6.152   5.069   8.598 -0.3156  0.2335 -0.0608
  423POPI   C3B 6731   6.207   4.707   8.218 -0.0768  0.2079  0.0296
  423POPI   C4B 6732   6.194   4.647   7.801  0.1575  0.0383  0.1112
  424POPI    C1 6733   2.195  15.288  10.056 -0.0964  0.1827  0.0290
  424POPI    C2 6734   2.169  15.024  10.355 -0.0986 -0.0446 -0.1688
  424POPI    C3 6735   1.840  15.209  10.223 -0.0706  0.1991  0.0920
  424POPI   PO4 6736   2.359  15.230   9.891  0.0888  0.0028 -0.0669
  424POPI   GL1 6737   2.242  15.225   9.513  0.1891  0.0607  0.0516
  424POPI   GL2 6738   2.192  15.585   9.557 -0.5773  0.4654 -0.1989
  424POPI   C1A 6739   2.315  15.214   9.018 -0.2628 -0.1252 -0.0458
  424POPI   D2A 6740   2.385  15.165   8.553 -0.2292  0.0475 -0.2929
  424POPI   C3A 6741   2.554  15.430   8.245 -0.3160 -0.1650  0.0064
  424POPI   C4A 6742   2.339  15.647   7.878 -0.3323 -0.0126  0.0932
  424POPI   C1B 6743   2.222  15.725   9.118 -0.3950  0.0778 -0.0495
  424POPI   C2B 6744   2.197  15.548   8.744 -0.0705 -0.4075  0.0796
  424POPI   C3B 6745   2.201  15.764   8.428 -0.1311 -0.1246  0.0794
  424POPI   C4B 6746   2.216  16.078   8.053 -0.0087  0.0021  0.3879
  425POPI    C1 6747   6.967   0.866   9.972  0.1982  0.0111  0.0763
  425POPI    C2 6748   6.882   1.202   9.773 -0.1763 -0.1197  0.0078
  425POPI    C3 6749   6.960   1.216  10.165  0.1026  0.0805 -0.0517
  425POPI   PO4 6750   6.705   0.648   9.899 -0.2667  0.1853  0.1763
  425POPI   GL1 6751   6.923   0.305   9.675 -0.2144 -0.1764  0.2272
  425POPI   GL2 6752   7.203   0.069   9.706 -0.3145  0.2444  0.1899
  425POPI   C1A 6753   6.967   0.131   9.246  0.0138 -0.3119 -0.0607
  425POPI   D2A 6754   6.975  -0.034   8.760 -0.0370 -0.0743 -0.1843
  425POPI   C3A 6755   7.271  -0.101   8.445 -0.0159 -0.0710 -0.3150
  425POPI   C4A 6756   7.162   0.124   8.023 -0.1863  0.0853 -0.1237
  425POPI   C1B 6757   7.451  -0.055   9.367  0.0357 -0.1444 -0.1101
  425POPI   C2B 6758   7.442   0.068   8.960 -0.5715 -0.2110  0.2318
  425POPI   C3B 6759   7.749   0.006   8.659  0.1232  0.3241  0.0362
  425POPI   C4B 6760   7.988  -0.185   8.277  0.0470 -0.0508 -0.0397
  426POPI    C1 6761   2.812  13.972  10.192 -0.2078  0.2199 -0.1294
  426POPI    C2 6762   2.716  13.750  10.511  0.2816 -0.2218 -0.2757
  426POPI    C3 6763   2.454  13.795  10.212  0.0388 -0.2896 -0.0763
  426POPI   PO4 6764   3.021  13.814  10.110 -0.0805  0.1071 -0.2359
  426POPI   GL1 6765   3.075  13.608   9.695  0.0974 -0.1254 -0.1230
  426POPI   GL2 6766   3.376  13.410   9.515 -0.0376 -0.2117  0.2853
  426POPI   C1A 6767   3.190  13.757   9.275  0.4805  0.0936  0.0651
  426POPI   D2A 6768   3.201  13.951   8.926  0.4519 -0.0446 -0.2165
  426POPI   C3A 6769   3.440  14.355   8.848  0.2233  0.2761  0.4040
  426POPI   C4A 6770   3.664  14.653   8.797 -0.2681 -0.1799 -0.1625
  426POPI   C1B 6771   3.440  13.246   9.150 -0.1077  0.0763  0.1362
  426POPI   C2B 6772   3.707  13.199   8.788  0.0624 -0.4522  0.1484
  426POPI   C3B 6773   3.873  13.282   8.406  0.2143  0.0322  0.0548
  426POPI   C4B 6774   3.890  13.653   8.112  0.2710 -0.2525  0.3143
  427POPI    C1 6775   7.444   2.265   9.900  0.3778 -0.2092  0.0464
  427POPI    C2 6776   7.563   2.462  10.227  0.2853  0.1455 -0.1286
  427POPI    C3 6777   7.200   2.295  10.215  0.1995  0.3298 -0.1321
  427POPI   PO4 6778   7.606   2.353   9.677 -0.2107 -0.4321  0.0671
  427POPI   GL1 6779   7.727   2.324   9.273 -0.0957  0.2615  0.1501
  427POPI   GL2 6780   7.554   2.708   9.212  0.0429  0.0425 -0.1683
  427POPI   C1A 6781   7.750   2.342   8.843  0.2604 -0.0744  0.3165
  427POPI   D2A 6782   7.885   2.317   8.343  0.1960 -0.2403  0.1818
  427POPI   C3A 6783   7.978   1.889   8.047  0.1843 -0.0127 -0.3170
  427POPI   C4A 6784   7.934   1.509   7.751  0.5370  0.1797  0.0975
  427POPI   C1B 6785   7.431   2.840   8.818 -0.0381 -0.1840  0.0011
  427POPI   C2B 6786   7.662   2.861   8.547 -0.0715  0.3522 -0.1692
  427POPI   C3B 6787   7.750   3.117   8.345 -0.0012 -0.2077  0.3636
  427POPI   C4B 6788   7.703   3.605   8.345 -0.1519 -0.1107  0.1524
  428POPI    C1 6789   4.139  11.455  10.278 -0.0857 -0.0301  0.2779
  428POPI    C2 6790   3.797  11.522  10.475 -0.2149  0.1332  0.0039
  428POPI    C3 6791   3.882  11.155  10.342 -0.3042  0.1008  0.0356
  428POPI   PO4 6792   4.075  11.771  10.118  0.0322 -0.0647  0.3294
  428POPI   GL1 6793   3.987  11.830   9.734 -0.1375 -0.1225 -0.0849
  428POPI   GL2 6794   4.232  12.060   9.557  0.1762  0.0264  0.1270
  428POPI   C1A 6795   3.762  11.523   9.352 -0.1876 -0.2707 -0.1660
  428POPI   D2A 6796   3.747  11.184   9.050 -0.0062  0.0971 -0.0352
  428POPI   C3A 6797   3.660  11.238   8.597 -0.1728 -0.0386 -0.1021
  428POPI   C4A 6798   3.259  11.201   8.261  0.0328 -0.1312 -0.1978
  428POPI   C1B 6799   4.341  12.047   9.080  0.0508 -0.0157 -0.0145
  428POPI   C2B 6800   4.374  12.058   8.622 -0.1454 -0.0500 -0.2012
  428POPI   C3B 6801   4.379  12.135   8.112 -0.0747  0.1821 -0.1688
  428POPI   C4B 6802   4.296  12.137   7.711  0.0356  0.1130 -0.0338
  429POPI    C1 6803   6.724  11.318   9.908  0.1676  0.1603  0.1669
  429POPI    C2 6804   6.470  11.234  10.206 -0.1984  0.1178 -0.1491
  429POPI    C3 6805   6.473  11.008   9.876  0.3992 -0.0069 -0.0697
  429POPI   PO4 6806   6.657  11.532   9.841 -0.0782  0.1475 -0.1360
  429POPI   GL1 6807   6.677  11.708   9.552  0.2519 -0.2278 -0.0037
  429POPI   GL2 6808   7.036  11.675   9.520  0.0559 -0.2684  0.0429
  429POPI   C1A 6809   6.518  11.536   9.274  0.2759  0.0420 -0.1448
  429POPI   D2A 6810   6.396  11.482   8.801  0.1099  0.0465 -0.0704
  429POPI   C3A 6811   6.087  11.800   8.684  0.1903 -0.3628  0.1320
  429POPI   C4A 6812   5.811  12.125   8.783 -0.0969 -0.2934 -0.3132
  429POPI   C1B 6813   6.994  11.694   9.112 -0.0341  0.2295  0.2928
  429POPI   C2B 6814   6.963  11.701   8.778 -0.0910 -0.1809  0.0457
  429POPI   C3B 6815   7.188  11.945   8.533 -0.1748 -0.0971  0.1118
  429POPI   C4B 6816   7.169  12.133   8.200  0.1996 -0.2784 -0.0559
  430POPI    C1 6817   6.561  15.934  10.142  0.0226 -0.1884  0.0039
  430POPI    C2 6818   6.426  16.310  10.134  0.3076 -0.0870 -0.2300
  430POPI    C3 6819   6.473  16.122  10.484 -0.2138 -0.0488 -0.1314
  430POPI   PO4 6820   6.594  15.900   9.905 -0.0568 -0.1851 -0.0623
  430POPI   GL1 6821   6.374  15.983   9.533 -0.1426 -0.0278 -0.0942
  430POPI   GL2 6822   6.383  15.652   9.310 -0.0866  0.0495  0.0232
  430POPI   C1A 6823   6.380  16.146   9.087  0.2924  0.4854 -0.0378
  430POPI   D2A 6824   6.343  16.144   8.646 -0.1247 -0.1317 -0.2886
  430POPI   C3A 6825   6.190  16.413   8.296  0.0337  0.1344  0.2691
  430POPI   C4A 6826   5.936  16.281   7.975 -0.0213 -0.0790  0.1121
  430POPI   C1B 6827   6.172  15.664   8.853 -0.0249  0.0624 -0.1107
  430POPI   C2B 6828   6.076  15.765   8.487 -0.0992  0.0505 -0.1213
  430POPI   C3B 6829   6.075  15.813   8.021  0.3526 -0.4721  0.2314
  430POPI   C4B 6830   6.137  16.017   7.595 -0.1843  0.1594 -0.2360
  431POPI    C1 6831  14.660   4.130   9.967  0.1546  0.1490  0.1383
  431POPI    C2 6832  15.045   4.201   9.884  0.1563  0.0757  0.0825
  431POPI    C3 6833  14.946   3.992  10.211  0.1815 -0.1999 -0.0825
  431POPI   PO4 6834  14.550   4.009   9.836 -0.2607 -0.1561  0.1015
  431POPI   GL1 6835  14.380   4.067   9.439  0.1109  0.0601  0.3247
  431POPI   GL2 6836  14.569   3.969   9.296  0.0648  0.2162  0.0219
  431POPI   C1A 6837  14.125   4.033   9.060  0.2141 -0.0879 -0.1550
  431POPI   D2A 6838  13.939   4.092   8.758  0.1558  0.1977 -0.2337
  431POPI   C3A 6839  14.083   4.112   8.362 -0.1622  0.0751 -0.4758
  431POPI   C4A 6840  14.086   4.274   8.003  0.1740 -0.0677 -0.0152
  431POPI   C1B 6841  14.589   4.262   8.987  0.0357  0.3164  0.2704
  431POPI   C2B 6842  14.465   4.302   8.563  0.1546  0.2133 -0.1725
  431POPI   C3B 6843  14.553   4.244   8.188  0.0122 -0.0154 -0.1308
  431POPI   C4B 6844  14.478   4.082   7.712  0.0757 -0.2786 -0.0450
  432POPI    C1 6845   6.903   8.780   9.906  0.1512 -0.0590  0.0300
  432POPI    C2 6846   6.987   8.562  10.231 -0.0040 -0.0913  0.0492
  432POPI    C3 6847   6.720   8.429   9.965 -0.1211  0.0885  0.0752
  432POPI   PO4 6848   7.161   8.889   9.783  0.1581 -0.1724 -0.0802
  432POPI   GL1 6849   7.255   8.939   9.414  0.0947 -0.1122  0.0136
  432POPI   GL2 6850   7.501   8.729   9.364 -0.1493  0.1352 -0.1059
  432POPI   C1A 6851   7.026   9.123   9.124 -0.1826 -0.3556 -0.3134
  432POPI   D2A 6852   7.053   9.229   8.684 -0.0397 -0.4162  0.1584
  432POPI   C3A 6853   6.993   9.408   8.262 -0.0451 -0.3543 -0.0274
  432POPI   C4A 6854   7.154   9.382   7.870  0.1313  0.0085  0.2100
  432POPI   C1B 6855   7.421   8.880   8.912  0.1348  0.0251 -0.1365
  432POPI   C2B 6856   7.407   8.992   8.503 -0.5733 -0.2302 -0.1549
  432POPI   C3B 6857   7.627   9.013   8.102  0.1780 -0.2162  0.1994
  432POPI   C4B 6858   7.520   9.030   7.699  0.1110 -0.0631 -0.0259
  433POPI    C1 6859   8.347  13.415  10.267  0.0610  0.0117  0.3789
  433POPI    C2 6860   8.200  13.045  10.310 -0.2927  0.0763 -0.1690
  433POPI    C3 6861   8.113  13.328  10.579  0.0463 -0.2477  0.2980
  433POPI   PO4 6862   8.473  13.329   9.992 -0.3459 -0.1476  0.0619
  433POPI   GL1 6863   8.496  13.278   9.612  0.1778 -0.1806  0.0191
  433POPI   GL2 6864   8.471  13.620   9.467  0.0389  0.0207  0.0365
  433POPI   C1A 6865   8.265  13.086   9.193 -0.2320 -0.3916 -0.2768
  433POPI   D2A 6866   8.170  12.983   8.776 -0.2346  0.2721 -0.0489
  433POPI   C3A 6867   8.395  12.912   8.454 -0.2124  0.1639  0.0336
  433POPI   C4A 6868   8.348  12.852   8.039 -0.0461  0.3206  0.1601
  433POPI   C1B 6869   8.404  14.016   9.278 -0.0329 -0.0528 -0.1624
  433POPI   C2B 6870   8.248  14.080   8.883 -0.1998 -0.5997  0.0406
  433POPI   C3B 6871   8.041  13.892   8.536 -0.0237  0.1564 -0.3333
  433POPI   C4B 6872   7.886  13.893   8.137 -0.1728 -0.0249  0.2960
  434POPI    C1 6873   4.874   7.161   9.664 -0.1878  0.2411 -0.0402
  434POPI    C2 6874   4.478   7.153   9.605 -0.1538 -0.1079 -0.2504
  434POPI    C3 6875   4.643   6.920   9.885 -0.1366  0.3455  0.1287
  434POPI   PO4 6876   4.964   7.175   9.406  0.4629 -0.0498  0.2034
  434POPI   GL1 6877   4.804   7.413   9.015  0.0173 -0.1855  0.0074
  434POPI   GL2 6878   4.615   7.043   9.055  0.1521  0.1463  0.0181
  434POPI   C1A 6879   4.709   7.384   8.622  0.0027 -0.2295 -0.1136
  434POPI   D2A 6880   4.557   7.527   8.283  0.4160 -0.0239  0.0672
  434POPI   C3A 6881   4.847   7.594   7.792 -0.0865 -0.2691  0.1293
  434POPI   C4A 6882   5.270   7.639   7.759  0.0179 -0.2970  0.1766
  434POPI   C1B 6883   4.294   7.028   8.812  0.0727 -0.4548 -0.0507
  434POPI   C2B 6884   3.991   7.039   8.435  0.0574 -0.0429 -0.0183
  434POPI   C3B 6885   3.724   6.870   7.959 -0.2876  0.3525  0.1098
  434POPI   C4B 6886   3.293   7.031   7.820  0.0563  0.6276  0.0474
  435POPI    C1 6887  12.552   6.049   9.875  0.2646 -0.4827  0.2981
  435POPI    C2 6888  12.659   6.334  10.135  0.0094 -0.0120 -0.0950
  435POPI    C3 6889  12.775   5.955  10.193  0.4968  0.1937  0.3502
  435POPI   PO4 6890  12.675   6.093   9.598  0.2546  0.1862 -0.1789
  435POPI   GL1 6891  12.634   5.900   9.188  0.3012 -0.1417  0.0122
  435POPI   GL2 6892  12.642   5.852   8.921 -0.1436  0.0236  0.3530
  435POPI   C1A 6893  12.945   6.160   8.990  0.0742 -0.3192  0.0211
  435POPI   D2A 6894  13.086   6.336   8.647  0.0333 -0.3972  0.3410
  435POPI   C3A 6895  12.961   6.220   8.288  0.1076  0.2240 -0.3396
  435POPI   C4A 6896  12.956   6.019   7.887 -0.2515  0.0335 -0.0341
  435POPI   C1B 6897  12.608   5.845   8.539  0.2910  0.0075 -0.0486
  435POPI   C2B 6898  12.701   5.723   8.224  0.1877 -0.1368 -0.2204
  435POPI   C3B 6899  12.584   5.585   7.817  0.0147  0.1464 -0.0745
  435POPI   C4B 6900  12.535   5.519   7.341 -0.0286 -0.1040 -0.1161
  436POPI    C1 6901   0.855  18.313  10.271 -0.0481  0.0365 -0.2087
  436POPI    C2 6902   0.625  18.608  10.130  0.0193  0.1347 -0.1161
  436POPI    C3 6903   0.813  18.652  10.480 -0.1976 -0.1306  0.0381
  436POPI   PO4 6904   0.963  18.221  10.071  0.0065  0.0100  0.2770
  436POPI   GL1 6905   1.036  18.366   9.716  0.2281  0.0801  0.1195
  436POPI   GL2 6906   0.954  18.751   9.768 -0.1838  0.1203 -0.2405
  436POPI   C1A 6907   1.155  18.428   9.383  0.0430  0.0763 -0.3033
  436POPI   D2A 6908   1.318  18.674   9.073 -0.2923 -0.0858 -0.1543
  436POPI   C3A 6909   1.322  18.842   8.693  0.0740  0.0323 -0.2668
  436POPI   C4A 6910   1.394  19.151   8.357  0.1870  0.1313  0.0910
  436POPI   C1B 6911   1.010  18.982   9.388  0.2032  0.0925 -0.3851
  436POPI   C2B 6912   0.956  19.127   8.976  0.1934 -0.0329 -0.0855
  436POPI   C3B 6913   0.962  19.250   8.584  0.0175 -0.1054 -0.1530
  436POPI   C4B 6914   0.869  19.519   8.294  0.0788  0.1876 -0.0940
  437POPI    C1 6915   3.789  12.811  10.462 -0.3395 -0.1395  0.1387
  437POPI    C2 6916   3.724  13.206  10.465  0.1579 -0.0495 -0.0279
  437POPI    C3 6917   3.733  13.002  10.809 -0.2202  0.0589  0.0503
  437POPI   PO4 6918   3.640  12.833  10.139 -0.2260  0.1035 -0.1080
  437POPI   GL1 6919   3.470  12.853   9.752  0.2571  0.2485 -0.0784
  437POPI   GL2 6920   3.688  12.941   9.590 -0.0223 -0.0943 -0.0941
  437POPI   C1A 6921   3.416  12.484   9.449 -0.2524  0.4732  0.0489
  437POPI   D2A 6922   3.303  12.345   9.091 -0.0156  0.1923  0.1633
  437POPI   C3A 6923   3.428  12.401   8.647 -0.1902 -0.0172  0.2659
  437POPI   C4A 6924   3.266  12.486   8.253  0.5014  0.2027 -0.3728
  437POPI   C1B 6925   4.009  12.954   9.286 -0.1478  0.4413  0.5122
  437POPI   C2B 6926   4.340  13.059   9.072 -0.1252 -0.3649  0.0275
  437POPI   C3B 6927   4.398  13.005   8.603  0.0193  0.0383 -0.2408
  437POPI   C4B 6928   4.196  13.015   8.171 -0.0600 -0.2133  0.0819
  438POPI    C1 6929   2.810  15.914  10.496  0.0987  0.3512 -0.2933
  438POPI    C2 6930   2.448  16.055  10.591  0.0785  0.1236 -0.0195
  438POPI    C3 6931   2.763  16.137  10.825  0.0735 -0.2449  0.1218
  438POPI   PO4 6932   2.791  15.988  10.175  0.1054  0.1026  0.0013
  438POPI   GL1 6933   2.642  16.082   9.793 -0.0550 -0.0504  0.0971
  438POPI   GL2 6934   2.832  15.870   9.680 -0.1652  0.0018  0.5018
  438POPI   C1A 6935   2.271  16.106   9.627  0.1850  0.0148 -0.0921
  438POPI   D2A 6936   1.967  16.141   9.191  0.1076 -0.2316  0.2747
  438POPI   C3A 6937   2.128  16.066   8.781  0.2781  0.1112  0.1173
  438POPI   C4A 6938   2.353  16.260   8.498 -0.1288  0.0941 -0.1838
  438POPI   C1B 6939   2.676  15.539   9.327 -0.1479 -0.0239 -0.0476
  438POPI   C2B 6940   2.806  15.359   9.029  0.1063  0.1143 -0.3804
  438POPI   C3B 6941   2.825  15.185   8.730 -0.2577  0.1806  0.0646
  438POPI   C4B 6942   2.960  15.028   8.280  0.0977  0.1912 -0.3269
  439POPI    C1 6943   5.593  16.836   9.833  0.0766  0.0474 -0.1224
  439POPI    C2 6944   5.718  17.215   9.808 -0.3375  0.1982  0.0197
  439POPI    C3 6945   5.721  17.027  10.160 -0.2933  0.1264 -0.0190
  439POPI   PO4 6946   5.611  16.742   9.617 -0.2558 -0.3045 -0.0927
  439POPI   GL1 6947   5.689  17.022   9.250  0.0194  0.3286 -0.0737
  439POPI   GL2 6948   5.587  17.295   9.258 -0.0915  0.2777  0.1012
  439POPI   C1A 6949   5.585  17.038   8.815 -0.0790 -0.0713  0.2843
  439POPI   D2A 6950   5.446  17.091   8.477  0.0582  0.3897 -0.1447
  439POPI   C3A 6951   5.604  17.204   8.156 -0.2343 -0.1714  0.0376
  439POPI   C4A 6952   5.855  17.417   7.912  0.1327 -0.1009 -0.2588
  439POPI   C1B 6953   5.622  17.569   8.953 -0.2427 -0.0652 -0.2427
  439POPI   C2B 6954   5.704  17.536   8.541 -0.2485 -0.1602  0.1153
  439POPI   C3B 6955   5.592  17.785   8.224 -0.0636 -0.2263 -0.1890
  439POPI   C4B 6956   5.519  17.815   7.768 -0.2231 -0.0432 -0.1259
  440POPI    C1 6957  18.906   5.146  10.469  0.1017  0.3538 -0.2051
  440POPI    C2 6958  18.862   4.920  10.142 -0.3448  0.2559 -0.0835
  440POPI    C3 6959  18.599   4.891  10.443  0.1344  0.2447  0.3475
  440POPI   PO4 6960  19.195   5.242  10.263 -0.0033 -0.2278  0.0337
  440POPI   GL1 6961  19.359   5.479   9.914  0.0328 -0.0763 -0.1237
  440POPI   GL2 6962  19.315   5.842   9.829  0.0847 -0.0098 -0.0800
  440POPI   C1A 6963  19.168   5.493   9.433 -0.2810  0.2512  0.0334
  440POPI   D2A 6964  19.043   5.357   9.063  0.2381  0.0616 -0.1015
  440POPI   C3A 6965  19.291   5.354   8.818 -0.1350 -0.3664 -0.4696
  440POPI   C4A 6966  19.252   5.286   8.411 -0.4963 -0.1152 -0.2253
  440POPI   C1B 6967  19.112   5.974   9.373  0.5412 -0.2512  0.3126
  440POPI   C2B 6968  19.190   5.943   8.927  0.3300 -0.0289 -0.2461
  440POPI   C3B 6969  19.384   5.804   8.617 -0.1252 -0.1618 -0.0974
  440POPI   C4B 6970  19.816   5.805   8.472  0.4065 -0.1847 -0.0039
  441POPI    C1 6971  15.502  13.077  10.171  0.1910 -0.1370  0.2195
  441POPI    C2 6972  15.207  12.829  10.065  0.1673 -0.0207  0.0080
  441POPI    C3 6973  15.164  13.066  10.385  0.1458 -0.2073  0.1447
  441POPI   PO4 6974  15.671  13.007   9.936 -0.2226  0.0143  0.0887
  441POPI   GL1 6975  15.459  12.816   9.537 -0.0683 -0.1023 -0.0603
  441POPI   GL2 6976  15.607  13.044   9.496 -0.1853  0.2354 -0.0408
  441POPI   C1A 6977  15.420  12.818   9.045  0.0487 -0.0234 -0.2995
  441POPI   D2A 6978  15.473  12.830   8.621 -0.0134 -0.0530  0.1175
  441POPI   C3A 6979  15.297  12.685   8.310  0.0683  0.0260 -0.1519
  441POPI   C4A 6980  15.287  12.681   7.921 -0.2150  0.1121 -0.1696
  441POPI   C1B 6981  15.768  13.209   9.085  0.2844 -0.0176  0.0139
  441POPI   C2B 6982  15.785  13.183   8.605 -0.0253 -0.2587  0.0895
  441POPI   C3B 6983  15.718  13.137   8.255 -0.1167 -0.1790 -0.2592
  441POPI   C4B 6984  15.731  12.859   7.983 -0.0502  0.2204 -0.0132
  442POPI    C1 6985   1.613   3.029  10.076  0.1173 -0.0459  0.1052
  442POPI    C2 6986   1.248   2.973   9.923  0.1002  0.0422  0.1128
  442POPI    C3 6987   1.335   2.836  10.289  0.0551  0.0766  0.1366
  442POPI   PO4 6988   1.657   3.260   9.974  0.0596 -0.4713 -0.2266
  442POPI   GL1 6989   1.858   3.396   9.562 -0.2007  0.3074  0.1699
  442POPI   GL2 6990   2.172   3.221   9.487 -0.0455  0.0040 -0.0938
  442POPI   C1A 6991   1.769   3.361   9.165 -0.2163  0.0676 -0.1293
  442POPI   D2A 6992   1.650   3.432   8.731  0.2776 -0.0008 -0.1049
  442POPI   C3A 6993   1.333   3.140   8.575 -0.1194 -0.0923 -0.0913
  442POPI   C4A 6994   1.450   2.780   8.524  0.2003 -0.1721  0.1155
  442POPI   C1B 6995   2.108   3.068   8.999  0.1882 -0.0485  0.0868
  442POPI   C2B 6996   1.934   3.033   8.632 -0.2210 -0.0798 -0.3353
  442POPI   C3B 6997   1.918   2.805   8.287  0.0404 -0.1069 -0.2032
  442POPI   C4B 6998   1.894   2.877   7.774 -0.0977 -0.0387 -0.0225
  443POPI    C1 6999   8.583   2.712   9.836  0.4066  0.0541 -0.0321
  443POPI    C2 7000   8.682   2.635  10.216  0.0315  0.0076  0.0601
  443POPI    C3 7001   8.610   3.011  10.099 -0.1971 -0.0150  0.1231
  443POPI   PO4 7002   8.336   2.641   9.795 -0.2164 -0.0450  0.1860
  443POPI   GL1 7003   8.228   2.746   9.335 -0.3140  0.6529 -0.3264
  443POPI   GL2 7004   8.380   3.111   9.540 -0.0073  0.0284 -0.0158
  443POPI   C1A 7005   8.106   2.714   8.930 -0.1244 -0.1172  0.1810
  443POPI   D2A 7006   8.130   2.725   8.519 -0.0120  0.1336  0.1161
  443POPI   C3A 7007   8.247   2.556   8.108  0.2252 -0.0624  0.0500
  443POPI   C4A 7008   8.206   2.124   7.743  0.5514  0.1800 -0.1264
  443POPI   C1B 7009   8.492   3.147   9.139  0.1095  0.0480 -0.2097
  443POPI   C2B 7010   8.470   2.990   8.758  0.0204 -0.1191  0.0065
  443POPI   C3B 7011   8.571   2.806   8.349 -0.0797  0.0462 -0.1932
  443POPI   C4B 7012   8.527   2.982   7.941  0.2909 -0.2771  0.0330
  444POPI    C1 7013  16.003   4.954   9.881 -0.0881  0.2537  0.1096
  444POPI    C2 7014  16.196   5.017  10.226  0.2459 -0.0299 -0.0199
  444POPI    C3 7015  15.809   5.111  10.194  0.3198  0.4126  0.2906
  444POPI   PO4 7016  15.914   4.726   9.770 -0.1288  0.2444 -0.1020
  444POPI   GL1 7017  15.870   4.654   9.301 -0.0359  0.1310 -0.1338
  444POPI   GL2 7018  15.758   4.981   9.300 -0.1096 -0.2018 -0.1776
  444POPI   C1A 7019  16.199   4.567   9.046 -0.2682  0.0081 -0.0823
  444POPI   D2A 7020  16.037   4.514   8.583 -0.1635  0.3402 -0.1421
  444POPI   C3A 7021  16.289   4.621   8.257 -0.0052 -0.0789  0.0775
  444POPI   C4A 7022  16.583   4.886   8.110  0.1843  0.6184  0.1448
  444POPI   C1B 7023  15.943   4.995   8.865  0.3268  0.0833 -0.3601
  444POPI   C2B 7024  15.870   5.043   8.527  0.2037  0.2040  0.2683
  444POPI   C3B 7025  15.918   5.193   8.250  0.0811  0.0292 -0.0989
  444POPI   C4B 7026  15.824   5.362   7.825 -0.0389 -0.4661  0.0938
  445POPI    C1 7027  17.936   0.113  10.041 -0.1722 -0.1378 -0.0494
  445POPI    C2 7028  18.072  -0.019  10.393 -0.3180 -0.3345 -0.0651
  445POPI    C3 7029  17.693   0.106  10.359 -0.1826  0.0974 -0.0499
  445POPI   PO4 7030  18.078  -0.121   9.874 -0.1771 -0.0625  0.2769
  445POPI   GL1 7031  17.863  -0.401   9.526  0.1106 -0.0998  0.0417
  445POPI   GL2 7032  17.895  -0.670   9.758 -0.1473  0.0768 -0.1017
  445POPI   C1A 7033  18.066  -0.461   9.116 -0.0392  0.1773  0.0023
  445POPI   D2A 7034  18.311  -0.278   8.916  0.1088  0.1890 -0.0269
  445POPI   C3A 7035  18.392  -0.131   8.493  0.5943  0.1709 -0.0820
  445POPI   C4A 7036  18.511  -0.056   8.100 -0.2299  0.1958  0.3825
  445POPI   C1B 7037  18.176  -0.885   9.471  0.2236  0.0228 -0.0071
  445POPI   C2B 7038  18.068  -1.007   9.171  0.0613  0.0043 -0.0602
  445POPI   C3B 7039  17.920  -1.205   8.853  0.0474 -0.2136  0.1630
  445POPI   C4B 7040  17.824  -1.140   8.418 -0.3921 -0.4358  0.1529
  446POPI    C1 7041   5.246   8.363   9.925 -0.1427  0.1304  0.0561
  446POPI    C2 7042   5.045   8.666  10.090 -0.0000  0.0913  0.3059
  446POPI    C3 7043   5.383   8.535  10.259  0.1605  0.0621 -0.0299
  446POPI   PO4 7044   5.220   8.490   9.678  0.1916 -0.1785  0.1632
  446POPI   GL1 7045   5.131   8.859   9.345  0.0784 -0.4444  0.2532
  446POPI   GL2 7046   4.924   9.168   9.301 -0.2332  0.0280 -0.1589
  446POPI   C1A 7047   5.405   9.065   9.232 -0.0765 -0.0896  0.2686
  446POPI   D2A 7048   5.449   9.217   8.741  0.1977  0.2531 -0.0645
  446POPI   C3A 7049   5.780   9.330   8.367 -0.0261  0.1926 -0.0129
  446POPI   C4A 7050   5.783   9.504   8.007 -0.2415  0.2801  0.0614
  446POPI   C1B 7051   4.942   8.886   8.933 -0.3633 -0.2294 -0.4265
  446POPI   C2B 7052   5.142   8.930   8.445  0.0555  0.1343 -0.1992
  446POPI   C3B 7053   5.326   9.250   8.157 -0.0698 -0.1311  0.2881
  446POPI   C4B 7054   5.279   9.568   7.873 -0.0121  0.2928  0.0284
  447POPI    C1 7055   1.365   0.278  10.766 -0.0791 -0.1861  0.1068
  447POPI    C2 7056   1.613  -0.036  10.771 -0.1470 -0.2401  0.1100
  447POPI    C3 7057   1.519   0.151  11.112  0.3572  0.1532  0.0455
  447POPI   PO4 7058   1.314   0.177  10.432  0.0636 -0.3694 -0.2979
  447POPI   GL1 7059   1.475   0.117   9.998 -0.1386  0.0203  0.1573
  447POPI   GL2 7060   1.763   0.311   9.903 -0.1638 -0.2431 -0.0242
  447POPI   C1A 7061   1.264   0.415   9.715  0.0122  0.0184  0.3830
  447POPI   D2A 7062   1.092   0.529   9.331  0.0610  0.0187 -0.0485
  447POPI   C3A 7063   0.694   0.675   9.282  0.0051  0.3081  0.0508
  447POPI   C4A 7064   0.499   0.911   9.489 -0.1906  0.1998  0.1715
  447POPI   C1B 7065   1.769   0.520   9.535  0.3304  0.1351 -0.0127
  447POPI   C2B 7066   1.921   0.593   9.148 -0.2442 -0.6393  0.0680
  447POPI   C3B 7067   1.751   0.614   8.728  0.1684  0.3038 -0.1831
  447POPI   C4B 7068   1.385   0.693   8.550 -0.1884 -0.0870  0.5091
  448POPI    C1 7069   6.190   4.859   9.821 -0.1099  0.0114  0.1622
  448POPI    C2 7070   5.880   4.996  10.033 -0.0380  0.0584  0.2372
  448POPI    C3 7071   6.057   4.652  10.136  0.0365  0.1127  0.2921
  448POPI   PO4 7072   6.125   4.801   9.623  0.2972  0.1349 -0.2384
  448POPI   GL1 7073   6.008   4.500   9.368 -0.0382  0.2892 -0.0497
  448POPI   GL2 7074   6.101   4.211   9.203 -0.0451 -0.0844  0.0703
  448POPI   C1A 7075   5.896   4.602   8.958  0.0961 -0.2195 -0.1508
  448POPI   D2A 7076   5.848   4.684   8.530  0.2354  0.1702 -0.1979
  448POPI   C3A 7077   5.684   5.088   8.359  0.1101 -0.2280  0.0342
  448POPI   C4A 7078   5.383   5.332   8.026 -0.0460  0.2020  0.1411
  448POPI   C1B 7079   5.962   4.141   8.797  0.0805  0.1116  0.0232
  448POPI   C2B 7080   5.947   4.279   8.303  0.0987  0.2394 -0.0734
  448POPI   C3B 7081   5.752   4.594   8.023  0.3945  0.0805  0.0559
  448POPI   C4B 7082   5.488   4.882   7.975 -0.1546  0.1634 -0.0008
  449POPI    C1 7083   7.739   8.346   9.613  0.0138  0.4160  0.2078
  449POPI    C2 7084   7.665   8.085   9.907 -0.1944  0.1887 -0.0404
  449POPI    C3 7085   7.981   8.032   9.668 -0.0707  0.3292  0.0894
  449POPI   PO4 7086   7.745   8.659   9.795 -0.1421  0.3515  0.0070
  449POPI   GL1 7087   7.903   9.098   9.494 -0.0499  0.0763 -0.1128
  449POPI   GL2 7088   8.046   8.778   9.452 -0.4582  0.0269 -0.1013
  449POPI   C1A 7089   7.967   9.078   9.026  0.1792 -0.1077  0.0406
  449POPI   D2A 7090   8.187   9.305   8.680  0.2357  0.0700  0.0309
  449POPI   C3A 7091   8.045   9.109   8.377 -0.0065  0.3528  0.2249
  449POPI   C4A 7092   8.100   9.195   7.960 -0.2647 -0.0559  0.1671
  449POPI   C1B 7093   7.858   8.512   9.156 -0.2294 -0.1885  0.1373
  449POPI   C2B 7094   7.808   8.645   8.719 -0.1736 -0.2173  0.1623
  449POPI   C3B 7095   8.109   8.552   8.330  0.1362 -0.1878  0.3159
  449POPI   C4B 7096   8.058   8.724   7.893 -0.0191  0.0733  0.1787
  450POPI    C1 7097   1.694  13.945   9.904 -0.1669  0.1265 -0.2690
  450POPI    C2 7098   1.918  14.046  10.219 -0.1128 -0.1618 -0.2124
  450POPI    C3 7099   1.652  14.306  10.071 -0.2558 -0.0822  0.1734
  450POPI   PO4 7100   1.797  13.935   9.642 -0.2872 -0.1696 -0.0869
  450POPI   GL1 7101   1.688  13.728   9.294 -0.0609 -0.0973 -0.0473
  450POPI   GL2 7102   1.543  14.064   9.197  0.1503  0.2533  0.2885
  450POPI   C1A 7103   1.951  13.743   8.905  0.0782  0.1350  0.1310
  450POPI   D2A 7104   1.879  14.023   8.602  0.0282  0.0298  0.1201
  450POPI   C3A 7105   2.002  13.988   8.178 -0.3738 -0.4875 -0.0156
  450POPI   C4A 7106   2.093  14.037   7.740 -0.0865  0.2677 -0.4764
  450POPI   C1B 7107   1.576  14.313   8.799  0.2307 -0.1829  0.2875
  450POPI   C2B 7108   1.468  14.383   8.396  0.1502 -0.0370 -0.2411
  450POPI   C3B 7109   1.244  14.289   8.118 -0.1749 -0.2857  0.3694
  450POPI   C4B 7110   1.162  14.213   7.748  0.5257 -0.1518 -0.0188
  451POPI    C1 7111  11.304  11.624   9.916 -0.0234  0.1510 -0.0738
  451POPI    C2 7112  11.476  11.982   9.866  0.0553  0.1073 -0.1176
  451POPI    C3 7113  11.457  11.818  10.230  0.1004  0.1155 -0.1115
  451POPI   PO4 7114  11.375  11.604   9.557  0.1276 -0.1056 -0.0282
  451POPI   GL1 7115  11.389  11.144   9.300 -0.0724 -0.3503 -0.1768
  451POPI   GL2 7116  11.055  11.271   9.299 -0.0051  0.3126  0.1255
  451POPI   C1A 7117  11.318  11.302   8.847 -0.0752 -0.6092 -0.1005
  451POPI   D2A 7118  11.442  11.343   8.421 -0.1085 -0.1049  0.0304
  451POPI   C3A 7119  11.767  11.593   8.294  0.3659  0.0941 -0.0992
  451POPI   C4A 7120  11.959  11.827   8.090 -0.3194 -0.1687  0.0173
  451POPI   C1B 7121  10.716  11.333   8.831 -0.2611  0.1790  0.1598
  451POPI   C2B 7122  10.627  11.411   8.380  0.0814 -0.2015  0.0979
  451POPI   C3B 7123  10.394  11.475   8.024  0.1182  0.2151  0.0932
  451POPI   C4B 7124  10.596  11.700   7.612  0.3068 -0.2816  0.0884
  452POPI    C1 7125   1.158   1.828  10.335  0.0645  0.1014  0.0257
  452POPI    C2 7126   1.504   1.660  10.447  0.0386 -0.0687 -0.1445
  452POPI    C3 7127   1.293   1.878  10.708  0.2663  0.0237 -0.0359
  452POPI   PO4 7128   1.198   1.946  10.054 -0.0332  0.0371 -0.3389
  452POPI   GL1 7129   0.907   1.727   9.766  0.3262  0.1399 -0.1464
  452POPI   GL2 7130   0.860   1.435   9.578 -0.0152 -0.0279 -0.3410
  452POPI   C1A 7131   0.962   2.147   9.533 -0.1616 -0.0649  0.0064
  452POPI   D2A 7132   0.782   2.416   9.371  0.1068 -0.2880 -0.1251
  452POPI   C3A 7133   0.562   2.465   8.997  0.0695  0.0546  0.1176
  452POPI   C4A 7134   0.204   2.477   8.770  0.0823 -0.4777  0.0688
  452POPI   C1B 7135   0.834   1.702   9.219  0.2573 -0.1502  0.0679
  452POPI   C2B 7136   0.767   2.007   9.034 -0.1984  0.0909  0.1479
  452POPI   C3B 7137   0.628   2.134   8.653 -0.2198 -0.1093  0.2573
  452POPI   C4B 7138   0.595   2.241   8.344 -0.1988  0.1377  0.0596
  453POPI    C1 7139   6.207  10.450  10.155 -0.0252 -0.0864  0.1040
  453POPI    C2 7140   5.972  10.184   9.969 -0.1398  0.0057  0.1154
  453POPI    C3 7141   5.995  10.186  10.368 -0.2488  0.1041  0.1217
  453POPI   PO4 7142   6.183  10.676  10.059  0.1873  0.2469  0.0865
  453POPI   GL1 7143   6.162  10.565   9.559 -0.5653  0.1573  0.0948
  453POPI   GL2 7144   6.420  10.579   9.309  0.0126  0.2044  0.3741
  453POPI   C1A 7145   6.080  10.256   9.363 -0.2937 -0.2421  0.1780
  453POPI   D2A 7146   6.214   9.859   9.209 -0.0289  0.2742  0.0282
  453POPI   C3A 7147   6.254   9.939   8.785 -0.1603  0.2040  0.4936
  453POPI   C4A 7148   6.362  10.064   8.458  0.1150 -0.0014 -0.0626
  453POPI   C1B 7149   6.451  10.416   8.840  0.1049  0.2185 -0.1566
  453POPI   C2B 7150   6.552  10.498   8.415 -0.3577  0.1961  0.1075
  453POPI   C3B 7151   6.509  10.247   8.064  0.2679  0.1930  0.1429
  453POPI   C4B 7152   6.666  10.075   7.686 -0.0966  0.1795  0.0202
  454POPI    C1 7153  12.573   9.863  10.091 -0.0106  0.0210  0.1318
  454POPI    C2 7154  12.558   9.586  10.379  0.0792 -0.1813 -0.0551
  454POPI    C3 7155  12.439   9.961  10.455  0.0581 -0.2437  0.2300
  454POPI   PO4 7156  12.791   9.840   9.917  0.2728 -0.0913  0.1928
  454POPI   GL1 7157  12.927  10.086   9.476 -0.2233 -0.1227  0.0008
  454POPI   GL2 7158  13.016  10.376   9.402  0.1870 -0.0217 -0.0880
  454POPI   C1A 7159  12.922   9.875   9.125  0.1861  0.1448 -0.0121
  454POPI   D2A 7160  12.850   9.893   8.707 -0.0904  0.0827  0.2609
  454POPI   C3A 7161  12.650  10.112   8.624 -0.0967 -0.0214 -0.0804
  454POPI   C4A 7162  12.752  10.273   8.200 -0.6227  0.0144 -0.0494
  454POPI   C1B 7163  12.731  10.380   9.058  0.2956 -0.1616 -0.0476
  454POPI   C2B 7164  12.626  10.839   8.887  0.0618  0.3198 -0.1013
  454POPI   C3B 7165  12.576  11.052   8.467 -0.1335 -0.1294  0.4313
  454POPI   C4B 7166  12.787  11.072   8.094 -0.0123  0.0758 -0.0862
  455POPI    C1 7167  12.704  10.557   9.983 -0.1651 -0.0671 -0.0323
  455POPI    C2 7168  12.779  10.364  10.325 -0.4000 -0.0874  0.0091
  455POPI    C3 7169  12.995  10.686  10.225 -0.2062 -0.1923  0.0850
  455POPI   PO4 7170  12.600  10.308   9.770 -0.2566  0.0744 -0.1360
  455POPI   GL1 7171  12.306  10.344   9.427 -0.0069 -0.0943 -0.1869
  455POPI   GL2 7172  12.418  10.039   9.279 -0.3379  0.2705 -0.2400
  455POPI   C1A 7173  12.203  10.745   9.184 -0.0080  0.3516 -0.0161
  455POPI   D2A 7174  12.164  11.045   8.895 -0.3890 -0.0269  0.0891
  455POPI   C3A 7175  12.054  11.103   8.444  0.1302  0.3143  0.1234
  455POPI   C4A 7176  11.758  11.062   8.144  0.5366  0.1035 -0.3093
  455POPI   C1B 7177  12.265  10.281   8.918  0.1508 -0.0865 -0.0442
  455POPI   C2B 7178  12.311  10.542   8.635 -0.1368 -0.1053  0.3053
  455POPI   C3B 7179  12.359  10.628   8.237 -0.1768  0.0948 -0.2412
  455POPI   C4B 7180  12.223  10.938   7.956 -0.0369  0.2684 -0.2603
  456POPI    C1 7181  12.142  11.442  10.000 -0.0189 -0.0423  0.0153
  456POPI    C2 7182  11.824  11.620   9.836  0.0629  0.0641 -0.0293
  456POPI    C3 7183  11.944  11.724  10.203  0.0290  0.0036 -0.0010
  456POPI   PO4 7184  12.308  11.382   9.790  0.0586  0.3660 -0.0151
  456POPI   GL1 7185  12.311  11.133   9.382 -0.3743  0.1032 -0.2013
  456POPI   GL2 7186  12.514  11.276   9.255  0.1721  0.2823 -0.2079
  456POPI   C1A 7187  11.838  11.186   9.187 -0.1693  0.1286 -0.2230
  456POPI   D2A 7188  11.778  11.424   8.823  0.0503 -0.0519 -0.0755
  456POPI   C3A 7189  11.870  11.823   8.906 -0.0287 -0.3729  0.0580
  456POPI   C4A 7190  11.630  12.230   9.001  0.0539  0.2259 -0.2421
  456POPI   C1B 7191  12.280  11.492   8.956  0.4411  0.0329  0.1346
  456POPI   C2B 7192  12.200  11.618   8.527  0.1432 -0.2986 -0.1221
  456POPI   C3B 7193  12.241  11.472   8.147 -0.2642  0.3428 -0.0462
  456POPI   C4B 7194  12.414  11.336   7.648  0.0842  0.1573  0.0939
  457POPI    C1 7195  17.979   2.596  10.245 -0.1531 -0.0466  0.3316
  457POPI    C2 7196  18.357   2.640  10.120 -0.2481  0.0387  0.0688
  457POPI    C3 7197  18.274   2.639  10.511  0.0282 -0.0193  0.1288
  457POPI   PO4 7198  17.878   2.698  10.101  0.0162 -0.1375 -0.1778
  457POPI   GL1 7199  18.125   2.673   9.668 -0.0018  0.0709  0.3361
  457POPI   GL2 7200  18.129   2.955   9.708  0.0938  0.0652  0.1151
  457POPI   C1A 7201  18.260   2.424   9.304 -0.5964 -0.0330 -0.1617
  457POPI   D2A 7202  18.628   2.623   9.049 -0.0592 -0.1476  0.2586
  457POPI   C3A 7203  18.748   2.745   8.662 -0.3606  0.0673  0.0098
  457POPI   C4A 7204  18.855   2.805   8.187  0.3216 -0.1128  0.1944
  457POPI   C1B 7205  18.196   2.930   9.254  0.1697 -0.2551  0.1194
  457POPI   C2B 7206  18.300   2.982   8.882 -0.0831  0.2205 -0.0148
  457POPI   C3B 7207  18.255   2.795   8.496  0.0065 -0.3579  0.0359
  457POPI   C4B 7208  18.387   2.807   7.984 -0.0807 -0.4275 -0.0554
  458POPI    C1 7209  14.605   9.018  10.108  0.0400  0.1667  0.0140
  458POPI    C2 7210  14.484   8.804  10.424 -0.0841  0.1288 -0.0582
  458POPI    C3 7211  14.225   9.040  10.232 -0.0796 -0.0578 -0.2991
  458POPI   PO4 7212  14.671   8.830   9.892  0.1778 -0.1362  0.1328
  458POPI   GL1 7213  14.467   8.750   9.388 -0.3077 -0.2486 -0.0861
  458POPI   GL2 7214  14.761   9.018   9.383 -0.2117 -0.3150  0.1234
  458POPI   C1A 7215  14.554   8.807   8.905  0.0132 -0.5140 -0.0121
  458POPI   D2A 7216  14.510   8.781   8.458 -0.2593  0.0031 -0.1662
  458POPI   C3A 7217  14.801   8.694   8.068  0.0678  0.0039  0.3283
  458POPI   C4A 7218  14.615   8.795   7.602  0.1261 -0.1054 -0.1905
  458POPI   C1B 7219  15.001   8.823   9.104 -0.1516  0.0521  0.0181
  458POPI   C2B 7220  15.058   8.762   8.686  0.1553 -0.3300  0.0717
  458POPI   C3B 7221  15.273   8.846   8.336 -0.1812 -0.2615  0.1441
  458POPI   C4B 7222  15.260   8.954   7.933 -0.0160 -0.0720  0.0938
  459POPI    C1 7223   4.461   8.235   9.768  0.0130 -0.2761  0.0854
  459POPI    C2 7224   4.362   8.510  10.041 -0.0694 -0.0461 -0.1714
  459POPI    C3 7225   4.724   8.340  10.051 -0.0422  0.0197  0.0301
  459POPI   PO4 7226   4.368   8.453   9.495  0.0856  0.1349 -0.2947
  459POPI   GL1 7227   4.324   8.403   9.067 -0.1146  0.0170 -0.2733
  459POPI   GL2 7228   4.656   8.455   8.957  0.0341  0.1823  0.0364
  459POPI   C1A 7229   4.252   8.371   8.705 -0.1523 -0.2174 -0.0586
  459POPI   D2A 7230   4.086   8.224   8.238  0.2154 -0.3833  0.0437
  459POPI   C3A 7231   4.199   7.925   8.095  0.2721 -0.1590 -0.0021
  459POPI   C4A 7232   4.316   7.684   7.779  0.1533 -0.4564 -0.0880
  459POPI   C1B 7233   4.666   8.776   8.551  0.0239  0.0461  0.2210
  459POPI   C2B 7234   4.394   8.638   8.131 -0.1650  0.1111 -0.0843
  459POPI   C3B 7235   4.324   8.510   7.740 -0.1668 -0.0664 -0.1263
  459POPI   C4B 7236   4.085   8.163   7.525 -0.0772 -0.1404  0.1894
  460POPI    C1 7237  14.814  15.412   9.852 -0.2284 -0.1392 -0.2468
  460POPI    C2 7238  14.713  15.395  10.239  0.0713  0.3711 -0.1352
  460POPI    C3 7239  15.050  15.221  10.113 -0.0156  0.2232 -0.1661
  460POPI   PO4 7240  14.632  15.604   9.735 -0.0223 -0.1540 -0.0715
  460POPI   GL1 7241  14.787  15.669   9.352 -0.0618 -0.0433 -0.0707
  460POPI   GL2 7242  14.855  15.929   9.426  0.2739 -0.2372  0.0071
  460POPI   C1A 7243  14.786  15.769   8.927  0.0364 -0.1561  0.0206
  460POPI   D2A 7244  14.562  15.668   8.669 -0.1424  0.0344  0.2016
  460POPI   C3A 7245  14.596  15.536   8.282 -0.2739 -0.0198 -0.1392
  460POPI   C4A 7246  14.699  15.793   7.880 -0.1203  0.0159 -0.1066
  460POPI   C1B 7247  14.864  16.224   9.044  0.0238 -0.0207 -0.2643
  460POPI   C2B 7248  14.562  16.153   8.657 -0.2843 -0.0262 -0.0658
  460POPI   C3B 7249  14.398  16.027   8.324  0.1207  0.0525  0.0437
  460POPI   C4B 7250  14.103  15.692   8.268  0.1369 -0.0318  0.2085
  461POPI    C1 7251  18.444   0.827  10.248 -0.2648  0.0356  0.0288
  461POPI    C2 7252  18.667   0.999  10.533 -0.0581 -0.1614 -0.0111
  461POPI    C3 7253  18.271   0.964  10.582 -0.1068  0.3292 -0.0070
  461POPI   PO4 7254  18.659   0.625  10.047  0.2617 -0.1552  0.0667
  461POPI   GL1 7255  18.719   0.230   9.699  0.2829 -0.3333 -0.2148
  461POPI   GL2 7256  18.434   0.317   9.554 -0.3563 -0.2531 -0.0990
  461POPI   C1A 7257  19.043   0.056   9.267 -0.0807  0.1737 -0.1301
  461POPI   D2A 7258  19.434   0.204   9.225 -0.1095 -0.1881  0.0978
  461POPI   C3A 7259  19.640   0.354   9.663  0.0886  0.0607 -0.1426
  461POPI   C4A 7260  19.445   0.529  10.065 -0.2571 -0.0061 -0.0099
  461POPI   C1B 7261  18.410   0.555   9.151  0.0564  0.0330  0.0810
  461POPI   C2B 7262  18.485   0.562   8.707  0.1961  0.3639  0.4055
  461POPI   C3B 7263  18.662   0.422   8.305  0.0325 -0.3917  0.2498
  461POPI   C4B 7264  18.740   0.354   7.883  0.2226  0.1114 -0.2381
  462POPI    C1 7265  14.274  17.773  10.136  0.0317  0.1428 -0.0824
  462POPI    C2 7266  14.008  18.009  10.319  0.0620  0.1097  0.0045
  462POPI    C3 7267  13.951  17.614  10.308  0.0374  0.1158 -0.0969
  462POPI   PO4 7268  14.298  17.838   9.905 -0.0392  0.1569 -0.3354
  462POPI   GL1 7269  14.482  17.633   9.578 -0.3401 -0.2711  0.1346
  462POPI   GL2 7270  14.175  17.514   9.340  0.2623 -0.0038 -0.0890
  462POPI   C1A 7271  14.731  17.648   9.187  0.2255 -0.2135 -0.0030
  462POPI   D2A 7272  15.030  17.579   8.796  0.3591 -0.2521 -0.1703
  462POPI   C3A 7273  14.951  17.424   8.456  0.0146  0.2273  0.0113
  462POPI   C4A 7274  14.739  17.220   8.133  0.0512 -0.1632 -0.1205
  462POPI   C1B 7275  14.274  17.576   8.915 -0.4195  0.3207  0.1025
  462POPI   C2B 7276  14.337  17.609   8.464 -0.0474  0.0527 -0.1488
  462POPI   C3B 7277  14.324  17.473   8.091  0.0913 -0.0671 -0.1396
  462POPI   C4B 7278  14.134  17.507   7.672 -0.0510  0.4718 -0.1008
  463POPI    C1 7279  17.535  18.313  10.244  0.4106 -0.2707  0.0862
  463POPI    C2 7280  17.679  18.641  10.067 -0.3588 -0.0269 -0.1271
  463POPI    C3 7281  17.702  18.601  10.464 -0.2058  0.2567 -0.1049
  463POPI   PO4 7282  17.671  18.073  10.140 -0.3871 -0.0130  0.0450
  463POPI   GL1 7283  17.922  17.852  10.003  0.2076 -0.1384  0.3309
  463POPI   GL2 7284  17.990  17.669  10.243  0.5022 -0.0627 -0.0220
  463POPI   C1A 7285  17.921  17.607   9.680 -0.0699 -0.0475  0.1405
  463POPI   D2A 7286  18.155  17.250   9.409  0.0497 -0.0070  0.1946
  463POPI   C3A 7287  18.317  17.452   9.074  0.0012 -0.1271 -0.1937
  463POPI   C4A 7288  18.342  17.510   8.718 -0.0407 -0.2685 -0.3294
  463POPI   C1B 7289  17.715  17.360  10.043  0.2246  0.1082  0.1874
  463POPI   C2B 7290  17.375  17.396   9.936 -0.4707  0.0148 -0.1747
  463POPI   C3B 7291  17.363  17.626   9.632  0.0540  0.2137  0.2417
  463POPI   C4B 7292  17.591  17.670   9.324  0.2747  0.1232 -0.1508
  464POPI    C1 7293   4.540  11.730  10.295 -0.1047 -0.0631 -0.0587
  464POPI    C2 7294   4.624  11.943  10.624 -0.0313 -0.1016 -0.0523
  464POPI    C3 7295   4.436  11.591  10.656  0.0365 -0.1376 -0.0458
  464POPI   PO4 7296   4.851  11.710  10.050 -0.1131 -0.3334 -0.1697
  464POPI   GL1 7297   4.784  11.921   9.734  0.3750  0.2721 -0.0950
  464POPI   GL2 7298   5.118  11.963   9.645 -0.0984  0.2172 -0.1904
  464POPI   C1A 7299   4.666  12.159   9.429 -0.1226 -0.2564  0.3252
  464POPI   D2A 7300   4.566  12.523   9.190  0.0405  0.0135 -0.3308
  464POPI   C3A 7301   4.379  12.493   8.788  0.0620  0.0251 -0.1196
  464POPI   C4A 7302   4.169  12.515   8.381  0.2776 -0.5037 -0.1767
  464POPI   C1B 7303   5.196  12.051   9.311 -0.2488 -0.0017 -0.3285
  464POPI   C2B 7304   5.305  11.971   8.913 -0.1833 -0.0529 -0.1967
  464POPI   C3B 7305   5.441  11.926   8.382 -0.0127 -0.5458 -0.4192
  464POPI   C4B 7306   5.377  11.777   7.993 -0.3035  0.0739 -0.1359
  465POPI    C1 7307  17.311   2.592   9.896 -0.0312 -0.1052  0.0705
  465POPI    C2 7308  17.361   2.828  10.215  0.0241  0.1118 -0.0960
  465POPI    C3 7309  17.078   2.546  10.217 -0.0490  0.1849  0.1023
  465POPI   PO4 7310  17.540   2.568   9.766 -0.1822  0.3376 -0.3132
  465POPI   GL1 7311  17.628   2.308   9.419  0.2210 -0.3167  0.4700
  465POPI   GL2 7312  17.463   2.229   9.143  0.0990  0.5356  0.0285
  465POPI   C1A 7313  17.924   2.219   8.957  0.1710  0.3949 -0.1263
  465POPI   D2A 7314  18.210   2.406   8.822  0.3022 -0.2217  0.0024
  465POPI   C3A 7315  18.145   2.321   8.345 -0.0517  0.0991  0.0140
  465POPI   C4A 7316  18.415   2.282   8.030 -0.0961 -0.2929  0.0070
  465POPI   C1B 7317  17.498   2.189   8.702 -0.0005 -0.1979 -0.1967
  465POPI   C2B 7318  17.662   2.229   8.303 -0.2620  0.4016 -0.0743
  465POPI   C3B 7319  17.610   2.481   7.892 -0.0537 -0.0738 -0.1672
  465POPI   C4B 7320  17.382   2.405   7.599 -0.1554 -0.0393 -0.2224
  466POPI    C1 7321   4.250  10.906  10.138  0.0203 -0.0104  0.2265
  466POPI    C2 7322   4.085  10.567  10.006 -0.2221  0.1609  0.0805
  466POPI    C3 7323   4.307  10.565  10.338 -0.0291 -0.1816 -0.0450
  466POPI   PO4 7324   4.194  11.076   9.944 -0.0633 -0.3788 -0.1244
  466POPI   GL1 7325   4.042  11.006   9.581  0.0660  0.0300 -0.0831
  466POPI   GL2 7326   4.359  11.057   9.420 -0.0939  0.0647  0.4378
  466POPI   C1A 7327   3.810  10.726   9.326 -0.0304 -0.1827 -0.0434
  466POPI   D2A 7328   3.547  10.730   9.064  0.0113 -0.0131  0.1676
  466POPI   C3A 7329   3.426  10.829   8.652  0.1014  0.3868  0.3069
  466POPI   C4A 7330   3.338  10.724   8.209 -0.0837 -0.1347 -0.2125
  466POPI   C1B 7331   4.352  10.781   9.087  0.0208 -0.0482  0.3659
  466POPI   C2B 7332   4.419  10.686   8.580  0.1939  0.2090 -0.0215
  466POPI   C3B 7333   4.495  10.944   8.173  0.0914 -0.0734  0.2262
  466POPI   C4B 7334   4.608  11.166   7.784 -0.0422  0.0289  0.1669
  467POPI    C1 7335   7.366  13.878  10.324 -0.1162 -0.2151  0.0581
  467POPI    C2 7336   7.072  13.718  10.543 -0.2033  0.0281  0.1221
  467POPI    C3 7337   7.229  13.513  10.238 -0.2095 -0.2374  0.2944
  467POPI   PO4 7338   7.287  14.057  10.104  0.4543 -0.0612 -0.0214
  467POPI   GL1 7339   7.436  14.373   9.804  0.1339  0.0790 -0.3151
  467POPI   GL2 7340   7.535  14.144   9.665 -0.1686 -0.2011 -0.2578
  467POPI   C1A 7341   7.416  14.526   9.334  0.0223  0.2138  0.0721
  467POPI   D2A 7342   7.301  14.500   8.896 -0.1872 -0.3366  0.2281
  467POPI   C3A 7343   7.328  14.813   8.613 -0.1852  0.0340  0.0748
  467POPI   C4A 7344   7.254  14.822   8.150  0.0358  0.1553  0.4164
  467POPI   C1B 7345   7.705  14.030   9.227 -0.1157  0.1669 -0.3292
  467POPI   C2B 7346   7.576  14.043   8.666  0.0804 -0.1448 -0.1618
  467POPI   C3B 7347   7.489  14.374   8.318  0.2228 -0.2452  0.0307
  467POPI   C4B 7348   7.051  14.268   7.988 -0.0416 -0.2082  0.0406
  468POPI    C1 7349  11.066   8.893   9.760 -0.0727 -0.1227 -0.0135
  468POPI    C2 7350  11.280   8.602   9.931  0.0175 -0.0297  0.0335
  468POPI    C3 7351  11.227   8.949  10.122  0.1070  0.0698 -0.1205
  468POPI   PO4 7352  11.149   8.812   9.515 -0.1400  0.1546 -0.1150
  468POPI   GL1 7353  11.147   8.544   9.204  0.2658 -0.0883  0.1398
  468POPI   GL2 7354  11.384   8.751   9.095 -0.1582 -0.0145 -0.0605
  468POPI   C1A 7355  10.988   8.556   8.910 -0.1102  0.2633  0.0683
  468POPI   D2A 7356  11.021   8.746   8.496  0.2515  0.1006  0.1472
  468POPI   C3A 7357  10.840   8.840   8.091 -0.2358 -0.1116  0.1347
  468POPI   C4A 7358  11.089   8.939   7.679  0.1753 -0.0786  0.0859
  468POPI   C1B 7359  11.628   8.588   8.751  0.0270  0.2444  0.2065
  468POPI   C2B 7360  11.535   8.462   8.342 -0.1574 -0.1521 -0.2245
  468POPI   C3B 7361  11.792   8.238   8.121  0.0164  0.3321  0.2783
  468POPI   C4B 7362  11.854   8.340   7.741 -0.1538 -0.1483 -0.1287
  469POPI    C1 7363   9.126   8.093   9.992 -0.3056  0.1251 -0.0218
  469POPI    C2 7364   8.854   7.910  10.221 -0.0768  0.2181  0.3322
  469POPI    C3 7365   9.102   8.179  10.382  0.2523  0.1062  0.0245
  469POPI   PO4 7366   8.983   8.011   9.729  0.0794 -0.0679  0.1039
  469POPI   GL1 7367   9.126   7.818   9.443 -0.1235  0.1325  0.1347
  469POPI   GL2 7368   9.182   7.506   9.400 -0.1309  0.1718  0.0864
  469POPI   C1A 7369   9.177   7.965   9.038  0.2430  0.1420 -0.3734
  469POPI   D2A 7370   9.300   7.857   8.606  0.4152  0.1185 -0.2679
  469POPI   C3A 7371   9.282   8.158   8.210  0.0556 -0.3188  0.0760
  469POPI   C4A 7372   9.024   8.432   7.986 -0.1117 -0.1126  0.3323
  469POPI   C1B 7373   9.250   7.424   8.952 -0.4508  0.1346  0.1788
  469POPI   C2B 7374   9.365   7.302   8.498  0.3301 -0.1552 -0.2348
  469POPI   C3B 7375   9.151   7.442   8.224 -0.0540  0.1179  0.1831
  469POPI   C4B 7376   9.069   7.544   7.814 -0.0759 -0.0901  0.2580
  470POPI    C1 7377   1.316  16.243  10.076  0.2976  0.3209 -0.2395
  470POPI    C2 7378   1.342  16.384  10.450 -0.1960 -0.0984 -0.0353
  470POPI    C3 7379   1.618  16.128  10.312 -0.0833 -0.0425  0.0848
  470POPI   PO4 7380   1.372  16.442   9.967  0.1732 -0.0505  0.0095
  470POPI   GL1 7381   1.611  16.531   9.579 -0.1102  0.0077 -0.0825
  470POPI   GL2 7382   1.803  16.464   9.518  0.0783 -0.1944  0.3607
  470POPI   C1A 7383   1.616  16.510   9.076 -0.1651  0.0586  0.0151
  470POPI   D2A 7384   1.868  16.599   8.721 -0.0103 -0.1344 -0.2419
  470POPI   C3A 7385   1.878  16.270   8.392  0.1951 -0.0691  0.1501
  470POPI   C4A 7386   1.586  16.123   8.137 -0.3525 -0.2388  0.1387
  470POPI   C1B 7387   2.169  16.564   9.175  0.0604 -0.1804 -0.2538
  470POPI   C2B 7388   2.399  16.608   8.855  0.4268  0.2609 -0.0367
  470POPI   C3B 7389   2.656  16.635   8.608 -0.0909 -0.2357 -0.2019
  470POPI   C4B 7390   2.694  16.443   8.245  0.2457  0.2856 -0.0224
  471POPI    C1 7391   9.038   4.545   9.769  0.3206  0.0853 -0.1911
  471POPI    C2 7392   9.043   4.920   9.909  0.2688  0.0526 -0.1007
  471POPI    C3 7393   8.813   4.827   9.595  0.1104  0.0486  0.0155
  471POPI   PO4 7394   9.337   4.453   9.716 -0.2414 -0.2078 -0.0904
  471POPI   GL1 7395   9.508   4.311   9.296 -0.0353  0.0490 -0.1276
  471POPI   GL2 7396   9.441   4.020   9.285  0.4897  0.0749  0.1822
  471POPI   C1A 7397   9.421   4.619   9.032  0.7121  0.0712  0.0269
  471POPI   D2A 7398   9.129   4.569   8.703  0.2084  0.1051  0.6336
  471POPI   C3A 7399   9.172   4.591   8.267  0.3136  0.0781 -0.0984
  471POPI   C4A 7400   9.148   4.609   7.883  0.1176 -0.2809  0.1820
  471POPI   C1B 7401   9.145   4.133   8.951 -0.1587 -0.0335  0.3065
  471POPI   C2B 7402   8.897   4.115   8.517 -0.1792  0.1020 -0.2258
  471POPI   C3B 7403   8.889   4.197   8.095  0.3638  0.1268  0.1029
  471POPI   C4B 7404   8.979   4.076   7.596 -0.2849 -0.1708  0.2840
  472POPI    C1 7405  11.534  18.520  10.084  0.2414 -0.1697  0.0943
  472POPI    C2 7406  11.249  18.295  10.251  0.1559 -0.0968  0.0472
  472POPI    C3 7407  11.466  18.544  10.477 -0.0735  0.1264  0.0268
  472POPI   PO4 7408  11.458  18.598   9.877 -0.3490  0.1321  0.1244
  472POPI   GL1 7409  11.610  18.473   9.499 -0.0876 -0.3135  0.0400
  472POPI   GL2 7410  11.894  18.266   9.463 -0.0476 -0.0776 -0.0648
  472POPI   C1A 7411  11.698  18.627   9.097 -0.2859  0.0762 -0.0523
  472POPI   D2A 7412  12.117  18.907   8.898  0.3757  0.0073  0.0334
  472POPI   C3A 7413  12.050  19.063   8.434  0.0223  0.2009  0.1178
  472POPI   C4A 7414  12.292  18.897   7.991  0.1333  0.1869  0.0512
  472POPI   C1B 7415  11.671  18.171   9.018 -0.1033  0.0188 -0.2425
  472POPI   C2B 7416  11.599  18.033   8.534 -0.3703  0.1251 -0.0270
  472POPI   C3B 7417  11.455  17.928   8.168 -0.0244  0.0544 -0.1963
  472POPI   C4B 7418  11.580  18.262   7.893  0.1141  0.1631  0.0669
  473DPPI    C1 7419   8.023   3.737  10.008 -0.0962  0.1963 -0.2950
  473DPPI    C2 7420   7.742   3.721  10.292  0.0523  0.3808 -0.1348
  473DPPI    C3 7421   8.119   3.815  10.389  0.2444 -0.1820 -0.2957
  473DPPI   PO4 7422   7.938   3.721   9.800 -0.1020 -0.4853 -0.0175
  473DPPI   GL1 7423   7.823   3.771   9.407  0.0266  0.0509 -0.3186
  473DPPI   GL2 7424   7.543   3.954   9.378 -0.0059  0.1360  0.1185
  473DPPI   C1A 7425   7.622   3.593   9.018 -0.1759  0.2177  0.0521
  473DPPI   C2A 7426   7.500   3.401   8.702  0.0194  0.4963  0.1022
  473DPPI   C3A 7427   7.301   3.320   8.321  0.1602 -0.0168 -0.2648
  473DPPI   C4A 7428   7.143   2.959   8.294  0.1531  0.1270  0.1918
  473DPPI   C1B 7429   7.927   4.150   9.108 -0.3231 -0.0530 -0.1275
  473DPPI   C2B 7430   7.701   4.235   8.809  0.0973 -0.2360  0.0716
  473DPPI   C3B 7431   7.673   4.129   8.447 -0.2416  0.0276  0.0334
  473DPPI   C4B 7432   7.774   4.107   8.073  0.2441  0.3174  0.0303
  474DPPI    C1 7433  17.191   0.104  10.109 -0.0878  0.0809  0.2192
  474DPPI    C2 7434  17.191  -0.296  10.093 -0.1528  0.0908 -0.0929
  474DPPI    C3 7435  17.224  -0.110  10.446 -0.1239 -0.1885  0.0546
  474DPPI   PO4 7436  17.410   0.159   9.910  0.2102  0.1460  0.1362
  474DPPI   GL1 7437  17.455  -0.134   9.572 -0.2094  0.1534  0.2214
  474DPPI   GL2 7438  17.325   0.192   9.382 -0.1516 -0.0781 -0.3129
  474DPPI   C1A 7439  17.590  -0.149   9.167 -0.0147 -0.2103  0.0410
  474DPPI   C2A 7440  17.778  -0.179   8.884  0.3700 -0.1613  0.0188
  474DPPI   C3A 7441  17.903  -0.090   8.504 -0.0899  0.3679 -0.1703
  474DPPI   C4A 7442  18.003  -0.232   8.184 -0.0568  0.0963 -0.2623
  474DPPI   C1B 7443  17.378   0.197   8.925 -0.0554 -0.0851  0.1064
  474DPPI   C2B 7444  17.621   0.274   8.577 -0.3164  0.0210 -0.1270
  474DPPI   C3B 7445  17.581   0.170   8.075  0.0768 -0.0083 -0.0672
  474DPPI   C4B 7446  17.793  -0.008   7.700 -0.0889  0.2105  0.2352
  475DPPI    C1 7447   9.791   6.662   9.471  0.0203 -0.2418 -0.2049
  475DPPI    C2 7448   9.420   6.590   9.341 -0.1097  0.1523 -0.0667
  475DPPI    C3 7449   9.480   6.712   9.717  0.1583  0.1229 -0.0978
  475DPPI   PO4 7450   9.897   6.808   9.271  0.0984 -0.0231  0.1279
  475DPPI   GL1 7451  10.125   7.049   9.085  0.2647  0.0330 -0.3318
  475DPPI   GL2 7452  10.286   7.287   8.937  0.1919  0.2605  0.0720
  475DPPI   C1A 7453   9.748   7.068   8.709 -0.3237  0.4645 -0.1850
  475DPPI   C2A 7454   9.797   7.138   8.297 -0.3078 -0.1706  0.0732
  475DPPI   C3A 7455   9.616   7.255   7.961 -0.0954 -0.1320 -0.0360
  475DPPI   C4A 7456   9.609   7.415   7.618  0.1580 -0.2578 -0.0273
  475DPPI   C1B 7457  10.176   7.427   8.471  0.1349  0.1509  0.0249
  475DPPI   C2B 7458  10.017   7.527   8.024 -0.3388  0.2283 -0.0888
  475DPPI   C3B 7459   9.909   7.831   7.780 -0.0018 -0.2726 -0.1341
  475DPPI   C4B 7460  10.030   8.137   7.698  0.0177 -0.1796 -0.0050
  476DPPI    C1 7461  15.739  13.535  10.234  0.0005 -0.1130  0.1125
  476DPPI    C2 7462  15.951  13.215  10.348  0.0682 -0.0408  0.1907
  476DPPI    C3 7463  15.995  13.563  10.540 -0.1952 -0.0499  0.2723
  476DPPI   PO4 7464  15.804  13.503   9.990  0.0859  0.4875  0.3158
  476DPPI   GL1 7465  15.721  13.729   9.648 -0.3360  0.1316 -0.0957
  476DPPI   GL2 7466  15.412  13.537   9.585 -0.0310 -0.0214 -0.0225
  476DPPI   C1A 7467  15.760  13.720   9.227 -0.3896  0.3755 -0.2019
  476DPPI   C2A 7468  15.671  13.639   8.878  0.2664  0.0448 -0.1083
  476DPPI   C3A 7469  15.569  13.585   8.417 -0.1083 -0.4650 -0.0265
  476DPPI   C4A 7470  15.445  13.820   7.964 -0.2546 -0.0920 -0.0380
  476DPPI   C1B 7471  15.215  13.792   9.363  0.4903  0.1440 -0.2485
  476DPPI   C2B 7472  15.109  13.745   8.983 -0.0532 -0.0906  0.2459
  476DPPI   C3B 7473  15.142  13.781   8.599 -0.2816  0.0109 -0.4429
  476DPPI   C4B 7474  15.054  13.731   8.226  0.0851  0.0719  0.0757
  477DPPI    C1 7475  11.104  10.669  10.075 -0.0646  0.0589  0.1483
  477DPPI    C2 7476  10.822  10.835  10.305 -0.0787 -0.0027  0.1758
  477DPPI    C3 7477  11.205  10.939  10.352 -0.0991  0.0966  0.1243
  477DPPI   PO4 7478  10.895  10.511   9.942  0.0078  0.0554  0.2339
  477DPPI   GL1 7479  10.700  10.460   9.547 -0.2871  0.1549 -0.0162
  477DPPI   GL2 7480  10.884  10.165   9.529  0.0013  0.1608 -0.1601
  477DPPI   C1A 7481  10.410  10.337   9.198  0.1329  0.3902  0.0534
  477DPPI   C2A 7482  10.284  10.370   8.787 -0.1755 -0.1474  0.1118
  477DPPI   C3A 7483  10.205  10.622   8.550 -0.0577 -0.1681 -0.1241
  477DPPI   C4A 7484  10.538  10.829   8.301  0.1151 -0.2998 -0.0237
  477DPPI   C1B 7485  10.974  10.326   9.179  0.0579  0.4374  0.0651
  477DPPI   C2B 7486  10.931  10.291   8.836 -0.0339 -0.0267  0.2143
  477DPPI   C3B 7487  10.804  10.422   8.409 -0.0172  0.0883 -0.1780
  477DPPI   C4B 7488  10.888  10.651   8.005 -0.1314 -0.0900  0.0918
  478DPPI    C1 7489   9.265   9.305   9.989  0.0567  0.1111  0.0095
  478DPPI    C2 7490   9.457   9.136  10.296  0.2144  0.0792 -0.1054
  478DPPI    C3 7491   9.393   8.927   9.961 -0.1658  0.0360 -0.0099
  478DPPI   PO4 7492   9.029   9.460  10.131  0.2827  0.0110  0.0351
  478DPPI   GL1 7493   8.859   9.629   9.881  0.3347  0.2666  0.1751
  478DPPI   GL2 7494   8.770   9.356   9.694 -0.1182 -0.0967  0.0180
  478DPPI   C1A 7495   8.997   9.728   9.437 -0.1456  0.0004 -0.0423
  478DPPI   C2A 7496   9.057   9.637   8.966  0.4116  0.1613 -0.0816
  478DPPI   C3A 7497   9.036   9.753   8.525  0.2513  0.0478 -0.1418
  478DPPI   C4A 7498   9.055   9.782   8.128  0.1067 -0.0780  0.2249
  478DPPI   C1B 7499   8.865   9.287   9.206  0.0752 -0.1814 -0.0246
  478DPPI   C2B 7500   9.038   9.104   8.865 -0.1453  0.2364  0.0426
  478DPPI   C3B 7501   8.990   9.287   8.436  0.1547 -0.0716  0.4068
  478DPPI   C4B 7502   8.833   9.326   8.077  0.2375  0.0028  0.2870
  479DPPI    C1 7503  10.475  12.023   9.822  0.0144  0.1831  0.2771
  479DPPI    C2 7504  10.183  11.757   9.885  0.0532  0.0644 -0.0260
  479DPPI    C3 7505  10.510  11.754  10.116 -0.0865  0.0561  0.1743
  479DPPI   PO4 7506  10.274  12.237   9.766  0.1795 -0.0075  0.1261
  479DPPI   GL1 7507  10.173  12.386   9.361 -0.0585 -0.0318 -0.0497
  479DPPI   GL2 7508  10.439  12.058   9.315 -0.1123 -0.0935  0.0627
  479DPPI   C1A 7509  10.003  12.409   8.995 -0.1538  0.1017  0.0215
  479DPPI   C2A 7510   9.951  12.359   8.589 -0.0663  0.3195 -0.0396
  479DPPI   C3A 7511   9.709  12.608   8.259  0.3346  0.2327  0.1203
  479DPPI   C4A 7512   9.665  12.798   7.917  0.2148  0.2118 -0.2123
  479DPPI   C1B 7513  10.552  12.193   8.841 -0.0061  0.0056 -0.1957
  479DPPI   C2B 7514  10.679  12.284   8.553  0.3350  0.4171 -0.3435
  479DPPI   C3B 7515  10.559  12.561   8.273  0.2185  0.3764  0.0769
  479DPPI   C4B 7516  10.676  12.566   7.819  0.3985  0.1809  0.1892
  480DPPI    C1 7517   4.591  10.121   9.700 -0.0560  0.1032 -0.0653
  480DPPI    C2 7518   4.719   9.863   9.978  0.0137  0.0891 -0.1101
  480DPPI    C3 7519   4.530  10.198  10.088  0.2511  0.2000 -0.0335
  480DPPI   PO4 7520   4.675   9.979   9.512 -0.2599 -0.2216 -0.0133
  480DPPI   GL1 7521   4.684   9.600   9.237 -0.3310  0.3599  0.2898
  480DPPI   GL2 7522   4.298   9.622   9.082  0.2933  0.1664 -0.1228
  480DPPI   C1A 7523   4.724   9.868   8.846 -0.3403 -0.0655  0.0789
  480DPPI   C2A 7524   4.661   9.983   8.434 -0.1526  0.2132 -0.0340
  480DPPI   C3A 7525   4.537  10.022   8.040  0.1079 -0.0498  0.0157
  480DPPI   C4A 7526   4.720  10.157   7.645 -0.0531  0.1094  0.0255
  480DPPI   C1B 7527   4.360   9.599   8.684  0.1923  0.1709  0.0096
  480DPPI   C2B 7528   4.396   9.619   8.297  0.0683  0.0178  0.2984
  480DPPI   C3B 7529   4.269   9.382   7.880 -0.2189 -0.1197 -0.0532
  480DPPI   C4B 7530   4.553   9.162   7.606 -0.3314 -0.1817 -0.0946
  481DPPI    C1 7531  11.493   7.989   9.706 -0.0211 -0.1039  0.0613
  481DPPI    C2 7532  11.246   8.275   9.578  0.0822 -0.0572 -0.0352
  481DPPI    C3 7533  11.211   7.903   9.436  0.1423 -0.0245 -0.1373
  481DPPI   PO4 7534  11.733   8.142   9.656 -0.1751  0.2128  0.2342
  481DPPI   GL1 7535  11.816   8.246   9.263  0.3055  0.0767  0.0052
  481DPPI   GL2 7536  11.544   8.197   9.122 -0.3140  0.1145  0.1493
  481DPPI   C1A 7537  11.930   7.995   8.884 -0.0878 -0.1066 -0.3229
  481DPPI   C2A 7538  11.921   7.853   8.579 -0.2349  0.0941  0.0110
  481DPPI   C3A 7539  11.932   7.702   8.160  0.1307 -0.0108 -0.0233
  481DPPI   C4A 7540  11.837   7.799   7.737  0.3540  0.1626  0.1999
  481DPPI   C1B 7541  11.482   8.076   8.698  0.1211  0.1843 -0.1278
  481DPPI   C2B 7542  11.403   7.962   8.253  0.0739  0.0999 -0.2150
  481DPPI   C3B 7543  11.379   7.894   7.813  0.0422 -0.2173 -0.6745
  481DPPI   C4B 7544  11.402   7.566   7.529 -0.0764 -0.4362  0.3232
  482DPPI    C1 7545  10.585  13.977  10.138  0.0291 -0.3501 -0.2208
  482DPPI    C2 7546  10.398  13.780  10.432  0.1280  0.0276  0.1039
  482DPPI    C3 7547  10.778  13.894  10.478  0.1003  0.2169 -0.1136
  482DPPI   PO4 7548  10.396  13.820   9.916 -0.0243 -0.0608  0.1690
  482DPPI   GL1 7549  10.262  14.044   9.641 -0.1358 -0.1282 -0.3647
  482DPPI   GL2 7550   9.904  14.115   9.618  0.1546  0.0836  0.3237
  482DPPI   C1A 7551  10.333  14.001   9.142 -0.0429 -0.0262 -0.1691
  482DPPI   C2A 7552  10.396  13.819   8.710 -0.0010  0.0570 -0.3628
  482DPPI   C3A 7553  10.596  13.597   8.476  0.0312 -0.0418  0.2717
  482DPPI   C4A 7554  10.835  13.475   8.132 -0.4030 -0.0450  0.1390
  482DPPI   C1B 7555   9.931  14.251   9.276 -0.2428  0.1394  0.0496
  482DPPI   C2B 7556   9.932  14.153   8.881  0.0435  0.1994  0.2470
  482DPPI   C3B 7557  10.033  14.025   8.457  0.1226 -0.3048 -0.1710
  482DPPI   C4B 7558   9.754  13.809   8.097  0.0839  0.3839  0.0140
  483DPPI    C1 7559  10.052   3.009  10.036  0.1416  0.1612  0.3204
  483DPPI    C2 7560  10.379   2.863  10.214  0.0675 -0.0499  0.2868
  483DPPI    C3 7561  10.023   2.696  10.283 -0.0292  0.1566  0.2955
  483DPPI   PO4 7562  10.170   3.091   9.749  0.1140 -0.3507  0.1174
  483DPPI   GL1 7563  10.069   3.244   9.238 -0.2017  0.0922  0.3475
  483DPPI   GL2 7564  10.411   3.277   9.203  0.1843 -0.0355  0.0101
  483DPPI   C1A 7565   9.928   3.572   8.933  0.0816  0.1674 -0.1970
  483DPPI   C2A 7566   9.751   3.667   8.536  0.1387  0.1404  0.2604
  483DPPI   C3A 7567   9.664   3.711   8.091 -0.1215  0.1981 -0.3469
  483DPPI   C4A 7568   9.983   3.845   7.861 -0.1409 -0.2372  0.4618
  483DPPI   C1B 7569  10.293   3.187   8.800  0.6109  0.2834  0.4093
  483DPPI   C2B 7570  10.067   3.328   8.343  0.1044  0.0416  0.1788
  483DPPI   C3B 7571   9.978   3.282   7.886 -0.2802  0.2020  0.0198
  483DPPI   C4B 7572  10.177   3.187   7.486  0.0518  0.1988 -0.3658
  484DPPI    C1 7573  14.338  17.307  10.012 -0.0530  0.1899  0.1731
  484DPPI    C2 7574  14.317  16.994  10.261 -0.0390 -0.1261 -0.2123
  484DPPI    C3 7575  14.394  17.359  10.404 -0.0004 -0.3052  0.2389
  484DPPI   PO4 7576  14.444  17.228   9.847 -0.0195 -0.0886  0.1852
  484DPPI   GL1 7577  14.682  17.086   9.530 -0.2865 -0.0854  0.1012
  484DPPI   GL2 7578  14.919  17.347   9.644 -0.0753  0.3207 -0.3003
  484DPPI   C1A 7579  14.875  16.982   9.071  0.2994 -0.3316 -0.1204
  484DPPI   C2A 7580  15.151  16.905   8.681 -0.1954 -0.0117  0.1005
  484DPPI   C3A 7581  15.155  16.837   8.259  0.1661  0.1415 -0.0818
  484DPPI   C4A 7582  15.223  16.804   7.847  0.0013  0.1120 -0.1227
  484DPPI   C1B 7583  15.130  17.401   9.296 -0.2332  0.0620  0.4896
  484DPPI   C2B 7584  15.332  17.274   8.982 -0.2732  0.0356 -0.1068
  484DPPI   C3B 7585  15.489  17.202   8.545 -0.1710 -0.2012 -0.0830
  484DPPI   C4B 7586  15.480  17.349   8.193  0.3907  0.2246 -0.0557
  485DPPI    C1 7587  10.265   4.988   9.654 -0.1023  0.1981  0.1297
  485DPPI    C2 7588  10.549   4.785   9.849  0.0247  0.1299 -0.1229
  485DPPI    C3 7589  10.410   5.128  10.000 -0.1215 -0.0904  0.2576
  485DPPI   PO4 7590  10.378   4.955   9.404 -0.0954 -0.0931  0.2583
  485DPPI   GL1 7591  10.566   4.795   9.040 -0.1139 -0.1912  0.2264
  485DPPI   GL2 7592  10.378   5.020   8.787  0.1355 -0.1215 -0.0473
  485DPPI   C1A 7593  10.494   4.617   8.620 -0.1147  0.3878 -0.3792
  485DPPI   C2A 7594  10.327   4.444   8.274 -0.1039  0.0454  0.1691
  485DPPI   C3A 7595  10.429   4.087   7.950 -0.2421  0.1530 -0.2045
  485DPPI   C4A 7596  10.446   4.066   7.483 -0.1186 -0.2602  0.4119
  485DPPI   C1B 7597  10.259   4.979   8.413 -0.2962  0.1350 -0.1063
  485DPPI   C2B 7598  10.494   4.899   8.064  0.3116 -0.0208 -0.1270
  485DPPI   C3B 7599  10.671   4.994   7.668 -0.5349  0.3064 -0.1949
  485DPPI   C4B 7600  10.837   5.325   7.391 -0.0702 -0.1662  0.0448
  486DPPI    C1 7601  11.845   6.450   9.759  0.0058 -0.2087 -0.0552
  486DPPI    C2 7602  12.000   6.135   9.950  0.3066 -0.0699 -0.0643
  486DPPI    C3 7603  12.018   6.498  10.116  0.0748 -0.0357 -0.1106
  486DPPI   PO4 7604  11.954   6.423   9.594  0.5060  0.2655  0.2001
  486DPPI   GL1 7605  12.194   6.369   9.284  0.2960  0.1151  0.0725
  486DPPI   GL2 7606  12.484   6.559   9.217 -0.0721 -0.0573 -0.3891
  486DPPI   C1A 7607  12.228   6.750   8.886 -0.1429 -0.1454 -0.0316
  486DPPI   C2A 7608  12.300   6.763   8.409  0.1550 -0.1234  0.1600
  486DPPI   C3A 7609  12.374   6.606   7.893 -0.3087 -0.1529 -0.3467
  486DPPI   C4A 7610  12.529   6.626   7.498  0.0182 -0.3046  0.1099
  486DPPI   C1B 7611  12.498   6.348   8.819 -0.1564 -0.2147 -0.1350
  486DPPI   C2B 7612  12.445   6.289   8.391  0.0734 -0.2276  0.1190
  486DPPI   C3B 7613  12.477   6.071   7.933 -0.2196 -0.2010 -0.0641
  486DPPI   C4B 7614  12.483   6.046   7.492  0.2125  0.1775  0.0083
  487DPPI    C1 7615  18.902   3.967   9.993 -0.0606 -0.1365  0.0052
  487DPPI    C2 7616  18.623   3.698   9.893  0.0063 -0.0802 -0.3465
  487DPPI    C3 7617  18.940   3.586  10.111 -0.3095 -0.1338  0.0988
  487DPPI   PO4 7618  19.109   4.025   9.848  0.1473  0.0180 -0.1296
  487DPPI   GL1 7619  19.408   4.098   9.446  0.3512  0.2062  0.0758
  487DPPI   GL2 7620  19.410   3.809   9.194 -0.0942  0.0614  0.3565
  487DPPI   C1A 7621  19.364   4.432   9.187  0.1154 -0.0205  0.0895
  487DPPI   C2A 7622  19.487   4.451   8.765  0.0832 -0.0212 -0.4634
  487DPPI   C3A 7623  19.375   4.406   8.429 -0.1655 -0.0521 -0.0877
  487DPPI   C4A 7624  19.200   4.217   8.057  0.0103  0.2534  0.0923
  487DPPI   C1B 7625  19.276   4.016   8.761  0.1177 -0.2170  0.0713
  487DPPI   C2B 7626  19.210   3.859   8.385  0.3404  0.2128  0.2904
  487DPPI   C3B 7627  19.303   3.628   8.025 -0.1492 -0.0984 -0.0366
  487DPPI   C4B 7628  19.148   3.537   7.644 -0.2238 -0.0342  0.0609
  488DPPI    C1 7629   7.209   6.287   9.877  0.0953  0.2234  0.2546
  488DPPI    C2 7630   7.240   5.907   9.997 -0.0273  0.1488  0.0553
  488DPPI    C3 7631   7.372   6.202  10.232 -0.1108 -0.0034  0.2975
  488DPPI   PO4 7632   7.182   6.262   9.631 -0.0802  0.0865  0.4491
  488DPPI   GL1 7633   7.212   6.313   9.256  0.1638 -0.4240 -0.1392
  488DPPI   GL2 7634   7.317   6.018   9.214 -0.4114 -0.2821  0.0725
  488DPPI   C1A 7635   7.332   6.373   8.823 -0.0029 -0.0433 -0.0292
  488DPPI   C2A 7636   7.443   6.294   8.489  0.0044  0.0090  0.3527
  488DPPI   C3A 7637   7.435   6.367   8.086 -0.2267 -0.0613  0.1100
  488DPPI   C4A 7638   7.470   6.559   7.639  0.1248  0.0215  0.0790
  488DPPI   C1B 7639   7.196   5.856   8.783  0.0518  0.2005  0.0141
  488DPPI   C2B 7640   7.209   5.792   8.390  0.0932  0.2157 -0.0543
  488DPPI   C3B 7641   7.236   5.906   7.940  0.1731  0.0401 -0.1705
  488DPPI   C4B 7642   7.232   5.827   7.554  0.3266 -0.0751 -0.1057
  489DPPI    C1 7643  14.023   1.016  10.187 -0.0863 -0.0428 -0.0108
  489DPPI    C2 7644  14.262   1.285  10.013  0.0564 -0.1673 -0.0102
  489DPPI    C3 7645  14.135   1.343  10.388 -0.2436  0.0967 -0.1470
  489DPPI   PO4 7646  13.949   0.885   9.945  0.2650 -0.1071 -0.3328
  489DPPI   GL1 7647  13.939   1.016   9.616 -0.0972  0.2130 -0.2918
  489DPPI   GL2 7648  13.683   1.076   9.347 -0.1006  0.0958 -0.0960
  489DPPI   C1A 7649  14.033   0.935   9.070 -0.0629 -0.3448 -0.0874
  489DPPI   C2A 7650  14.080   0.968   8.626  0.0944  0.0682  0.2398
  489DPPI   C3A 7651  14.092   0.983   8.233  0.1194  0.2452  0.1014
  489DPPI   C4A 7652  14.150   1.240   7.784 -0.1158 -0.0992 -0.1606
  489DPPI   C1B 7653  13.672   1.178   8.812 -0.0628  0.2536 -0.2871
  489DPPI   C2B 7654  13.747   1.311   8.388  0.1127  0.1778 -0.3016
  489DPPI   C3B 7655  13.719   1.385   7.977  0.0493 -0.1364 -0.1172
  489DPPI   C4B 7656  13.382   1.396   7.589  0.0965  0.1548  0.3083
  490DPPI    C1 7657   8.592  14.097   9.881  0.0966 -0.0514  0.0440
  490DPPI    C2 7658   8.627  14.093  10.280 -0.2777  0.0640  0.0815
  490DPPI    C3 7659   8.697  13.760  10.069 -0.0118  0.0200  0.2346
  490DPPI   PO4 7660   8.598  14.378   9.879 -0.1772 -0.0601  0.1035
  490DPPI   GL1 7661   8.665  14.810   9.647  0.0409 -0.0989 -0.0786
  490DPPI   GL2 7662   8.959  15.002   9.605  0.2549 -0.0770 -0.1283
  490DPPI   C1A 7663   8.243  14.741   9.511  0.2784 -0.1300 -0.2433
  490DPPI   C2A 7664   8.126  14.765   9.077  0.1319 -0.1846  0.0591
  490DPPI   C3A 7665   8.364  15.111   8.860  0.0148 -0.4405 -0.1783
  490DPPI   C4A 7666   8.477  15.548   8.979  0.0786  0.1689 -0.2517
  490DPPI   C1B 7667   9.234  14.900   9.215 -0.0079  0.2802 -0.4662
  490DPPI   C2B 7668   9.104  14.927   8.840  0.1727  0.2294  0.3336
  490DPPI   C3B 7669   8.726  14.764   8.559  0.2414 -0.1405  0.0087
  490DPPI   C4B 7670   8.402  14.532   8.685 -0.2268  0.2248  0.2262
  491DPPI    C1 7671   1.348   8.650   9.964 -0.3535 -0.1855 -0.2329
  491DPPI    C2 7672   1.129   8.437  10.222 -0.1766 -0.1043 -0.0118
  491DPPI    C3 7673   1.373   8.724  10.356  0.0190 -0.1513 -0.2589
  491DPPI   PO4 7674   1.331   8.474   9.724 -0.1142 -0.3764  0.3723
  491DPPI   GL1 7675   1.425   8.192   9.401  0.0732  0.2917 -0.0687
  491DPPI   GL2 7676   1.571   8.400   9.305  0.1100 -0.0236 -0.1312
  491DPPI   C1A 7677   1.550   7.818   9.112 -0.1293 -0.0883 -0.0740
  491DPPI   C2A 7678   1.572   7.863   8.683 -0.0217 -0.1776  0.0495
  491DPPI   C3A 7679   1.446   7.949   8.247 -0.1694  0.0126  0.2069
  491DPPI   C4A 7680   1.443   7.931   7.783  0.0795 -0.0294  0.3004
  491DPPI   C1B 7681   1.656   8.274   8.929 -0.1904 -0.0785  0.2066
  491DPPI   C2B 7682   1.701   8.321   8.568  0.1757 -0.3636  0.2455
  491DPPI   C3B 7683   1.695   8.359   8.111  0.0852  0.3818 -0.0662
  491DPPI   C4B 7684   1.669   8.449   7.673  0.0131  0.5690  0.2663
  492DPPI    C1 7685  15.928   3.195  10.075 -0.2744 -0.1293 -0.0107
  492DPPI    C2 7686  15.612   3.391  10.222 -0.0885  0.1548  0.0184
  492DPPI    C3 7687  15.829   3.156  10.461 -0.3365 -0.1261 -0.0261
  492DPPI   PO4 7688  15.883   3.136   9.764 -0.2112 -0.1363  0.2864
  492DPPI   GL1 7689  16.111   3.053   9.436  0.2640  0.0125 -0.4079
  492DPPI   GL2 7690  16.198   3.381   9.357 -0.1377  0.0406 -0.1851
  492DPPI   C1A 7691  16.349   2.974   8.984 -0.0003 -0.1600  0.2014
  492DPPI   C2A 7692  16.339   2.976   8.486 -0.3206  0.2244  0.0090
  492DPPI   C3A 7693  16.356   3.072   8.075 -0.2306 -0.1225 -0.3181
  492DPPI   C4A 7694  16.761   2.989   7.764 -0.0522  0.1503  0.3905
  492DPPI   C1B 7695  15.945   3.376   8.892  0.2120  0.0369 -0.0324
  492DPPI   C2B 7696  15.785   3.478   8.483 -0.1813 -0.0691 -0.0884
  492DPPI   C3B 7697  15.949   3.521   8.152 -0.1869  0.0294 -0.3554
  492DPPI   C4B 7698  16.167   3.399   7.758  0.0774  0.2395  0.0383
  493DPPI    C1 7699   7.077   1.717  10.036  0.0424 -0.1165  0.1444
  493DPPI    C2 7700   6.683   1.652  10.005 -0.0053  0.2676 -0.1167
  493DPPI    C3 7701   6.842   1.752  10.358 -0.1750  0.3185 -0.0539
  493DPPI   PO4 7702   7.137   1.913   9.934 -0.3887 -0.0249  0.0278
  493DPPI   GL1 7703   7.286   1.897   9.476  0.0868  0.0355  0.1263
  493DPPI   GL2 7704   7.101   1.649   9.544 -0.2929  0.0145  0.1781
  493DPPI   C1A 7705   7.665   1.898   9.123 -0.1668  0.3142  0.0534
  493DPPI   C2A 7706   7.534   1.931   8.702 -0.0145 -0.1192  0.1760
  493DPPI   C3A 7707   7.537   2.031   8.324 -0.2948 -0.2086 -0.2146
  493DPPI   C4A 7708   7.463   1.781   8.040  0.1017  0.0850  0.1493
  493DPPI   C1B 7709   6.841   1.429   9.336 -0.1116 -0.1776 -0.1591
  493DPPI   C2B 7710   6.587   1.207   9.015  0.7193 -0.0827  0.2049
  493DPPI   C3B 7711   6.363   1.063   8.657  0.0770  0.1019 -0.1615
  493DPPI   C4B 7712   6.296   1.125   8.125  0.0761  0.0946  0.2022
  494DPPI    C1 7713   0.560  16.719  10.413 -0.1492 -0.0658  0.0962
  494DPPI    C2 7714   0.950  16.725  10.501 -0.0877  0.4591 -0.1665
  494DPPI    C3 7715   0.716  16.435  10.648  0.3919  0.1472  0.0102
  494DPPI   PO4 7716   0.534  16.998  10.227 -0.0861 -0.0882 -0.1538
  494DPPI   GL1 7717   0.526  16.986   9.781 -0.1676 -0.0605  0.1706
  494DPPI   GL2 7718   0.204  16.943   9.648  0.0544  0.1613  0.0513
  494DPPI   C1A 7719   0.811  16.974   9.414  0.0833  0.1243 -0.0738
  494DPPI   C2A 7720   0.896  17.097   9.019 -0.0327 -0.0717 -0.2930
  494DPPI   C3A 7721   0.721  17.625   8.860  0.2242  0.0819 -0.2069
  494DPPI   C4A 7722   0.491  17.769   8.599  0.0294 -0.2023  0.1129
  494DPPI   C1B 7723   0.415  17.062   9.161  0.4457  0.0171 -0.2379
  494DPPI   C2B 7724   0.482  17.220   8.813  0.1311 -0.1760 -0.0510
  494DPPI   C3B 7725   0.568  17.158   8.363  0.1260  0.0258 -0.3327
  494DPPI   C4B 7726   0.592  16.972   7.995  0.3250 -0.0391  0.0042
  495DPPI    C1 7727   1.214  10.430   9.787 -0.1124  0.0320 -0.1835
  495DPPI    C2 7728   1.192  10.360  10.180 -0.1499 -0.1728 -0.2212
  495DPPI    C3 7729   1.240  10.734  10.046 -0.0959 -0.1068 -0.0210
  495DPPI   PO4 7730   1.286  10.124   9.761  0.1594 -0.3839 -0.0916
  495DPPI   GL1 7731   1.329   9.727   9.600  0.2950 -0.0582  0.2594
  495DPPI   GL2 7732   1.080   9.521   9.365  0.3537  0.0207  0.1012
  495DPPI   C1A 7733   1.099   9.992   9.177  0.1156 -0.0646  0.3838
  495DPPI   C2A 7734   1.250   9.930   8.821  0.2175  0.1305  0.2815
  495DPPI   C3A 7735   1.247   9.997   8.391 -0.4119 -0.3140 -0.0770
  495DPPI   C4A 7736   1.452  10.276   8.032  0.1929  0.0063  0.1015
  495DPPI   C1B 7737   0.889   9.564   8.951  0.0548  0.1731  0.1699
  495DPPI   C2B 7738   0.871   9.629   8.580 -0.2272  0.2516  0.1525
  495DPPI   C3B 7739   0.857   9.757   8.212  0.1260  0.0060 -0.1115
  495DPPI   C4B 7740   1.164   9.717   7.898  0.0567  0.4372 -0.2348
  496DPPI    C1 7741   5.549   9.404  10.431  0.0395 -0.1448 -0.0194
  496DPPI    C2 7742   5.285   9.675  10.562  0.0026 -0.0832 -0.2173
  496DPPI    C3 7743   5.674   9.768  10.539 -0.0251 -0.0066 -0.3939
  496DPPI   PO4 7744   5.495   9.325  10.119 -0.0658  0.0148  0.0981
  496DPPI   GL1 7745   5.397   9.523   9.739  0.0518 -0.1763 -0.4414
  496DPPI   GL2 7746   5.687   9.419   9.538  0.1410  0.0611 -0.2049
  496DPPI   C1A 7747   5.252   9.611   9.206  0.0179  0.0719  0.2953
  496DPPI   C2A 7748   5.163   9.602   8.769 -0.3759  0.1558 -0.0628
  496DPPI   C3A 7749   5.377   9.660   8.365  0.1169  0.1546  0.2261
  496DPPI   C4A 7750   5.525  10.095   8.151 -0.1918  0.1097  0.1989
  496DPPI   C1B 7751   5.789   9.355   9.116  0.1948 -0.0799  0.3822
  496DPPI   C2B 7752   6.123   9.439   8.870  0.1953 -0.1263  0.2072
  496DPPI   C3B 7753   6.236   9.454   8.414 -0.0935 -0.2249  0.2202
  496DPPI   C4B 7754   6.424   9.524   8.043 -0.1996 -0.2212  0.1379
  497DPPI    C1 7755   1.896   5.963   9.645  0.0946 -0.0924 -0.0683
  497DPPI    C2 7756   1.930   5.819  10.017  0.2513 -0.5998 -0.2702
  497DPPI    C3 7757   2.197   6.083   9.880 -0.0905 -0.0194  0.1354
  497DPPI   PO4 7758   1.631   5.666   9.579 -0.3694  0.4566  0.1444
  497DPPI   GL1 7759   1.688   5.439   9.257  0.0568  0.2535 -0.3423
  497DPPI   GL2 7760   2.069   5.464   9.325 -0.3016 -0.0904 -0.1584
  497DPPI   C1A 7761   1.399   5.171   9.007  0.2665 -0.2969 -0.0015
  497DPPI   C2A 7762   1.459   5.331   8.614 -0.4599 -0.1332 -0.0284
  497DPPI   C3A 7763   1.238   5.498   8.378 -0.1005 -0.3578  0.3354
  497DPPI   C4A 7764   1.036   5.564   8.037 -0.1543 -0.0353 -0.0786
  497DPPI   C1B 7765   2.345   5.492   9.038 -0.1677 -0.0361 -0.0444
  497DPPI   C2B 7766   2.456   5.487   8.623  0.0754  0.3447  0.1804
  497DPPI   C3B 7767   2.422   5.502   8.158  0.2104 -0.0913 -0.0732
  497DPPI   C4B 7768   2.436   5.443   7.712 -0.0643  0.1878 -0.1377
  498DPPI    C1 7769  11.615   7.413   9.844  0.3825  0.0891 -0.0583
  498DPPI    C2 7770  11.742   7.366  10.220  0.1260  0.0999  0.0318
  498DPPI    C3 7771  11.580   7.713  10.105 -0.0768 -0.0046 -0.0029
  498DPPI   PO4 7772  11.762   7.353   9.671 -0.1482  0.2910  0.1159
  498DPPI   GL1 7773  11.822   7.245   9.286 -0.0616  0.1552  0.3416
  498DPPI   GL2 7774  12.038   7.175   9.186  0.0721  0.0494 -0.1006
  498DPPI   C1A 7775  11.539   7.037   9.001  0.0412  0.2532  0.0059
  498DPPI   C2A 7776  11.716   6.879   8.651 -0.2593  0.0068 -0.1185
  498DPPI   C3A 7777  11.832   6.878   8.252 -0.1601 -0.0364 -0.1987
  498DPPI   C4A 7778  11.867   6.705   7.858 -0.0449  0.3609  0.1143
  498DPPI   C1B 7779  12.082   7.263   8.696 -0.0635 -0.1778 -0.1237
  498DPPI   C2B 7780  12.131   7.241   8.299  0.0860 -0.2193  0.0536
  498DPPI   C3B 7781  12.143   7.150   7.812  0.0872 -0.1097 -0.0104
  498DPPI   C4B 7782  12.031   6.878   7.441 -0.0511  0.3503  0.1876
  499DPPI    C1 7783   5.742   6.520   9.910 -0.1568 -0.1940 -0.0613
  499DPPI    C2 7784   5.972   6.794  10.089  0.1279 -0.3076 -0.2467
  499DPPI    C3 7785   5.664   6.631  10.286  0.0159  0.0704 -0.1008
  499DPPI   PO4 7786   5.922   6.407   9.777  0.0662  0.2236  0.0774
  499DPPI   GL1 7787   6.036   6.355   9.351  0.0340 -0.0135  0.1527
  499DPPI   GL2 7788   6.216   6.072   9.233  0.1308  0.2783 -0.0465
  499DPPI   C1A 7789   5.872   6.317   8.976 -0.0029 -0.0943  0.2677
  499DPPI   C2A 7790   5.746   6.451   8.661  0.1304  0.2706 -0.0095
  499DPPI   C3A 7791   5.838   6.695   8.384  0.0030 -0.4164 -0.2272
  499DPPI   C4A 7792   5.978   6.575   7.952 -0.2006  0.0165  0.0915
  499DPPI   C1B 7793   6.103   5.857   8.932 -0.2971  0.2428  0.1704
  499DPPI   C2B 7794   5.967   5.542   8.592  0.0801 -0.0423 -0.0574
  499DPPI   C3B 7795   5.939   5.529   8.172  0.0924 -0.1483  0.0847
  499DPPI   C4B 7796   6.032   5.122   7.978 -0.2220 -0.0367  0.2490
  500DPPI    C1 7797   8.916  15.858  10.479  0.0319 -0.0026 -0.2007
  500DPPI    C2 7798   8.828  15.476  10.401 -0.1381 -0.0386  0.1456
  500DPPI    C3 7799   8.800  15.614  10.775 -0.0954  0.3192  0.0201
  500DPPI   PO4 7800   8.789  15.934  10.153 -0.0710  0.2001 -0.1113
  500DPPI   GL1 7801   8.958  15.686   9.767 -0.1725 -0.0632  0.0226
  500DPPI   GL2 7802   8.853  15.416   9.881  0.0362  0.2584 -0.0674
  500DPPI   C1A 7803   9.009  15.510   9.397  0.2382 -0.0303  0.1042
  500DPPI   C2A 7804   8.929  15.374   8.944  0.0699  0.2987 -0.1508
  500DPPI   C3A 7805   8.752  15.259   8.478  0.2271 -0.0525  0.1257
  500DPPI   C4A 7806   8.620  15.094   8.067 -0.0726  0.1884  0.1314
  500DPPI   C1B 7807   8.568  15.408   9.667  0.2859 -0.2447  0.1733
  500DPPI   C2B 7808   8.520  15.199   9.354  0.0830  0.3460 -0.1747
  500DPPI   C3B 7809   8.706  14.927   9.104  0.0101 -0.0054 -0.0279
  500DPPI   C4B 7810   8.655  14.551   9.111  0.1766  0.3438 -0.2760
  501DPPI    C1 7811   4.754   6.407   9.861  0.1598 -0.0792  0.0753
  501DPPI    C2 7812   4.806   6.425  10.258  0.1178 -0.0812  0.0808
  501DPPI    C3 7813   4.449   6.510  10.099  0.0769 -0.2851  0.0608
  501DPPI   PO4 7814   4.900   6.242   9.745  0.0441  0.3007  0.3316
  501DPPI   GL1 7815   5.051   6.350   9.334 -0.0995  0.0646 -0.0693
  501DPPI   GL2 7816   5.422   6.295   9.190  0.2139  0.0734  0.4389
  501DPPI   C1A 7817   4.822   6.399   8.925 -0.1773 -0.0765 -0.1550
  501DPPI   C2A 7818   4.734   6.430   8.491  0.0148 -0.1094  0.2292
  501DPPI   C3A 7819   4.649   6.680   8.187  0.0611 -0.0173 -0.1048
  501DPPI   C4A 7820   4.492   7.001   8.286  0.2759 -0.1570 -0.0340
  501DPPI   C1B 7821   5.309   6.383   8.775 -0.1035 -0.2509  0.0352
  501DPPI   C2B 7822   5.447   6.306   8.336 -0.0008  0.0378  0.2626
  501DPPI   C3B 7823   5.454   6.485   7.916  0.2451  0.2980 -0.1387
  501DPPI   C4B 7824   4.970   6.658   7.802 -0.1666  0.1084 -0.0190
  502DPPI    C1 7825   4.184   6.039  10.283  0.1720  0.2544 -0.1199
  502DPPI    C2 7826   4.394   6.288  10.515 -0.1304  0.1247  0.3067
  502DPPI    C3 7827   3.995   6.292  10.529 -0.1438 -0.1993  0.1187
  502DPPI   PO4 7828   4.227   6.074  10.051 -0.0667 -0.1058  0.1435
  502DPPI   GL1 7829   4.225   6.036   9.634 -0.5621  0.2281 -0.0661
  502DPPI   GL2 7830   4.512   6.135   9.433  0.1380 -0.1130 -0.2058
  502DPPI   C1A 7831   4.023   6.076   9.177  0.1470  0.0967 -0.1734
  502DPPI   C2A 7832   4.026   6.022   8.812 -0.2485 -0.2168  0.1393
  502DPPI   C3A 7833   4.116   6.008   8.396  0.4322  0.1686 -0.0697
  502DPPI   C4A 7834   4.061   5.807   8.039 -0.0362  0.0582 -0.3257
  502DPPI   C1B 7835   4.485   6.065   9.046  0.2524 -0.3056  0.1218
  502DPPI   C2B 7836   4.518   6.024   8.688  0.0884  0.2726  0.0646
  502DPPI   C3B 7837   4.564   6.078   8.223 -0.0880 -0.2182 -0.0692
  502DPPI   C4B 7838   4.394   6.206   7.843  0.2931 -0.1462  0.0559
  503DPPI    C1 7839  12.640   8.330   9.708  0.0105 -0.1641  0.2426
  503DPPI    C2 7840  12.524   8.611   9.968  0.2968  0.1598  0.0300
  503DPPI    C3 7841  12.717   8.285  10.098  0.2319  0.2058  0.2461
  503DPPI   PO4 7842  12.600   8.454   9.488 -0.0711 -0.0720 -0.3148
  503DPPI   GL1 7843  12.433   8.622   9.148  0.0352  0.2715 -0.0741
  503DPPI   GL2 7844  12.224   8.430   8.956  0.0045  0.2759  0.0630
  503DPPI   C1A 7845  12.609   8.603   8.654 -0.4381  0.2468 -0.1100
  503DPPI   C2A 7846  12.640   8.641   8.251  0.0466 -0.3300  0.3477
  503DPPI   C3A 7847  12.865   8.477   7.867  0.0692  0.2258  0.0402
  503DPPI   C4A 7848  13.122   8.470   7.524  0.0374 -0.0463  0.2146
  503DPPI   C1B 7849  12.104   8.395   8.504  0.2443 -0.0625  0.0756
  503DPPI   C2B 7850  12.185   8.523   8.155 -0.1126  0.0499 -0.0483
  503DPPI   C3B 7851  12.351   8.304   7.809 -0.1879 -0.1222 -0.2025
  503DPPI   C4B 7852  12.235   7.951   7.564 -0.1424 -0.2507 -0.3400
  504DPPI    C1 7853  17.785  15.591  10.565 -0.0781  0.1515 -0.1483
  504DPPI    C2 7854  17.766  15.889  10.831  0.1054 -0.0479  0.0930
  504DPPI    C3 7855  17.567  15.548  10.898  0.1073 -0.0783 -0.0538
  504DPPI   PO4 7856  17.738  15.714  10.316 -0.2379  0.2198  0.2319
  504DPPI   GL1 7857  17.765  15.517   9.923  0.3112 -0.0462  0.1762
  504DPPI   GL2 7858  18.065  15.611   9.682  0.1165 -0.0642 -0.1511
  504DPPI   C1A 7859  17.579  15.730   9.610 -0.2527  0.1009 -0.0971
  504DPPI   C2A 7860  17.371  15.809   9.200 -0.1552 -0.1254 -0.1850
  504DPPI   C3A 7861  17.418  15.919   8.860  0.0902  0.0027  0.2519
  504DPPI   C4A 7862  17.447  15.950   8.441 -0.1480  0.1831  0.0498
  504DPPI   C1B 7863  18.054  15.377   9.287  0.2257  0.0811  0.1960
  504DPPI   C2B 7864  18.151  15.418   8.918 -0.0882  0.0270  0.0979
  504DPPI   C3B 7865  18.045  15.472   8.455  0.4567  0.3436  0.1433
  504DPPI   C4B 7866  17.973  15.254   8.169  0.0338 -0.2853  0.0329
  505DPPI    C1 7867   8.067   5.323   9.771 -0.0419 -0.0068 -0.0586
  505DPPI    C2 7868   8.138   4.954   9.909 -0.0663 -0.0673 -0.2054
  505DPPI    C3 7869   7.973   5.229  10.148 -0.1438 -0.1818 -0.1265
  505DPPI   PO4 7870   7.952   5.329   9.603  0.0855  0.2833 -0.1098
  505DPPI   GL1 7871   7.943   5.374   9.141 -0.3534 -0.0570 -0.3405
  505DPPI   GL2 7872   8.189   5.590   9.223 -0.0675 -0.1448  0.3589
  505DPPI   C1A 7873   7.976   5.365   8.695 -0.1689 -0.2146 -0.1150
  505DPPI   C2A 7874   7.972   5.429   8.114  0.0051 -0.1876 -0.1186
  505DPPI   C3A 7875   8.007   5.528   7.698 -0.3484  0.2208 -0.1018
  505DPPI   C4A 7876   7.729   5.742   7.375 -0.1126 -0.0413 -0.2792
  505DPPI   C1B 7877   8.294   5.741   8.842  0.0791 -0.1459 -0.0294
  505DPPI   C2B 7878   8.333   5.755   8.353 -0.0768  0.0600  0.2389
  505DPPI   C3B 7879   8.419   5.574   7.954  0.1806  0.3156 -0.0952
  505DPPI   C4B 7880   8.476   5.443   7.548  0.3849  0.4993 -0.1750
  506DPPI    C1 7881  11.099   6.613   9.656  0.0931  0.1461  0.0233
  506DPPI    C2 7882  10.923   6.462   9.982 -0.0774 -0.0915 -0.1745
  506DPPI    C3 7883  11.313   6.551   9.989 -0.0694 -0.1368  0.0789
  506DPPI   PO4 7884  11.040   6.807   9.561  0.0881 -0.2084 -0.2609
  506DPPI   GL1 7885  11.006   6.974   9.313 -0.0547  0.1689  0.0111
  506DPPI   GL2 7886  11.176   6.710   9.105 -0.0187 -0.0069 -0.0063
  506DPPI   C1A 7887  11.114   7.324   8.915 -0.0532 -0.1067 -0.1065
  506DPPI   C2A 7888  11.198   7.688   8.664  0.0019 -0.2998 -0.0678
  506DPPI   C3A 7889  11.020   8.025   8.543 -0.0385 -0.1710 -0.0122
  506DPPI   C4A 7890  11.005   8.303   8.258 -0.2147  0.1664 -0.1630
  506DPPI   C1B 7891  11.134   6.808   8.753 -0.2273  0.1374  0.1141
  506DPPI   C2B 7892  11.243   7.098   8.438 -0.0675  0.4853  0.1736
  506DPPI   C3B 7893  11.117   7.526   8.119 -0.0130  0.0280  0.0248
  506DPPI   C4B 7894  10.880   7.945   7.945  0.0501 -0.3076  0.2175
  507DPPI    C1 7895   3.581  17.486  10.403 -0.1043 -0.1575  0.0938
  507DPPI    C2 7896   3.690  17.763  10.670 -0.2438  0.0169 -0.0280
  507DPPI    C3 7897   3.760  17.376  10.744  0.2093  0.1017  0.0177
  507DPPI   PO4 7898   3.694  17.540  10.169  0.0600 -0.1444 -0.1157
  507DPPI   GL1 7899   3.644  17.662   9.763  0.1745  0.3893 -0.1204
  507DPPI   GL2 7900   3.952  17.694   9.552  0.1679 -0.1523  0.3384
  507DPPI   C1A 7901   3.358  17.704   9.328 -0.1616 -0.1963  0.2223
  507DPPI   C2A 7902   3.360  17.708   8.938 -0.0002 -0.0338 -0.0730
  507DPPI   C3A 7903   3.568  17.579   8.694 -0.2495 -0.0042 -0.3455
  507DPPI   C4A 7904   3.651  17.516   8.307 -0.3033  0.1200  0.4377
  507DPPI   C1B 7905   3.828  17.547   9.146  0.1471 -0.2149 -0.0528
  507DPPI   C2B 7906   4.070  17.613   8.758  0.1189 -0.1249  0.1318
  507DPPI   C3B 7907   4.136  17.667   8.277 -0.0025 -0.2976  0.0270
  507DPPI   C4B 7908   4.173  17.641   7.855 -0.3359 -0.1217 -0.1820
  508DPPI    C1 7909   5.051   1.849   9.843  0.0031 -0.0452  0.0468
  508DPPI    C2 7910   4.693   1.855   9.664 -0.0729 -0.1123  0.1944
  508DPPI    C3 7911   4.724   1.946  10.053  0.1042  0.1271  0.1270
  508DPPI   PO4 7912   5.189   1.829   9.570  0.0083 -0.1951 -0.2321
  508DPPI   GL1 7913   5.264   1.454   9.371 -0.1491 -0.0883  0.0418
  508DPPI   GL2 7914   5.520   1.220   9.266  0.0311 -0.2091  0.3243
  508DPPI   C1A 7915   5.439   1.704   9.006 -0.1182 -0.0418 -0.0266
  508DPPI   C2A 7916   5.306   1.663   8.567 -0.1563  0.0818  0.0324
  508DPPI   C3A 7917   5.569   1.711   8.198 -0.1240 -0.2032  0.1478
  508DPPI   C4A 7918   5.916   1.842   8.115 -0.1151  0.0379 -0.1429
  508DPPI   C1B 7919   5.707   1.260   8.887  0.1522 -0.1256  0.1941
  508DPPI   C2B 7920   5.777   0.867   8.713 -0.0393 -0.3054 -0.0340
  508DPPI   C3B 7921   5.884   0.826   8.390  0.2371  0.1460  0.3916
  508DPPI   C4B 7922   5.786   0.842   8.028  0.2311  0.2517 -0.1354
  509DPPI    C1 7923   1.209  13.286   9.933 -0.0525  0.0322 -0.2654
  509DPPI    C2 7924   1.455  13.575  10.060  0.1335 -0.0052 -0.5317
  509DPPI    C3 7925   1.059  13.624  10.085  0.1649  0.0978 -0.1921
  509DPPI   PO4 7926   1.323  13.223   9.690 -0.3746  0.0958 -0.0800
  509DPPI   GL1 7927   1.342  13.299   9.309  0.0145  0.2818 -0.3086
  509DPPI   GL2 7928   1.380  13.011   9.113  0.1707 -0.2043 -0.0361
  509DPPI   C1A 7929   1.335  13.573   8.981 -0.4024  0.2268  0.4479
  509DPPI   C2A 7930   1.452  13.814   8.662  0.4748  0.0380  0.2663
  509DPPI   C3A 7931   1.471  13.873   8.313 -0.2353  0.0207  0.0487
  509DPPI   C4A 7932   1.530  13.910   7.853  0.3750 -0.1632 -0.3378
  509DPPI   C1B 7933   1.221  13.134   8.734 -0.0164 -0.0463  0.1672
  509DPPI   C2B 7934   1.258  13.122   8.258 -0.1496  0.0599 -0.0448
  509DPPI   C3B 7935   1.588  12.981   7.962 -0.2674  0.2274  0.3148
  509DPPI   C4B 7936   1.608  12.645   7.702  0.1109 -0.0490  0.0610
  510DPPI    C1 7937   0.076  18.633  10.240 -0.1869 -0.1224 -0.0287
  510DPPI    C2 7938   0.313  18.437  10.496 -0.0385 -0.2212 -0.2390
  510DPPI    C3 7939  -0.085  18.407  10.528 -0.0302  0.0659  0.2107
  510DPPI   PO4 7940   0.166  18.473   9.968  0.0460  0.1698 -0.0724
  510DPPI   GL1 7941   0.460  18.358   9.716  0.1282 -0.0162 -0.1484
  510DPPI   GL2 7942   0.306  18.144   9.538 -0.1429  0.1991 -0.0292
  510DPPI   C1A 7943   0.603  18.565   9.472 -0.1172 -0.1444 -0.2404
  510DPPI   C2A 7944   0.788  18.658   9.106 -0.1857 -0.1844  0.0345
  510DPPI   C3A 7945   0.876  18.722   8.621  0.0099 -0.1800 -0.2167
  510DPPI   C4A 7946   0.696  18.998   8.252  0.2262  0.0417  0.0881
  510DPPI   C1B 7947   0.207  18.472   9.181  0.1169  0.0916 -0.1183
  510DPPI   C2B 7948  -0.164  18.618   8.920 -0.2995 -0.0906 -0.0873
  510DPPI   C3B 7949  -0.308  18.400   8.534  0.2014 -0.0179 -0.0620
  510DPPI   C4B 7950  -0.493  18.379   8.119  0.1096  0.2305 -0.3483
  511DPPI    C1 7951  10.719  16.832  10.470 -0.1735 -0.2225 -0.3126
  511DPPI    C2 7952  11.104  16.881  10.377 -0.1213  0.0499  0.0269
  511DPPI    C3 7953  10.996  16.596  10.635 -0.1729 -0.1578 -0.2199
  511DPPI   PO4 7954  10.633  17.005  10.197 -0.3145  0.0555  0.2335
  511DPPI   GL1 7955  10.773  17.167   9.831  0.0425 -0.1491 -0.2039
  511DPPI   GL2 7956  10.513  16.968   9.656  0.0958 -0.1164 -0.0987
  511DPPI   C1A 7957  10.692  17.471   9.606 -0.1914  0.0409 -0.0295
  511DPPI   C2A 7958  10.767  17.568   9.137 -0.0635  0.3213 -0.3838
  511DPPI   C3A 7959  10.741  17.678   8.734 -0.0758  0.2821  0.0497
  511DPPI   C4A 7960  10.534  17.920   8.397 -0.3319  0.0139 -0.1778
  511DPPI   C1B 7961  10.460  17.120   9.257 -0.1458  0.0116  0.2528
  511DPPI   C2B 7962  10.284  17.207   8.856  0.2350  0.0337 -0.1312
  511DPPI   C3B 7963  10.333  17.502   8.481 -0.2708  0.1795 -0.0677
  511DPPI   C4B 7964  10.003  17.487   8.095  0.1602  0.0855  0.2368
  512DPPI    C1 7965  15.779   8.639   9.867  0.1672 -0.0156  0.3007
  512DPPI    C2 7966  16.083   8.389   9.793  0.2966  0.2518 -0.1052
  512DPPI    C3 7967  16.113   8.659  10.087  0.4195  0.2244 -0.0919
  512DPPI   PO4 7968  15.542   8.606   9.797 -0.0012 -0.0425  0.0216
  512DPPI   GL1 7969  15.381   8.381   9.404 -0.1723 -0.2611  0.0480
  512DPPI   GL2 7970  15.720   8.369   9.344 -0.1678 -0.0137 -0.4576
  512DPPI   C1A 7971  15.455   7.979   9.253 -0.0354 -0.2311  0.2398
  512DPPI   C2A 7972  15.507   7.800   8.814  0.1722 -0.1234 -0.0764
  512DPPI   C3A 7973  15.452   7.575   8.453 -0.0693 -0.1548 -0.2169
  512DPPI   C4A 7974  15.319   7.549   7.980 -0.3891  0.1824  0.2355
  512DPPI   C1B 7975  15.783   8.230   8.928  0.1758 -0.1390  0.3038
  512DPPI   C2B 7976  15.981   7.982   8.605  0.0395  0.1411 -0.0929
  512DPPI   C3B 7977  15.891   7.739   8.247 -0.4887  0.1270  0.0403
  512DPPI   C4B 7978  15.898   7.693   7.747  0.3732  0.0165  0.2196
  513PYPI    C1 7979  17.950   1.015  10.076 -0.0686 -0.1176  0.0016
  513PYPI    C2 7980  17.703   1.324  10.013 -0.0395 -0.0737  0.1003
  513PYPI    C3 7981  17.562   0.984  10.169 -0.0394 -0.0516  0.1485
  513PYPI   PO4 7982  18.186   1.145   9.853 -0.3812  0.1260  0.0335
  513PYPI   GL1 7983  18.415   1.003   9.495  0.2116  0.0827 -0.1586
  513PYPI   GL2 7984  18.567   0.885   9.604  0.1374  0.2068  0.3482
  513PYPI   C1A 7985  18.529   1.046   9.070 -0.0254 -0.3954 -0.0523
  513PYPI   C2A 7986  18.634   1.033   8.695  0.0208 -0.1294  0.0568
  513PYPI   D3A 7987  18.739   0.920   8.334 -0.1158  0.0035 -0.0677
  513PYPI   C4A 7988  18.798   0.849   7.974  0.1984  0.1892  0.0660
  513PYPI   C1B 7989  18.900   1.053   9.395 -0.0246  0.0460  0.1034
  513PYPI   C2B 7990  19.087   1.163   9.085  0.1089  0.1182  0.2170
  513PYPI   C3B 7991  19.173   1.161   8.653  0.0021  0.4079 -0.3229
  513PYPI   C4B 7992  19.325   1.154   8.212 -0.1879  0.0350  0.1783
  514PYPI    C1 7993  12.057   1.017   9.630  0.0449 -0.4702 -0.0587
  514PYPI    C2 7994  12.427   1.048   9.779  0.0333 -0.0994 -0.0974
  514PYPI    C3 7995  12.118   0.986  10.024  0.0658  0.0737 -0.0105
  514PYPI   PO4 7996  12.227   0.876   9.358  0.0067 -0.1189  0.1248
  514PYPI   GL1 7997  12.531   0.984   9.232 -0.0332 -0.2405 -0.4380
  514PYPI   GL2 7998  12.581   1.323   9.346  0.4704  0.0737  0.1393
  514PYPI   C1A 7999  12.642   0.990   8.756 -0.0111 -0.2104 -0.4140
  514PYPI   C2A 8000  12.581   0.975   8.314 -0.1267 -0.3697  0.1727
  514PYPI   D3A 8001  12.830   1.181   7.909 -0.1195 -0.2180  0.2788
  514PYPI   C4A 8002  12.776   1.232   7.542  0.1274  0.2524  0.1411
  514PYPI   C1B 8003  12.590   1.648   9.037  0.1686  0.2113  0.0766
  514PYPI   C2B 8004  12.582   2.077   8.862  0.2066  0.2820 -0.1065
  514PYPI   C3B 8005  12.586   2.213   8.370 -0.1176  0.3333  0.1095
  514PYPI   C4B 8006  12.568   2.127   7.953 -0.0479  0.0436 -0.1897
  515PYPI    C1 8007   7.678  15.317  10.149 -0.1610  0.0459 -0.0040
  515PYPI    C2 8008   7.428  15.500  10.402 -0.1357 -0.3014  0.2789
  515PYPI    C3 8009   7.331  15.467  10.015 -0.0730  0.4323  0.1860
  515PYPI   PO4 8010   7.971  15.465  10.058  0.0028  0.1585  0.2018
  515PYPI   GL1 8011   7.814  15.628   9.652  0.0818  0.4829 -0.2230
  515PYPI   GL2 8012   7.500  15.769   9.646  0.2819 -0.2570  0.0247
  515PYPI   C1A 8013   8.178  15.715   9.357 -0.0775 -0.0726 -0.1476
  515PYPI   C2A 8014   8.625  15.857   9.379  0.1985  0.1998 -0.1579
  515PYPI   D3A 8015   8.995  16.073   9.307  0.1010 -0.0761  0.1273
  515PYPI   C4A 8016   9.294  16.438   9.365  0.0157 -0.0620 -0.4191
  515PYPI   C1B 8017   7.410  15.734   9.195  0.2795  0.2585  0.0296
  515PYPI   C2B 8018   7.243  15.876   8.826 -0.0768 -0.2742  0.7130
  515PYPI   C3B 8019   7.120  15.744   8.296  0.1954  0.0325  0.2320
  515PYPI   C4B 8020   6.993  15.640   7.834  0.1033 -0.1057 -0.2954
  516PYPI    C1 8021  13.470  17.633   9.691  0.0530  0.1298 -0.2658
  516PYPI    C2 8022  13.546  17.526  10.069 -0.3065 -0.0528 -0.2415
  516PYPI    C3 8023  13.674  17.880   9.932 -0.1654  0.0107  0.0467
  516PYPI   PO4 8024  13.471  17.315   9.640 -0.1462 -0.2592 -0.1419
  516PYPI   GL1 8025  13.116  17.241   9.261  0.2637 -0.1872 -0.3049
  516PYPI   GL2 8026  13.382  17.424   9.127 -0.0150 -0.0854 -0.2421
  516PYPI   C1A 8027  13.288  16.995   8.932 -0.1422 -0.0527  0.0881
  516PYPI   C2A 8028  13.105  17.036   8.568 -0.2989 -0.1155 -0.0034
  516PYPI   D3A 8029  13.018  17.485   8.442 -0.0727  0.0640  0.0294
  516PYPI   C4A 8030  12.642  17.649   8.245 -0.0276  0.5602  0.0579
  516PYPI   C1B 8031  13.326  17.524   8.762 -0.1235 -0.2335  0.1110
  516PYPI   C2B 8032  13.494  17.474   8.504 -0.1912  0.0128  0.3082
  516PYPI   C3B 8033  13.430  17.732   8.233 -0.1398 -0.0714  0.0138
  516PYPI   C4B 8034  13.066  17.887   7.976 -0.0447 -0.2620 -0.1206
  517PYPI    C1 8035  15.509   2.943  10.026  0.2435  0.2802  0.1944
  517PYPI    C2 8036  15.138   2.975  10.173  0.1265  0.1658 -0.0692
  517PYPI    C3 8037  15.440   2.870  10.413 -0.0751 -0.1027  0.0727
  517PYPI   PO4 8038  15.404   2.892   9.647 -0.0308 -0.0683  0.0498
  517PYPI   GL1 8039  15.539   2.638   9.273  0.2389  0.0451 -0.1624
  517PYPI   GL2 8040  15.834   2.645   9.376  0.2037  0.3862  0.1398
  517PYPI   C1A 8041  15.575   2.296   8.956 -0.0727  0.1276  0.1463
  517PYPI   C2A 8042  15.502   2.390   8.643 -0.3873  0.0926 -0.0302
  517PYPI   D3A 8043  15.579   2.349   8.264  0.1139 -0.0486 -0.0178
  517PYPI   C4A 8044  15.345   2.270   7.922  0.2000 -0.3881  0.0336
  517PYPI   C1B 8045  15.853   2.931   8.954 -0.0740 -0.1451  0.2388
  517PYPI   C2B 8046  15.732   2.989   8.602 -0.0703 -0.2347  0.0224
  517PYPI   C3B 8047  15.861   2.844   8.211  0.0680  0.0030 -0.1170
  517PYPI   C4B 8048  15.954   2.842   7.760 -0.2486  0.1500  0.0801
  518PYPI    C1 8049   1.228   6.280  10.179  0.0135 -0.2151 -0.0483
  518PYPI    C2 8050   1.039   6.516  10.441 -0.0596 -0.2696 -0.0519
  518PYPI    C3 8051   1.435   6.465  10.468  0.0139  0.1436 -0.2713
  518PYPI   PO4 8052   1.013   6.254   9.924 -0.4042  0.1699 -0.0497
  518PYPI   GL1 8053   1.141   6.445   9.537 -0.1964 -0.2287  0.1537
  518PYPI   GL2 8054   0.975   6.653   9.436 -0.1038  0.1587 -0.0313
  518PYPI   C1A 8055   1.110   6.216   9.234 -0.1829 -0.1139 -0.2706
  518PYPI   C2A 8056   1.136   5.797   9.006 -0.1284  0.1547  0.1733
  518PYPI   D3A 8057   1.155   5.521   9.284  0.2751  0.0614 -0.0502
  518PYPI   C4A 8058   0.830   5.425   9.473  0.2510  0.1476  0.2541
  518PYPI   C1B 8059   0.783   6.555   9.066 -0.2670  0.2031 -0.0982
  518PYPI   C2B 8060   0.725   6.189   8.827  0.0678  0.0276 -0.0295
  518PYPI   C3B 8061   0.699   6.233   8.401  0.1986  0.2352  0.2186
  518PYPI   C4B 8062   0.528   6.435   7.955 -0.3616 -0.1417 -0.1483
  519PYPI    C1 8063  11.841  12.199  10.248 -0.1915  0.0241 -0.1896
  519PYPI    C2 8064  11.474  12.351  10.203 -0.1883  0.1295  0.1135
  519PYPI    C3 8065  11.590  12.212  10.559  0.0836  0.1411  0.0321
  519PYPI   PO4 8066  11.996  12.252   9.969  0.1042 -0.0826 -0.0869
  519PYPI   GL1 8067  12.064  12.452   9.560 -0.1542  0.2783  0.3320
  519PYPI   GL2 8068  12.385  12.422   9.618  0.2598 -0.4022 -0.2117
  519PYPI   C1A 8069  12.209  12.647   9.192 -0.1188 -0.3390 -0.0646
  519PYPI   C2A 8070  12.530  12.603   8.843 -0.0212  0.1048  0.0124
  519PYPI   D3A 8071  12.556  12.155   8.710 -0.1173 -0.4095 -0.2134
  519PYPI   C4A 8072  12.469  12.002   8.249 -0.0024 -0.3604 -0.1419
  519PYPI   C1B 8073  12.683  12.590   9.393 -0.0576 -0.0259  0.0027
  519PYPI   C2B 8074  13.028  12.697   9.056 -0.4492 -0.0375 -0.3472
  519PYPI   C3B 8075  13.115  12.877   8.759  0.0889  0.0681  0.1393
  519PYPI   C4B 8076  13.192  13.069   8.362 -0.4747  0.0684  0.0777
  520PYPI    C1 8077   2.849   4.806  10.126 -0.1266  0.2405  0.0252
  520PYPI    C2 8078   2.514   4.933  10.304 -0.1740 -0.0289  0.1324
  520PYPI    C3 8079   2.621   4.548  10.330 -0.0137 -0.0062 -0.1552
  520PYPI   PO4 8080   2.809   4.850   9.813  0.2113  0.1595  0.0582
  520PYPI   GL1 8081   2.659   4.595   9.559  0.1081 -0.1823  0.0049
  520PYPI   GL2 8082   2.619   4.215   9.653 -0.0473 -0.3499  0.0829
  520PYPI   C1A 8083   2.766   4.550   9.069 -0.0477 -0.0031  0.0565
  520PYPI   C2A 8084   2.769   4.642   8.690 -0.1701 -0.1027  0.0119
  520PYPI   D3A 8085   2.819   4.511   8.240 -0.0127  0.1164  0.4637
  520PYPI   C4A 8086   2.645   4.185   8.014  0.0287  0.0880 -0.2991
  520PYPI   C1B 8087   2.518   4.082   9.343 -0.0184 -0.1037 -0.4367
  520PYPI   C2B 8088   2.419   4.037   8.939  0.1014 -0.1168 -0.0444
  520PYPI   C3B 8089   2.543   4.223   8.560 -0.1263 -0.1955 -0.0049
  520PYPI   C4B 8090   2.204   4.323   8.226  0.0079 -0.0134  0.1883
  521PYPI    C1 8091  11.967  16.120   9.933  0.1397  0.1682  0.2110
  521PYPI    C2 8092  11.653  16.142  10.181  0.0228 -0.1693  0.0986
  521PYPI    C3 8093  12.012  16.034  10.322  0.0198 -0.0867  0.1704
  521PYPI   PO4 8094  11.992  16.417   9.726 -0.1224  0.1028 -0.0583
  521PYPI   GL1 8095  11.804  16.511   9.327 -0.0291 -0.2159  0.0924
  521PYPI   GL2 8096  11.881  16.796   9.285  0.3179  0.0683  0.0398
  521PYPI   C1A 8097  11.835  16.246   9.034  0.3532  0.2460 -0.2396
  521PYPI   C2A 8098  11.780  15.986   8.708  0.0876  0.0580 -0.1520
  521PYPI   D3A 8099  11.865  15.855   8.293  0.0193  0.0890 -0.3499
  521PYPI   C4A 8100  11.603  16.113   8.105 -0.0170  0.1429  0.2857
  521PYPI   C1B 8101  12.260  16.690   9.073  0.1322 -0.0889  0.3551
  521PYPI   C2B 8102  12.290  16.386   8.865  0.3784 -0.1693 -0.3173
  521PYPI   C3B 8103  12.292  16.232   8.484  0.1421 -0.0682 -0.0347
  521PYPI   C4B 8104  12.330  15.990   8.141 -0.0557  0.1344 -0.0440
  522PYPI    C1 8105   5.358  13.844  10.432  0.0643 -0.0053 -0.0391
  522PYPI    C2 8106   5.552  13.644  10.719  0.2089  0.0182 -0.1192
  522PYPI    C3 8107   5.554  14.044  10.718 -0.2767  0.0292  0.1757
  522PYPI   PO4 8108   5.349  13.709  10.125 -0.2658  0.0829  0.1485
  522PYPI   GL1 8109   5.513  13.449   9.849 -0.4425  0.4282 -0.0518
  522PYPI   GL2 8110   5.837  13.573   9.825 -0.0917 -0.2830  0.5185
  522PYPI   C1A 8111   5.419  13.566   9.389  0.1549  0.0967 -0.0747
  522PYPI   C2A 8112   5.408  13.612   8.900  0.0141  0.1949  0.1089
  522PYPI   D3A 8113   5.379  13.459   8.506  0.1800  0.0460  0.2644
  522PYPI   C4A 8114   5.601  13.473   8.086 -0.0680  0.0298  0.2084
  522PYPI   C1B 8115   5.864  13.715   9.393 -0.0677 -0.1114 -0.0645
  522PYPI   C2B 8116   5.951  13.677   8.951 -0.3504  0.1318 -0.0838
  522PYPI   C3B 8117   6.117  13.471   8.607 -0.2345 -0.1157 -0.1723
  522PYPI   C4B 8118   6.309  13.372   8.194 -0.1276  0.0614  0.0427
  523PYPI    C1 8119   5.129  16.203  10.135 -0.2293  0.1137  0.1180
  523PYPI    C2 8120   5.095  15.895  10.387  0.2184  0.0427  0.0997
  523PYPI    C3 8121   5.313  16.214  10.490 -0.0705  0.2654  0.0327
  523PYPI   PO4 8122   5.153  15.999   9.894  0.0757  0.1324 -0.3067
  523PYPI   GL1 8123   5.080  16.083   9.438  0.0533  0.2214  0.0895
  523PYPI   GL2 8124   5.281  15.777   9.448 -0.5456  0.0406 -0.0746
  523PYPI   C1A 8125   4.926  16.316   9.139 -0.0307  0.3622  0.0714
  523PYPI   C2A 8126   4.763  16.447   8.824 -0.0224  0.2061 -0.0412
  523PYPI   D3A 8127   4.600  16.502   8.493  0.1480  0.1712  0.0333
  523PYPI   C4A 8128   4.773  16.691   8.026  0.1485 -0.0293 -0.0145
  523PYPI   C1B 8129   5.365  15.969   9.038  0.2524  0.2662  0.4352
  523PYPI   C2B 8130   5.205  16.079   8.644  0.2518 -0.0200  0.0582
  523PYPI   C3B 8131   5.001  16.254   8.205 -0.3878  0.1609  0.1818
  523PYPI   C4B 8132   4.815  16.258   7.772  0.2462  0.2211 -0.1817
  524PYPI    C1 8133   9.682  15.765  10.599  0.2047 -0.0469 -0.0290
  524PYPI    C2 8134   9.595  16.093  10.810 -0.0936 -0.1169 -0.0393
  524PYPI    C3 8135   9.882  15.845  10.936  0.0853  0.1093  0.0058
  524PYPI   PO4 8136   9.723  15.872  10.343 -0.2524 -0.0309 -0.0394
  524PYPI   GL1 8137   9.791  15.684   9.827  0.0246  0.0537 -0.0289
  524PYPI   GL2 8138  10.043  15.610  10.032 -0.2020  0.1511  0.0224
  524PYPI   C1A 8139  10.013  15.879   9.433  0.0140 -0.0240  0.0503
  524PYPI   C2A 8140  10.092  15.820   8.980  0.0201 -0.2172  0.2080
  524PYPI   D3A 8141   9.817  15.688   8.716  0.0352  0.1402  0.1687
  524PYPI   C4A 8142   9.840  15.452   8.354  0.3079 -0.0476  0.0914
  524PYPI   C1B 8143  10.459  15.649   9.777 -0.4163  0.1673 -0.0582
  524PYPI   C2B 8144  10.551  15.689   9.344 -0.2035  0.0295 -0.0817
  524PYPI   C3B 8145  10.586  15.550   8.884  0.2244 -0.1275 -0.0171
  524PYPI   C4B 8146  10.365  15.461   8.416  0.0341 -0.0800  0.1452
  525PYPI    C1 8147  15.665   7.242  10.142  0.0537  0.0891  0.1672
  525PYPI    C2 8148  15.822   7.609  10.169 -0.0993  0.1636  0.0598
  525PYPI    C3 8149  15.536   7.495  10.424 -0.1285  0.1577  0.0245
  525PYPI   PO4 8150  15.834   7.106   9.996  0.1064 -0.2009 -0.2081
  525PYPI   GL1 8151  15.962   7.080   9.636 -0.0665 -0.1290  0.1675
  525PYPI   GL2 8152  15.940   6.780   9.486 -0.0102  0.1069 -0.1145
  525PYPI   C1A 8153  15.754   7.267   9.314 -0.2496 -0.1907  0.1144
  525PYPI   C2A 8154  15.809   7.656   9.194 -0.0492 -0.2812 -0.1124
  525PYPI   D3A 8155  16.162   7.977   9.064 -0.0792 -0.1587  0.0004
  525PYPI   C4A 8156  16.352   8.279   9.387 -0.2186  0.1817 -0.0774
  525PYPI   C1B 8157  15.975   6.873   9.044 -0.1041 -0.1627 -0.1119
  525PYPI   C2B 8158  15.961   6.948   8.573 -0.0219  0.0105  0.2752
  525PYPI   C3B 8159  15.916   7.234   8.213 -0.3580 -0.0659  0.1750
  525PYPI   C4B 8160  16.350   7.332   8.068 -0.1351 -0.2324 -0.2434
  526PYPI    C1 8161  11.916  12.756  10.109  0.0745 -0.0917 -0.0405
  526PYPI    C2 8162  12.191  12.542  10.304  0.1268  0.0839  0.0801
  526PYPI    C3 8163  11.858  12.658  10.492 -0.1524 -0.3445 -0.1363
  526PYPI   PO4 8164  12.062  12.831   9.903  0.0010 -0.0247 -0.0352
  526PYPI   GL1 8165  11.950  13.121   9.573 -0.1334 -0.4215 -0.0113
  526PYPI   GL2 8166  11.661  13.243   9.449 -0.0179  0.2233 -0.0568
  526PYPI   C1A 8167  12.190  13.126   9.100  0.0550 -0.0591  0.0201
  526PYPI   C2A 8168  12.188  12.937   8.579 -0.2802  0.0840  0.1892
  526PYPI   D3A 8169  12.079  12.896   8.146  0.1500  0.0260 -0.3748
  526PYPI   C4A 8170  12.230  13.099   7.723 -0.0689 -0.2892 -0.2052
  526PYPI   C1B 8171  11.464  13.265   9.078 -0.5619 -0.0432 -0.1500
  526PYPI   C2B 8172  11.401  13.308   8.697 -0.2745 -0.2781  0.0643
  526PYPI   C3B 8173  11.173  13.200   8.424 -0.1202  0.2195  0.0158
  526PYPI   C4B 8174  11.176  13.006   8.084 -0.4596 -0.1608  0.2259
  527PYPI    C1 8175   5.879   0.437  10.179 -0.0549  0.2000  0.0939
  527PYPI    C2 8176   5.541   0.359  10.378  0.0058 -0.1235  0.0743
  527PYPI    C3 8177   5.890   0.223  10.517  0.0648 -0.2390 -0.1807
  527PYPI   PO4 8178   5.701   0.643   9.918 -0.1025  0.2158 -0.1358
  527PYPI   GL1 8179   5.497   0.613   9.460 -0.0952  0.0295  0.0821
  527PYPI   GL2 8180   5.836   0.507   9.489 -0.3279 -0.0141 -0.0919
  527PYPI   C1A 8181   5.472   0.756   9.071 -0.1208 -0.1861 -0.1976
  527PYPI   C2A 8182   5.403   0.567   8.682 -0.0723  0.2877 -0.0917
  527PYPI   D3A 8183   5.276   0.399   8.325  0.2394  0.0629 -0.4353
  527PYPI   C4A 8184   5.549   0.349   8.008 -0.0527 -0.1884  0.0955
  527PYPI   C1B 8185   5.909   0.421   9.099  0.2567 -0.2135  0.3224
  527PYPI   C2B 8186   5.847   0.311   8.653 -0.0631  0.0145  0.0013
  527PYPI   C3B 8187   6.014   0.387   8.166  0.0263  0.1402  0.1464
  527PYPI   C4B 8188   5.978   0.334   7.768 -0.0735  0.0058 -0.2362
  528PYPI    C1 8189  10.492   8.758   9.900 -0.2109  0.0386 -0.1113
  528PYPI    C2 8190  10.797   8.500   9.909 -0.2302  0.0149 -0.1321
  528PYPI    C3 8191  10.765   8.783  10.190 -0.0906  0.1304 -0.2309
  528PYPI   PO4 8192  10.564   8.924   9.680  0.4580 -0.1672 -0.2670
  528PYPI   GL1 8193  10.687   9.131   9.288 -0.1359 -0.2938  0.1595
  528PYPI   GL2 8194  10.730   8.886   9.225 -0.5310 -0.1800  0.2715
  528PYPI   C1A 8195  10.415   9.354   8.966  0.2595 -0.0270  0.1923
  528PYPI   C2A 8196  10.331   9.408   8.495 -0.4682 -0.3977 -0.1778
  528PYPI   D3A 8197  10.420   9.428   8.100 -0.1062 -0.1605  0.2871
  528PYPI   C4A 8198  10.582   9.707   7.796 -0.0027 -0.2231 -0.0268
  528PYPI   C1B 8199  10.446   8.766   8.893  0.0682 -0.0158  0.0876
  528PYPI   C2B 8200  10.520   8.955   8.578 -0.0910 -0.1540  0.3504
  528PYPI   C3B 8201  10.364   8.968   8.296  0.2038  0.1101 -0.0547
  528PYPI   C4B 8202  10.365   8.977   7.792  0.1250 -0.1010 -0.0950
  529PYPI    C1 8203   9.913  16.294  10.408 -0.1710  0.2297 -0.3821
  529PYPI    C2 8204   9.758  16.585  10.635  0.1262  0.2624 -0.2158
  529PYPI    C3 8205  10.021  16.328  10.792 -0.1706 -0.1319 -0.3472
  529PYPI   PO4 8206   9.930  16.446  10.146 -0.0618  0.0487  0.0262
  529PYPI   GL1 8207   9.781  16.191   9.913  0.0878 -0.2511 -0.0983
  529PYPI   GL2 8208   9.503  16.142   9.904  0.1378 -0.4363 -0.0316
  529PYPI   C1A 8209   9.761  16.286   9.451  0.2452  0.1035  0.0152
  529PYPI   C2A 8210   9.640  16.196   9.024  0.1163 -0.0066  0.2459
  529PYPI   D3A 8211   9.640  16.321   8.649 -0.0790  0.0484 -0.2269
  529PYPI   C4A 8212   9.619  16.092   8.323 -0.1014  0.1468  0.0558
  529PYPI   C1B 8213   9.463  15.915   9.472 -0.1250 -0.0087  0.0092
  529PYPI   C2B 8214   9.345  15.757   8.989  0.0010 -0.1934  0.2707
  529PYPI   C3B 8215   9.296  15.717   8.499 -0.1808  0.1790  0.1675
  529PYPI   C4B 8216   8.953  15.581   8.138  0.0007  0.1589  0.0274
  530PYPI    C1 8217   9.813   5.053   9.537  0.0559  0.0091  0.0394
  530PYPI    C2 8218   9.808   4.665   9.441 -0.1799  0.0506 -0.1252
  530PYPI    C3 8219   9.735   4.779   9.818 -0.2626 -0.0565 -0.1081
  530PYPI   PO4 8220   9.668   5.155   9.368 -0.2724 -0.1333 -0.0535
  530PYPI   GL1 8221   9.583   5.090   8.903  0.1719 -0.1018 -0.1636
  530PYPI   GL2 8222   9.779   5.340   8.718 -0.0152  0.2584  0.1097
  530PYPI   C1A 8223   9.349   5.080   8.512 -0.3498  0.2860  0.0680
  530PYPI   C2A 8224   9.460   5.104   8.152 -0.1630  0.2106 -0.1091
  530PYPI   D3A 8225   9.282   5.265   7.794 -0.1329 -0.2429 -0.1037
  530PYPI   C4A 8226   9.368   5.050   7.562 -0.0603  0.0621  0.0989
  530PYPI   C1B 8227   9.893   5.302   8.396  0.0775 -0.0679 -0.0468
  530PYPI   C2B 8228   9.984   5.190   7.991 -0.0476  0.1840 -0.2700
  530PYPI   C3B 8229  10.151   4.931   7.623 -0.2124  0.3043 -0.0497
  530PYPI   C4B 8230  10.082   4.541   7.383 -0.5628  0.3749  0.2734
  531PYPI    C1 8231  15.983   6.360   9.954 -0.0076 -0.1404 -0.1526
  531PYPI    C2 8232  16.160   6.718   9.932 -0.0150 -0.1405 -0.2141
  531PYPI    C3 8233  15.984   6.602  10.272  0.1999 -0.1862 -0.1173
  531PYPI   PO4 8234  15.843   6.365   9.761  0.2293  0.0688 -0.1469
  531PYPI   GL1 8235  15.695   6.353   9.401 -0.0327  0.1228  0.0334
  531PYPI   GL2 8236  15.462   6.593   9.445  0.7752 -0.1941 -0.0712
  531PYPI   C1A 8237  15.750   6.317   8.988 -0.2191  0.1448  0.2006
  531PYPI   C2A 8238  15.581   6.132   8.541  0.3219  0.2986  0.1573
  531PYPI   D3A 8239  15.353   5.984   8.166 -0.0013 -0.3098  0.0893
  531PYPI   C4A 8240  15.198   5.628   8.147  0.0342 -0.2142 -0.1458
  531PYPI   C1B 8241  15.247   6.411   9.081 -0.0125 -0.1603  0.0324
  531PYPI   C2B 8242  15.097   6.373   8.723  0.1170  0.1550 -0.1259
  531PYPI   C3B 8243  14.747   6.355   8.530 -0.3612  0.2628 -0.0417
  531PYPI   C4B 8244  14.319   6.307   8.240  0.4927  0.0197  0.2182
  532PYPI    C1 8245   8.139  10.115  10.377 -0.0756 -0.1252 -0.0094
  532PYPI    C2 8246   7.826  10.354  10.446  0.0393  0.0018  0.0743
  532PYPI    C3 8247   7.767   9.970  10.354 -0.1386  0.0013  0.1857
  532PYPI   PO4 8248   8.378  10.254  10.240  0.4852 -0.0440 -0.3619
  532PYPI   GL1 8249   8.622  10.175   9.828 -0.1061 -0.2254  0.0047
  532PYPI   GL2 8250   8.450  10.466   9.665 -0.1755 -0.1964 -0.2052
  532PYPI   C1A 8251   8.859  10.242   9.511  0.3300 -0.0436 -0.1525
  532PYPI   C2A 8252   9.035  10.154   9.119  0.0058 -0.3316 -0.2235
  532PYPI   D3A 8253   9.196  10.244   8.724  0.1726  0.0778 -0.1721
  532PYPI   C4A 8254   8.846  10.176   8.360 -0.0458 -0.2025 -0.1195
  532PYPI   C1B 8255   8.570  10.440   9.171  0.2001 -0.1419  0.1174
  532PYPI   C2B 8256   8.635  10.518   8.641  0.0258 -0.1049 -0.3116
  532PYPI   C3B 8257   8.760  10.706   8.324 -0.5738 -0.1346  0.2832
  532PYPI   C4B 8258   8.946  10.919   7.996 -0.1642 -0.3677 -0.0937
  533PYPI    C1 8259  13.049   2.161   9.828 -0.0267 -0.2993  0.1687
  533PYPI    C2 8260  13.281   2.181  10.153  0.3594  0.0449 -0.1178
  533PYPI    C3 8261  12.981   2.441  10.105  0.0789 -0.2259  0.1208
  533PYPI   PO4 8262  13.228   2.105   9.649  0.1396 -0.2887  0.0223
  533PYPI   GL1 8263  13.570   1.994   9.372  0.0203 -0.0133  0.2031
  533PYPI   GL2 8264  13.518   1.646   9.348  0.2342 -0.0104 -0.0697
  533PYPI   C1A 8265  13.489   2.188   8.947  0.0587  0.0216  0.1866
  533PYPI   C2A 8266  13.549   2.233   8.562 -0.3271  0.0336 -0.0926
  533PYPI   D3A 8267  13.754   2.332   8.146  0.1786 -0.1348 -0.2688
  533PYPI   C4A 8268  13.693   2.408   7.699 -0.0359  0.3391 -0.0059
  533PYPI   C1B 8269  13.454   1.582   8.932 -0.3048 -0.3282  0.2268
  533PYPI   C2B 8270  13.483   1.674   8.525  0.1673  0.0532 -0.0106
  533PYPI   C3B 8271  13.672   1.864   8.265 -0.0094  0.0259 -0.1254
  533PYPI   C4B 8272  13.750   1.943   7.859  0.0692 -0.0285 -0.1222
  534PYPI    C1 8273  15.350   6.232   9.989 -0.1547 -0.3646  0.2179
  534PYPI    C2 8274  15.226   6.438  10.309 -0.1123  0.0171 -0.0046
  534PYPI    C3 8275  15.606   6.315  10.285 -0.1447 -0.1144  0.1418
  534PYPI   PO4 8276  15.114   6.031   9.976  0.0259  0.1357 -0.0995
  534PYPI   GL1 8277  14.788   5.889   9.681  0.0004 -0.0324  0.3018
  534PYPI   GL2 8278  14.435   5.960   9.482 -0.0597  0.0439 -0.2927
  534PYPI   C1A 8279  14.783   6.309   9.539 -0.0123 -0.3596  0.0138
  534PYPI   C2A 8280  14.861   6.734   9.353 -0.2289  0.2445  0.0761
  534PYPI   D3A 8281  15.077   6.903   9.025 -0.0159 -0.0577  0.0193
  534PYPI   C4A 8282  15.495   6.737   8.740 -0.2325  0.2075 -0.2459
  534PYPI   C1B 8283  14.261   5.673   9.150 -0.3153 -0.3529  0.0411
  534PYPI   C2B 8284  14.312   5.694   8.654 -0.2948  0.2767  0.0531
  534PYPI   C3B 8285  14.215   5.724   8.193 -0.0642 -0.0903  0.2427
  534PYPI   C4B 8286  14.046   5.804   7.788 -0.1172  0.0083 -0.0067
  535PYPI    C1 8287  11.007   4.026   9.887 -0.4681  0.0792 -0.0296
  535PYPI    C2 8288  10.761   3.880  10.167 -0.1994 -0.0096  0.1638
  535PYPI    C3 8289  11.118   3.710  10.105 -0.0744  0.2799  0.0704
  535PYPI   PO4 8290  10.810   4.203   9.679  0.2886  0.3011  0.0845
  535PYPI   GL1 8291  10.674   4.184   9.261  0.0333 -0.1295  0.0220
  535PYPI   GL2 8292  11.010   3.927   9.305 -0.1193  0.1457  0.0519
  535PYPI   C1A 8293  10.810   4.310   8.896 -0.2115  0.0819  0.4761
  535PYPI   C2A 8294  10.754   4.146   8.533  0.1400  0.2334 -0.0911
  535PYPI   D3A 8295  10.864   4.048   8.205 -0.0199  0.1603  0.1787
  535PYPI   C4A 8296  10.884   3.915   7.769  0.1952 -0.2577  0.0038
  535PYPI   C1B 8297  10.997   3.874   8.924  0.0942 -0.1528 -0.1113
  535PYPI   C2B 8298  11.100   3.725   8.508  0.2468 -0.2853  0.1820
  535PYPI   C3B 8299  11.333   3.790   8.072  0.3613  0.0451  0.1631
  535PYPI   C4B 8300  11.378   3.692   7.659 -0.0271 -0.0388  0.2947
  536PYPI    C1 8301  14.683  13.288  10.299  0.3417 -0.2147  0.3706
  536PYPI    C2 8302  14.312  13.180  10.405  0.0441  0.3709 -0.0185
  536PYPI    C3 8303  14.468  13.523  10.541  0.3339  0.2692 -0.0870
  536PYPI   PO4 8304  14.783  13.270   9.996  0.2570 -0.0363 -0.1756
  536PYPI   GL1 8305  14.622  12.893   9.783 -0.3648  0.3382 -0.1210
  536PYPI   GL2 8306  14.793  12.679   9.745 -0.1195  0.2185 -0.3274
  536PYPI   C1A 8307  14.624  12.864   9.333 -0.0205  0.0266  0.2438
  536PYPI   C2A 8308  14.520  12.794   8.959  0.0800 -0.2349  0.1145
  536PYPI   D3A 8309  14.371  12.675   8.520 -0.0800 -0.1093  0.1600
  536PYPI   C4A 8310  14.049  12.683   8.286  0.1156 -0.3173  0.0440
  536PYPI   C1B 8311  15.034  12.606   9.369  0.0151  0.0625 -0.0435
  536PYPI   C2B 8312  14.986  12.636   8.915  0.2388 -0.1587 -0.0116
  536PYPI   C3B 8313  14.860  12.931   8.601 -0.0315 -0.2004  0.1095
  536PYPI   C4B 8314  14.774  13.023   8.313 -0.2551 -0.0513 -0.0055
  537PYPI    C1 8315   2.845  17.808  10.266  0.1937 -0.2468  0.2691
  537PYPI    C2 8316   2.924  18.113  10.512  0.1060 -0.0377  0.0415
  537PYPI    C3 8317   3.177  17.804  10.490  0.2369  0.0552  0.2148
  537PYPI   PO4 8318   2.802  17.969  10.060 -0.0086  0.2326  0.0254
  537PYPI   GL1 8319   2.777  17.977   9.624 -0.0149  0.0172 -0.1878
  537PYPI   GL2 8320   2.506  17.988   9.440 -0.0118 -0.0225 -0.0986
  537PYPI   C1A 8321   2.931  17.894   9.169 -0.2182 -0.0291  0.2224
  537PYPI   C2A 8322   2.979  17.911   8.691  0.0342  0.1511  0.0291
  537PYPI   D3A 8323   2.792  17.899   8.346  0.3173 -0.1901  0.0502
  537PYPI   C4A 8324   2.810  17.640   8.134 -0.0330  0.1587  0.2388
  537PYPI   C1B 8325   2.434  17.830   9.029 -0.0478 -0.3392 -0.1012
  537PYPI   C2B 8326   2.519  17.671   8.682  0.1358  0.0277  0.2604
  537PYPI   C3B 8327   2.327  17.594   8.280 -0.0958 -0.0895 -0.1001
  537PYPI   C4B 8328   2.478  17.550   7.775 -0.4539 -0.2639 -0.1775
  538PYPI    C1 8329   4.043  13.665   9.775 -0.0119 -0.0314  0.1135
  538PYPI    C2 8330   3.980  13.582  10.161 -0.1313  0.0700  0.1160
  538PYPI    C3 8331   4.228  13.878  10.058 -0.1143  0.0555  0.1152
  538PYPI   PO4 8332   3.906  13.459   9.665 -0.2126 -0.0645  0.0380
  538PYPI   GL1 8333   3.836  13.477   9.226  0.2614  0.2617 -0.1597
  538PYPI   GL2 8334   4.147  13.497   9.105  0.1285 -0.1166  0.1984
  538PYPI   C1A 8335   3.606  13.708   8.949 -0.2181 -0.0013  0.0938
  538PYPI   C2A 8336   3.618  13.977   8.553 -0.1915  0.3817  0.3327
  538PYPI   D3A 8337   3.258  14.108   8.287  0.1994  0.0443 -0.1282
  538PYPI   C4A 8338   3.358  14.053   7.926 -0.0523  0.0258  0.1082
  538PYPI   C1B 8339   4.200  13.619   8.693  0.0846  0.1095 -0.0951
  538PYPI   C2B 8340   4.367  13.460   8.317 -0.2478  0.0215  0.2169
  538PYPI   C3B 8341   4.689  13.083   8.178 -0.0199 -0.1164  0.0539
  538PYPI   C4B 8342   4.961  13.168   7.746 -0.0865 -0.6379 -0.2006
  539PYPI    C1 8343   3.732   5.089  10.314  0.1110  0.2546  0.1009
  539PYPI    C2 8344   3.673   5.301  10.648 -0.0060  0.0678  0.2006
  539PYPI    C3 8345   3.875   4.956  10.663 -0.0426  0.0409  0.0842
  539PYPI   PO4 8346   3.885   5.233  10.160 -0.0988 -0.0005 -0.0025
  539PYPI   GL1 8347   4.170   5.282   9.837 -0.2750 -0.3756 -0.3032
  539PYPI   GL2 8348   4.324   5.223   9.625 -0.3986  0.0557  0.0808
  539PYPI   C1A 8349   3.983   5.547   9.484 -0.0511  0.3174  0.0837
  539PYPI   C2A 8350   4.193   5.583   9.043  0.4595  0.2456 -0.2052
  539PYPI   D3A 8351   4.157   5.606   8.642  0.0482  0.0940 -0.0395
  539PYPI   C4A 8352   4.282   5.457   8.375 -0.0402 -0.0751 -0.1072
  539PYPI   C1B 8353   4.307   5.099   9.233 -0.0311  0.1874 -0.1480
  539PYPI   C2B 8354   4.301   5.095   8.792 -0.0974 -0.0138 -0.0138
  539PYPI   C3B 8355   4.283   4.980   8.361  0.1358  0.0299 -0.0090
  539PYPI   C4B 8356   4.425   4.906   7.896 -0.0671 -0.0441 -0.4005
  540ERGO   ROH 8357  13.994   2.829   9.395 -0.0522 -0.3841 -0.0283
  540ERGO    R1 8358  14.088   3.019   9.208 -0.0408 -0.2673  0.0953
  540ERGO    R2 8359  14.283   2.960   9.021 -0.1230 -0.1901 -0.0126
  540ERGO    R3 8360  14.097   3.051   8.845 -0.1427  0.0240  0.1152
  540ERGO    R4 8361  14.348   3.049   8.694 -0.1936 -0.0109  0.0209
  540ERGO    R5 8362  14.212   3.218   8.718 -0.0985  0.0487  0.1825
  540ERGO    C1 8363  14.211   3.187   8.338 -0.2533  0.2945  0.1605
  540ERGO    C2 8364  14.092   3.226   8.021 -0.1270 -0.0275 -0.1710
  541ERGO   ROH 8365  17.398  14.258   9.408 -0.0333  0.0318  0.0214
  541ERGO    R1 8366  17.360  14.406   9.169 -0.0838 -0.0074  0.0048
  541ERGO    R2 8367  17.557  14.430   8.976 -0.0950  0.0305 -0.0025
  541ERGO    R3 8368  17.361  14.336   8.812 -0.0700 -0.0490  0.0130
  541ERGO    R4 8369  17.525  14.511   8.642 -0.2613  0.1656  0.0445
  541ERGO    R5 8370  17.309  14.522   8.670 -0.2635 -0.0222  0.1167
  541ERGO    C1 8371  17.323  14.470   8.293 -0.3346  0.1695  0.0864
  541ERGO    C2 8372  17.317  14.588   7.921  0.0471  0.0754  0.2836
  542ERGO   ROH 8373   0.745   3.573   6.468  0.0573  0.3127  0.2256
  542ERGO    R1 8374   0.904   3.432   6.656  0.0771  0.1897  0.1173
  542ERGO    R2 8375   1.103   3.554   6.803 -0.0008  0.1237  0.2749
  542ERGO    R3 8376   0.967   3.448   7.014  0.0034 -0.1397  0.1495
  542ERGO    R4 8377   1.244   3.465   7.106 -0.0754  0.2717  0.3546
  542ERGO    R5 8378   1.117   3.288   7.108  0.1916  0.0672  0.2163
  542ERGO    C1 8379   1.199   3.314   7.479 -0.1148  0.1106  0.2833
  542ERGO    C2 8380   1.392   3.355   7.699 -0.1398  0.0312  0.0975
  543ERGO   ROH 8381  13.444  15.956   9.333 -0.0406 -0.2563  0.0169
  543ERGO    R1 8382  13.419  15.874   9.064 -0.3839 -0.1972  0.0257
  543ERGO    R2 8383  13.198  15.935   8.909 -0.2947  0.4258  0.1165
  543ERGO    R3 8384  13.385  16.037   8.740 -0.0631 -0.0925  0.0411
  543ERGO    R4 8385  13.145  16.003   8.574 -0.1957  0.4428  0.1043
  543ERGO    R5 8386  13.344  15.925   8.532 -0.3862 -0.0722  0.0882
  543ERGO    C1 8387  13.290  16.137   8.220  0.0792 -0.0337  0.0263
  543ERGO    C2 8388  13.368  16.430   7.917 -0.1078  0.0534 -0.0143
  544ERGO   ROH 8389  16.035   4.401   5.622  0.0604  0.2087  0.0247
  544ERGO    R1 8390  16.191   4.295   5.833  0.0781  0.1148 -0.0369
  544ERGO    R2 8391  16.375   4.446   5.973  0.0205  0.0747  0.0698
  544ERGO    R3 8392  16.234   4.360   6.189  0.0402 -0.1109  0.0130
  544ERGO    R4 8393  16.501   4.420   6.294 -0.0635  0.2473  0.1188
  544ERGO    R5 8394  16.392   4.233   6.317  0.1674  0.0936  0.0748
  544ERGO    C1 8395  16.442   4.325   6.683 -0.0943  0.1736  0.0941
  544ERGO    C2 8396  16.537   4.388   6.932  0.2461 -0.4972 -0.2502
  545ERGO   ROH 8397   7.688  18.595   6.150 -0.0094  0.1465  0.0819
  545ERGO    R1 8398   7.722  18.832   6.300 -0.1560  0.1255  0.1498
  545ERGO    R2 8399   7.527  19.027   6.318 -0.2696  0.0049  0.1947
  545ERGO    R3 8400   7.561  18.991   6.585 -0.2626 -0.0458  0.1876
  545ERGO    R4 8401   7.445  19.259   6.560  0.2124  0.1783  0.2030
  545ERGO    R5 8402   7.628  19.206   6.666  0.1538 -0.1529  0.1580
  545ERGO    C1 8403   7.429  19.361   6.952  0.4998  0.2317  0.2011
  545ERGO    C2 8404   7.311  19.613   7.246 -0.0575 -0.1336 -0.2395
  546ERGO   ROH 8405   2.456   4.790   5.985  0.1852 -0.2174  0.0459
  546ERGO    R1 8406   2.433   4.794   6.268  0.2962  0.0901  0.0545
  546ERGO    R2 8407   2.482   5.021   6.417 -0.0548  0.3792 -0.2464
  546ERGO    R3 8408   2.232   4.972   6.513  0.0662  0.0345 -0.0906
  546ERGO    R4 8409   2.362   5.133   6.722 -0.0852  0.3783 -0.2580
  546ERGO    R5 8410   2.264   4.940   6.748  0.2378  0.2332 -0.0850
  546ERGO    C1 8411   2.057   5.152   6.989  0.0106  0.0542 -0.1187
  546ERGO    C2 8412   2.042   5.524   6.979 -0.0050  0.0494 -0.2543
  547ERGO   ROH 8413   8.343  17.843   6.137  0.0476  0.4300 -0.2427
  547ERGO    R1 8414   8.342  18.036   6.344 -0.0117  0.1807 -0.0051
  547ERGO    R2 8415   8.163  18.026   6.555 -0.0861 -0.0669 -0.0703
  547ERGO    R3 8416   8.389  18.036   6.705 -0.1334 -0.2649  0.0156
  547ERGO    R4 8417   8.184  18.168   6.869 -0.0081  0.1832 -0.1868
  547ERGO    R5 8418   8.378  18.250   6.813  0.1361 -0.1518 -0.1789
  547ERGO    C1 8419   8.408  18.260   7.194 -0.0072  0.1432 -0.1740
  547ERGO    C2 8420   8.362  18.413   7.502 -0.4206  0.1773 -0.0877
  548ERGO   ROH 8421   5.359   3.646   9.431 -0.1364 -0.0085 -0.0268
  548ERGO    R1 8422   5.238   3.604   9.179 -0.0874 -0.0785 -0.0381
  548ERGO    R2 8423   5.256   3.786   8.972 -0.2594 -0.0199  0.0009
  548ERGO    R3 8424   5.349   3.571   8.834 -0.0451  0.0971 -0.0430
  548ERGO    R4 8425   5.240   3.751   8.629 -0.3824 -0.0351  0.0072
  548ERGO    R5 8426   5.189   3.541   8.658 -0.0970 -0.1078  0.0337
  548ERGO    C1 8427   5.318   3.529   8.299 -0.2529  0.0660 -0.0302
  548ERGO    C2 8428   5.277   3.569   7.903 -0.2614  0.0056 -0.0490
  549ERGO   ROH 8429  18.825   9.427   9.356 -0.0323  0.0995 -0.1361
  549ERGO    R1 8430  18.811   9.293   9.107  0.1092  0.0655 -0.1275
  549ERGO    R2 8431  18.583   9.294   8.951  0.1279 -0.1256 -0.1640
  549ERGO    R3 8432  18.754   9.386   8.760  0.0880 -0.0067 -0.1425
  549ERGO    R4 8433  18.531   9.268   8.610  0.2276 -0.2264 -0.1720
  549ERGO    R5 8434  18.742   9.222   8.586  0.2723 -0.0432 -0.1186
  549ERGO    C1 8435  18.661   9.340   8.233  0.2481 -0.1733 -0.1565
  549ERGO    C2 8436  18.554   9.260   8.051  0.0344 -0.0557 -0.0549
  550ERGO   ROH 8437  11.186  13.372   9.493 -0.0185  0.2264 -0.0773
  550ERGO    R1 8438  11.033  13.430   9.262 -0.1610  0.2407  0.0161
  550ERGO    R2 8439  11.012  13.685   9.158 -0.1167  0.2377 -0.0388
  550ERGO    R3 8440  11.097  13.564   8.930 -0.3281  0.1275 -0.0586
  550ERGO    R4 8441  11.022  13.835   8.847  0.1110  0.2389 -0.0299
  550ERGO    R5 8442  10.951  13.649   8.760 -0.1929  0.3726 -0.0416
  550ERGO    C1 8443  11.108  13.809   8.452  0.0450  0.1361 -0.0432
  550ERGO    C2 8444  11.263  14.068   8.297 -0.0150 -0.1805  0.0674
  551ERGO   ROH 8445   4.873   7.951   8.967  0.2919 -0.1237 -0.0171
  551ERGO    R1 8446   5.009   7.867   8.734  0.2808  0.0211 -0.0772
  551ERGO    R2 8447   4.878   7.814   8.496  0.2137 -0.2266  0.0087
  551ERGO    R3 8448   5.056   7.993   8.395 -0.1039  0.0181 -0.1348
  551ERGO    R4 8449   4.926   7.876   8.160  0.0320 -0.3260 -0.0373
  551ERGO    R5 8450   5.141   7.888   8.198  0.0246  0.0510 -0.0947
  551ERGO    C1 8451   5.122   8.081   7.869 -0.3720 -0.1542 -0.1989
  551ERGO    C2 8452   5.160   8.009   7.503  0.2974  0.1402  0.0007
  552ERGO   ROH 8453  15.982   4.717   6.245  0.0402 -0.1294  0.0030
  552ERGO    R1 8454  16.099   4.718   6.503  0.1154 -0.1107 -0.0299
  552ERGO    R2 8455  16.372   4.732   6.542  0.1207  0.1157 -0.1043
  552ERGO    R3 8456  16.306   4.945   6.698 -0.0251  0.0094 -0.0217
  552ERGO    R4 8457  16.564   4.855   6.802  0.0632  0.1934 -0.0990
  552ERGO    R5 8458  16.381   4.884   6.917  0.0633  0.0044 -0.0573
  552ERGO    C1 8459  16.613   5.125   7.101 -0.1073  0.1388 -0.0184
  552ERGO    C2 8460  16.952   5.173   7.276 -0.0313 -0.0932  0.1439
  553ERGO   ROH 8461  15.970   2.161   9.282  0.0724  0.0512 -0.1113
  553ERGO    R1 8462  16.046   2.083   9.021  0.0448 -0.0019 -0.1029
  553ERGO    R2 8463  15.893   1.911   8.867  0.0050  0.0072 -0.0688
  553ERGO    R3 8464  15.908   2.113   8.686  0.0369 -0.0244 -0.1026
  553ERGO    R4 8465  15.891   1.870   8.524 -0.0988 -0.0475 -0.0625
  553ERGO    R5 8466  16.042   2.025   8.509 -0.0403 -0.1061 -0.1244
  553ERGO    C1 8467  15.903   2.036   8.154 -0.1292 -0.1091 -0.0905
  553ERGO    C2 8468  15.956   2.228   7.882 -0.0888  0.1371 -0.1127
  554ERGO   ROH 8469   1.217  11.363   6.050  0.0776  0.0079  0.1201
  554ERGO    R1 8470   1.114  11.437   6.303  0.0798  0.0082  0.1223
  554ERGO    R2 8471   0.892  11.317   6.414 -0.0514  0.1453  0.0351
  554ERGO    R3 8472   1.058  11.276   6.625 -0.1208 -0.0615  0.0507
  554ERGO    R4 8473   0.787  11.256   6.738 -0.1379  0.4701  0.0717
  554ERGO    R5 8474   0.949  11.386   6.808  0.0883  0.2087  0.0084
  554ERGO    C1 8475   0.883  11.182   7.124 -0.2534  0.4651  0.1075
  554ERGO    C2 8476   0.783  11.147   7.481  0.0147  0.0654 -0.0893
  555ERGO   ROH 8477   2.134   6.358   9.402  0.0687  0.0467 -0.1685
  555ERGO    R1 8478   2.165   6.184   9.180 -0.0348  0.0878 -0.2164
  555ERGO    R2 8479   2.030   5.944   9.161  0.0861  0.0094 -0.1148
  555ERGO    R3 8480   1.950   6.045   8.922 -0.1976 -0.0104 -0.0311
  555ERGO    R4 8481   1.876   5.761   8.911  0.2988 -0.1448 -0.1359
  555ERGO    R5 8482   1.996   5.870   8.765  0.0476  0.1435 -0.1365
  555ERGO    C1 8483   1.711   5.750   8.541  0.1564 -0.2531 -0.0696
  555ERGO    C2 8484   1.634   5.751   8.216 -0.2410 -0.0885 -0.2240
  556ERGO   ROH 8485  12.957  18.496   9.479  0.0311 -0.0722 -0.1414
  556ERGO    R1 8486  13.060  18.470   9.217  0.0901 -0.0639 -0.1175
  556ERGO    R2 8487  12.898  18.474   8.992  0.1360 -0.1364 -0.1431
  556ERGO    R3 8488  13.065  18.673   8.914  0.0882 -0.0921 -0.1389
  556ERGO    R4 8489  12.995  18.534   8.666 -0.2429  0.1649 -0.2090
  556ERGO    R5 8490  13.196  18.576   8.739 -0.1383  0.0459 -0.3995
  556ERGO    C1 8491  13.209  18.756   8.403 -0.5082  0.3818 -0.2436
  556ERGO    C2 8492  13.214  18.762   8.081  0.2339 -0.1161 -0.1991
  557ERGO   ROH 8493   6.510  17.872   5.888 -0.1593 -0.0036 -0.0453
  557ERGO    R1 8494   6.508  17.964   6.155 -0.1386 -0.0623 -0.0245
  557ERGO    R2 8495   6.397  17.818   6.362 -0.0483 -0.1466 -0.0326
  557ERGO    R3 8496   6.642  17.852   6.475 -0.0366 -0.0866 -0.0759
  557ERGO    R4 8497   6.464  17.790   6.700 -0.0122  0.0504 -0.0223
  557ERGO    R5 8498   6.597  17.962   6.683 -0.0105  0.0360 -0.1361
  557ERGO    C1 8499   6.733  17.805   7.002  0.0199  0.2216 -0.0568
  557ERGO    C2 8500   6.860  17.686   7.321  0.1199  0.0934 -0.1248
  558ERGO   ROH 8501   6.987   6.650   7.071 -0.2538 -0.1896  0.1080
  558ERGO    R1 8502   6.856   6.843   6.911 -0.0157 -0.0498  0.0776
  558ERGO    R2 8503   6.581   6.872   6.908 -0.0106 -0.0261 -0.2799
  558ERGO    R3 8504   6.640   7.131   6.968 -0.0701 -0.0753  0.0078
  558ERGO    R4 8505   6.353   7.132   6.906 -0.0472 -0.0556 -0.1314
  558ERGO    R5 8506   6.506   7.259   6.817 -0.0160  0.0576  0.0660
  558ERGO    C1 8507   6.275   7.526   6.962 -0.1244 -0.1191  0.2252
  558ERGO    C2 8508   6.062   7.767   7.023  0.1502 -0.1171  0.0351
  559ERGO   ROH 8509   3.845   8.605   9.261  0.0133  0.0868  0.0174
  559ERGO    R1 8510   3.846   8.451   9.024  0.0825  0.1002  0.0097
  559ERGO    R2 8511   3.618   8.332   8.922  0.1278  0.0478 -0.0232
  559ERGO    R3 8512   3.687   8.468   8.697  0.1190  0.0753 -0.0102
  559ERGO    R4 8513   3.527   8.244   8.600 -0.0768  0.2094 -0.0125
  559ERGO    R5 8514   3.726   8.298   8.534 -0.0668  0.0982 -0.0837
  559ERGO    C1 8515   3.539   8.320   8.202 -0.2041  0.3294  0.0058
  559ERGO    C2 8516   3.682   8.235   7.871  0.2641 -0.0634 -0.1511
  560ERGO   ROH 8517  14.942  14.196   6.036 -0.2081 -0.1035 -0.0821
  560ERGO    R1 8518  14.807  14.255   6.278  0.0006 -0.0305  0.0192
  560ERGO    R2 8519  14.777  14.071   6.481  0.0810 -0.0031  0.0558
  560ERGO    R3 8520  14.890  14.266   6.632  0.2772 -0.0378 -0.0431
  560ERGO    R4 8521  14.821  14.054   6.823  0.0454  0.1308  0.0674
  560ERGO    R5 8522  14.764  14.264   6.836  0.2621  0.2009 -0.0468
  560ERGO    C1 8523  14.954  14.228   7.165  0.2089  0.1762 -0.0186
  560ERGO    C2 8524  14.961  14.385   7.560  0.0875 -0.0400 -0.0822
  561ERGO   ROH 8525   9.651  10.743   9.382 -0.0826  0.0735 -0.2175
  561ERGO    R1 8526   9.674  10.526   9.201 -0.1650  0.0552 -0.2092
  561ERGO    R2 8527   9.551  10.524   8.954 -0.0648  0.1460 -0.2693
  561ERGO    R3 8528   9.803  10.474   8.865 -0.0593 -0.0317 -0.1541
  561ERGO    R4 8529   9.629  10.405   8.639  0.0035  0.0406 -0.2114
  561ERGO    R5 8530   9.781  10.278   8.730 -0.1209 -0.0369 -0.1273
  561ERGO    C1 8531   9.912  10.290   8.372  0.0483 -0.1877 -0.0694
  561ERGO    C2 8532   9.880  10.169   8.031 -0.1485 -0.4326  0.0797
  562ERGO   ROH 8533  18.105   6.569   9.393 -0.0995  0.1080 -0.1294
  562ERGO    R1 8534  18.101   6.326   9.248 -0.1063  0.0492 -0.0309
  562ERGO    R2 8535  17.986   6.303   8.997 -0.0773 -0.0406 -0.0343
  562ERGO    R3 8536  18.231   6.207   8.929 -0.0794 -0.0954  0.0328
  562ERGO    R4 8537  18.078   6.207   8.679  0.0995  0.2846 -0.0865
  562ERGO    R5 8538  18.184   6.038   8.766 -0.0580  0.1192 -0.2039
  562ERGO    C1 8539  18.362   6.060   8.429  0.2007  0.4226 -0.0540
  562ERGO    C2 8540  18.576   6.026   8.148  0.1517  0.0094  0.1332
  563ERGO   ROH 8541   4.553   5.179   5.883  0.0102 -0.0145 -0.0054
  563ERGO    R1 8542   4.544   5.117   6.159  0.0194  0.2293  0.0523
  563ERGO    R2 8543   4.444   5.293   6.347 -0.2902  0.2697 -0.1388
  563ERGO    R3 8544   4.286   5.081   6.414 -0.0087  0.0986  0.0051
  563ERGO    R4 8545   4.332   5.222   6.667 -0.0553  0.2286 -0.0635
  563ERGO    R5 8546   4.368   5.011   6.628  0.1776  0.2592 -0.0127
  563ERGO    C1 8547   4.119   4.983   6.915  0.3457  0.0440  0.1155
  563ERGO    C2 8548   4.206   5.023   7.346 -0.2082  0.1149 -0.0040
  564ERGO   ROH 8549  13.734  15.767   5.616 -0.1583  0.1203  0.1390
  564ERGO    R1 8550  13.934  15.771   5.816  0.1009  0.0030 -0.1104
  564ERGO    R2 8551  13.877  15.737   6.085  0.3705  0.3783  0.0018
  564ERGO    R3 8552  14.062  15.539   6.066  0.0266  0.0476 -0.0298
  564ERGO    R4 8553  14.016  15.572   6.354  0.2388  0.2449 -0.0112
  564ERGO    R5 8554  14.209  15.578   6.252  0.2001 -0.1251 -0.1254
  564ERGO    C1 8555  14.271  15.289   6.494 -0.1606 -0.1433 -0.0484
  564ERGO    C2 8556  14.523  15.095   6.768  0.0010  0.2909 -0.1345
  565ERGO   ROH 8557  14.755   5.260   6.147  0.0489 -0.2495 -0.0293
  565ERGO    R1 8558  14.844   5.413   6.368 -0.1912 -0.1197 -0.0207
  565ERGO    R2 8559  14.719   5.405   6.615 -0.1342 -0.3917 -0.0026
  565ERGO    R3 8560  14.969   5.346   6.703 -0.0028  0.0548 -0.0534
  565ERGO    R4 8561  14.797   5.303   6.936  0.0748 -0.4543 -0.0710
  565ERGO    R5 8562  14.974   5.429   6.927 -0.1708 -0.0800  0.0055
  565ERGO    C1 8563  15.077   5.189   7.205  0.3199 -0.0717 -0.1586
  565ERGO    C2 8564  15.320   5.116   7.318 -0.1788  0.0917  0.1490
  566ERGO   ROH 8565  13.056  13.735   6.580  0.1193  0.0254 -0.0862
  566ERGO    R1 8566  13.117  13.979   6.712  0.1343  0.0194 -0.0819
  566ERGO    R2 8567  13.032  14.034   6.968 -0.0263  0.0984 -0.1505
  566ERGO    R3 8568  13.296  14.080   7.012 -0.0352 -0.0141  0.0320
  566ERGO    R4 8569  13.158  14.250   7.207 -0.1012  0.1242 -0.1337
  566ERGO    R5 8570  13.308  14.314   7.062  0.0395 -0.0011 -0.0448
  566ERGO    C1 8571  13.480  14.418   7.387 -0.1532  0.0335  0.0473
  566ERGO    C2 8572  13.653  14.395   7.591  0.1627 -0.2020 -0.0647
  567ERGO   ROH 8573  18.387  16.174   6.039  0.1980 -0.1646  0.0751
  567ERGO    R1 8574  18.203  16.061   6.222  0.1516 -0.2082  0.0023
  567ERGO    R2 8575  18.265  15.844   6.382  0.2367 -0.0225  0.2275
  567ERGO    R3 8576  18.186  16.010   6.582 -0.1076  0.0582  0.0317
  567ERGO    R4 8577  18.187  15.743   6.703  0.3317  0.1793  0.3158
  567ERGO    R5 8578  18.021  15.884   6.702  0.0792 -0.1078  0.1191
  567ERGO    C1 8579  18.067  15.840   7.078  0.0637  0.3724  0.1834
  567ERGO    C2 8580  17.825  15.776   7.377  0.0566 -0.0442 -0.1248
  568ERGO   ROH 8581  14.573  13.307   9.477  0.0344 -0.0008  0.1630
  568ERGO    R1 8582  14.507  13.394   9.215  0.1047 -0.0355  0.1338
  568ERGO    R2 8583  14.681  13.368   9.002  0.1217 -0.1583  0.1635
  568ERGO    R3 8584  14.470  13.240   8.888  0.0838 -0.0973  0.1645
  568ERGO    R4 8585  14.607  13.370   8.664 -0.1465  0.2567  0.2177
  568ERGO    R5 8586  14.396  13.388   8.715 -0.1172  0.1040  0.4138
  568ERGO    C1 8587  14.366  13.251   8.360 -0.3383  0.5556  0.2501
  568ERGO    C2 8588  14.304  13.112   8.033 -0.0736  0.0563 -0.0692
  569ERGO   ROH 8589   0.126  10.541   9.429  0.2056  0.3146  0.0456
  569ERGO    R1 8590   0.262  10.446   9.199  0.1799  0.2419  0.0598
  569ERGO    R2 8591   0.132  10.326   8.988  0.1640  0.1128  0.1418
  569ERGO    R3 8592   0.258  10.517   8.842  0.0873  0.0773  0.0275
  569ERGO    R4 8593   0.216  10.296   8.654  0.0974 -0.0179  0.1361
  569ERGO    R5 8594   0.406  10.394   8.698  0.0843  0.0469  0.0505
  569ERGO    C1 8595   0.385  10.458   8.323 -0.0134 -0.1274  0.0255
  569ERGO    C2 8596   0.329  10.419   7.948 -0.1486  0.0184  0.2885
  570ERGO   ROH 8597  13.907  13.398   6.710  0.1467  0.0206 -0.0991
  570ERGO    R1 8598  14.084  13.241   6.866  0.0044 -0.0478 -0.0030
  570ERGO    R2 8599  14.326  13.337   6.959  0.0973 -0.2096 -0.0638
  570ERGO    R3 8600  14.228  13.257   7.200  0.0189  0.0291 -0.0136
  570ERGO    R4 8601  14.519  13.222   7.222 -0.0198 -0.2743 -0.0057
  570ERGO    R5 8602  14.366  13.071   7.261 -0.1816 -0.0878  0.0859
  570ERGO    C1 8603  14.539  13.080   7.601 -0.1617 -0.0880  0.0751
  570ERGO    C2 8604  14.842  12.985   7.792  0.0118 -0.1572  0.1256
  571ERGO   ROH 8605   3.552   4.061   9.588  0.1029  0.0260  0.1818
  571ERGO    R1 8606   3.721   4.147   9.378  0.0379  0.1018  0.1607
  571ERGO    R2 8607   3.849   3.971   9.208  0.0693  0.1607  0.1256
  571ERGO    R3 8608   3.727   4.119   9.015 -0.0126  0.1353  0.1568
  571ERGO    R4 8609   3.952   3.990   8.879 -0.0375  0.1575  0.0910
  571ERGO    R5 8610   3.907   4.203   8.882 -0.0651  0.1529  0.0947
  571ERGO    C1 8611   3.898   4.139   8.506 -0.1767  0.1318  0.1003
  571ERGO    C2 8612   3.919   3.927   8.284 -0.3300 -0.1114  0.0906
  572ERGO   ROH 8613   5.014   7.702   6.065  0.1645 -0.3422 -0.0018
  572ERGO    R1 8614   5.029   7.686   6.347  0.0427 -0.1749  0.0167
  572ERGO    R2 8615   4.805   7.692   6.509 -0.0373 -0.1741 -0.0855
  572ERGO    R3 8616   4.909   7.460   6.606  0.0164 -0.0777  0.0879
  572ERGO    R4 8617   4.709   7.542   6.805 -0.2206 -0.1429 -0.1289
  572ERGO    R5 8618   4.919   7.495   6.843 -0.2291  0.0007  0.0857
  572ERGO    C1 8619   4.751   7.237   7.069 -0.2769 -0.0344  0.0087
  572ERGO    C2 8620   4.612   7.301   7.416 -0.0650  0.0503  0.0689
  573ERGO   ROH 8621   7.613   1.404   9.378 -0.0682 -0.0642 -0.0745
  573ERGO    R1 8622   7.450   1.322   9.162 -0.0857  0.0198 -0.0937
  573ERGO    R2 8623   7.238   1.474   9.069 -0.0040  0.1248 -0.1123
  573ERGO    R3 8624   7.367   1.449   8.831  0.0095  0.0690 -0.0989
  573ERGO    R4 8625   7.095   1.528   8.759  0.0928  0.3425 -0.1208
  573ERGO    R5 8626   7.203   1.355   8.684 -0.0562  0.2607 -0.1499
  573ERGO    C1 8627   7.132   1.536   8.355  0.1618  0.4169 -0.1132
  573ERGO    C2 8628   6.947   1.715   8.025 -0.0567 -0.1312 -0.0498
  574ERGO   ROH 8629   9.648   5.652   9.091  0.1061 -0.0893 -0.0863
  574ERGO    R1 8630   9.597   5.787   8.848  0.0041 -0.2433 -0.1534
  574ERGO    R2 8631   9.734   6.017   8.774 -0.2960 -0.0632 -0.1754
  574ERGO    R3 8632   9.786   5.873   8.549  0.0039 -0.0699 -0.1042
  574ERGO    R4 8633   9.782   6.152   8.459  0.0396 -0.0813 -0.1343
  574ERGO    R5 8634   9.667   5.987   8.376  0.1780 -0.1164 -0.2563
  574ERGO    C1 8635   9.860   6.096   8.066  0.5166 -0.0980 -0.0436
  574ERGO    C2 8636   9.687   6.153   7.760  0.0761  0.0959  0.2947
  575ERGO   ROH 8637  10.660   2.082   9.006 -0.1079 -0.0447 -0.1010
  575ERGO    R1 8638  10.607   2.220   8.764  0.0294  0.0226 -0.0936
  575ERGO    R2 8639  10.808   2.296   8.589  0.1096 -0.1468 -0.0785
  575ERGO    R3 8640  10.658   2.159   8.409 -0.0085  0.0021 -0.0952
  575ERGO    R4 8641  10.799   2.359   8.249  0.3295 -0.2365 -0.1029
  575ERGO    R5 8642  10.584   2.325   8.253  0.2779  0.0574 -0.1761
  575ERGO    C1 8643  10.652   2.267   7.883  0.3465 -0.1491 -0.1327
  575ERGO    C2 8644  10.720   2.158   7.667  0.0509  0.3450 -0.0328
  576ERGO   ROH 8645   2.149   6.980   8.922 -0.1178  0.0034  0.0612
  576ERGO    R1 8646   2.198   6.955   8.644 -0.0820  0.0496  0.0634
  576ERGO    R2 8647   2.066   6.770   8.486 -0.0325  0.0499  0.0240
  576ERGO    R3 8648   2.005   6.989   8.338 -0.0523  0.0592  0.0452
  576ERGO    R4 8649   1.909   6.763   8.178 -0.0560  0.0640  0.0355
  576ERGO    R5 8650   2.043   6.921   8.111 -0.0661  0.0755  0.0366
  576ERGO    C1 8651   1.759   6.965   7.860 -0.0882  0.0809  0.0621
  576ERGO    C2 8652   1.537   7.005   7.529  0.0022  0.3747  0.2303
  577ERGO   ROH 8653  17.402   7.176   6.377  0.2696 -0.0274  0.0020
  577ERGO    R1 8654  17.563   7.242   6.601  0.1371  0.2002  0.0354
  577ERGO    R2 8655  17.485   7.427   6.790 -0.1757  0.0836  0.0418
  577ERGO    R3 8656  17.532   7.223   6.963  0.0945  0.1310  0.0251
  577ERGO    R4 8657  17.533   7.462   7.131 -0.2409  0.0989  0.0483
  577ERGO    R5 8658  17.690   7.311   7.119 -0.0397  0.3193  0.0437
  577ERGO    C1 8659  17.606   7.290   7.491 -0.0249  0.1522  0.0364
  577ERGO    C2 8660  17.671   7.188   7.796 -0.0058 -0.3495  0.3843
  578ERGO   ROH 8661   3.167   6.659   8.970  0.1051  0.1333 -0.1271
  578ERGO    R1 8662   3.151   6.496   8.739 -0.0250  0.0511 -0.0609
  578ERGO    R2 8663   2.954   6.305   8.705 -0.0780  0.0794  0.0927
  578ERGO    R3 8664   2.911   6.439   8.472 -0.1484  0.0004  0.0591
  578ERGO    R4 8665   2.785   6.177   8.432 -0.0769 -0.0507  0.1516
  578ERGO    R5 8666   2.933   6.272   8.302 -0.1208 -0.0435  0.1041
  578ERGO    C1 8667   2.646   6.228   8.055 -0.1424 -0.2006  0.1543
  578ERGO    C2 8668   2.539   5.980   7.892 -0.2469  0.3503 -0.0224
  579ERGO   ROH 8669   2.612  13.456   9.571 -0.2597  0.0175 -0.0902
  579ERGO    R1 8670   2.773  13.535   9.352 -0.2424  0.1094 -0.0449
  579ERGO    R2 8671   2.909  13.353   9.194 -0.0553  0.1888  0.0220
  579ERGO    R3 8672   2.777  13.478   8.992 -0.0798  0.0684 -0.0376
  579ERGO    R4 8673   3.003  13.345   8.861  0.0882  0.2521  0.0598
  579ERGO    R5 8674   2.950  13.556   8.847 -0.0844  0.2086  0.0299
  579ERGO    C1 8675   2.933  13.458   8.478  0.1488  0.1760  0.0259
  579ERGO    C2 8676   2.872  13.467   8.224 -0.3698 -0.0401  0.1096
  580ERGO   ROH 8677  15.998   5.822   6.279  0.1312  0.1614  0.1925
  580ERGO    R1 8678  15.995   5.665   6.514  0.1747 -0.0013  0.0852
  580ERGO    R2 8679  16.205   5.502   6.588  0.3377  0.2285  0.1151
  580ERGO    R3 8680  16.190   5.642   6.820 -0.0043  0.0521  0.2078
  580ERGO    R4 8681  16.297   5.380   6.898  0.5696  0.2085  0.0407
  580ERGO    R5 8682  16.123   5.480   6.983  0.3237 -0.2217  0.0909
  580ERGO    C1 8683  16.337   5.441   7.297  0.3836  0.0313  0.0845
  580ERGO    C2 8684  16.401   5.383   7.663  0.1085  0.2040  0.0878
  581ERGO   ROH 8685  18.014  11.093   9.051  0.2486  0.1019 -0.0471
  581ERGO    R1 8686  18.094  11.089   8.779  0.0938 -0.0255 -0.0926
  581ERGO    R2 8687  17.939  10.978   8.580 -0.1435  0.1162  0.0093
  581ERGO    R3 8688  17.968  11.222   8.465  0.0630  0.0699 -0.0403
  581ERGO    R4 8689  17.883  11.048   8.246  0.1735  0.0425 -0.0624
  581ERGO    R5 8690  18.059  11.176   8.248  0.2295 -0.0346  0.0494
  581ERGO    C1 8691  17.878  11.318   7.944  0.5520 -0.0438 -0.1509
  581ERGO    C2 8692  17.711  11.337   7.615  0.0407  0.0380 -0.0220
  582ERGO   ROH 8693   8.117  12.212   6.050  0.2555 -0.1774  0.1615
  582ERGO    R1 8694   7.957  12.297   6.268  0.0446 -0.3448  0.0764
  582ERGO    R2 8695   7.865  12.123   6.461  0.3874 -0.4040  0.2023
  582ERGO    R3 8696   7.984  12.299   6.631  0.0064 -0.0114  0.0787
  582ERGO    R4 8697   7.810  12.134   6.802  0.3898 -0.2863  0.1985
  582ERGO    R5 8698   7.812  12.352   6.789 -0.1041 -0.2856  0.0501
  582ERGO    C1 8699   7.890  12.306   7.160  0.0336  0.1507  0.0802
  582ERGO    C2 8700   7.930  12.111   7.499  0.1669 -0.1270  0.3013
  583ERGO   ROH 8701  11.880  14.850   9.633  0.0098  0.3258 -0.0402
  583ERGO    R1 8702  11.728  14.719   9.433  0.0765  0.1318  0.0367
  583ERGO    R2 8703  11.733  14.797   9.168 -0.0913  0.0857  0.0323
  583ERGO    R3 8704  11.797  14.536   9.126  0.1543  0.1384  0.0451
  583ERGO    R4 8705  11.713  14.635   8.863 -0.2513 -0.0023  0.0868
  583ERGO    R5 8706  11.635  14.460   8.967  0.0463 -0.0746  0.2337
  583ERGO    C1 8707  11.760  14.295   8.647 -0.1137 -0.0039  0.1306
  583ERGO    C2 8708  11.820  14.253   8.196  0.0950  0.2324 -0.1297
  584ERGO   ROH 8709  14.388   1.202   9.505 -0.1605 -0.0437 -0.0344
  584ERGO    R1 8710  14.513   1.252   9.256 -0.1271 -0.3016 -0.0739
  584ERGO    R2 8711  14.537   1.058   9.060 -0.6138 -0.3580 -0.0980
  584ERGO    R3 8712  14.414   1.246   8.906 -0.2655 -0.0726 -0.0398
  584ERGO    R4 8713  14.556   1.073   8.715 -0.4228 -0.1480 -0.0796
  584ERGO    R5 8714  14.571   1.290   8.730 -0.1143 -0.1797  0.0708
  584ERGO    C1 8715  14.452   1.258   8.370  0.0155  0.2423 -0.0144
  584ERGO    C2 8716  14.584   1.284   8.011  0.0826  0.0040  0.1339
  585ERGO   ROH 8717   0.225   2.081   6.340  0.2771 -0.0297  0.0450
  585ERGO    R1 8718   0.248   2.233   6.578  0.2259 -0.1189  0.1091
  585ERGO    R2 8719   0.040   2.384   6.678  0.2903  0.0811 -0.0381
  585ERGO    R3 8720   0.087   2.241   6.904 -0.0686 -0.0398 -0.0362
  585ERGO    R4 8721   0.023   2.511   6.999  0.4378  0.0797 -0.0301
  585ERGO    R5 8722   0.200   2.394   7.049  0.1913 -0.2803  0.0176
  585ERGO    C1 8723   0.057   2.451   7.398  0.1868 -0.0346 -0.0237
  585ERGO    C2 8724   0.005   2.605   7.746  0.1959  0.1928 -0.0593
  586ERGO   ROH 8725   4.558  17.690   5.902  0.2873  0.2449 -0.1510
  586ERGO    R1 8726   4.632  17.579   6.152  0.1155  0.1378 -0.1455
  586ERGO    R2 8727   4.842  17.678   6.302  0.2325 -0.1389 -0.1169
  586ERGO    R3 8728   4.653  17.695   6.496  0.2264  0.1024 -0.1409
  586ERGO    R4 8729   4.904  17.660   6.642  0.1681 -0.1518 -0.1059
  586ERGO    R5 8730   4.725  17.539   6.664  0.0325  0.0508 -0.1062
  586ERGO    C1 8731   4.763  17.665   7.022  0.1249  0.0674 -0.1220
  586ERGO    C2 8732   4.736  17.585   7.317  0.0613 -0.1324 -0.0554
  587ERGO   ROH 8733   9.247   3.421   5.855  0.0020  0.1293  0.0162
  587ERGO    R1 8734   9.326   3.654   5.994  0.0120  0.0643  0.1199
  587ERGO    R2 8735   9.211   3.901   5.947  0.1627  0.1270  0.0843
  587ERGO    R3 8736   9.168   3.896   6.215 -0.0347  0.0950  0.0539
  587ERGO    R4 8737   9.085   4.165   6.130  0.4212  0.2554  0.0828
  587ERGO    R5 8738   9.228   4.117   6.288  0.2427 -0.0132  0.1706
  587ERGO    C1 8739   8.971   4.315   6.489  0.3864  0.3002  0.0534
  587ERGO    C2 8740   8.997   4.509   6.835  0.0805  0.0649 -0.1197
  588ERGO   ROH 8741   0.126   0.636   9.796  0.1134 -0.2226  0.1004
  588ERGO    R1 8742   0.158   0.529   9.536  0.0940 -0.0286  0.0163
  588ERGO    R2 8743  -0.044   0.533   9.348  0.0440  0.0208  0.0660
  588ERGO    R3 8744   0.144   0.655   9.195 -0.0414  0.2074  0.1079
  588ERGO    R4 8745  -0.045   0.541   9.002  0.1243  0.0175  0.0657
  588ERGO    R5 8746   0.171   0.510   9.006  0.1517  0.2342  0.1164
  588ERGO    C1 8747   0.131   0.660   8.657  0.0908  0.1907  0.1048
  588ERGO    C2 8748   0.184   0.596   8.296 -0.1575 -0.2087 -0.1015
  589ERGO   ROH 8749   8.086   2.787   6.454 -0.0072 -0.1069  0.4139
  589ERGO    R1 8750   8.053   3.021   6.609  0.0803  0.1604  0.0428
  589ERGO    R2 8751   8.176   3.056   6.854 -0.3409  0.2574  0.2461
  589ERGO    R3 8752   8.267   3.285   6.740  0.2836 -0.0358  0.1142
  589ERGO    R4 8753   8.319   3.320   7.026 -0.2792  0.2535  0.2018
  589ERGO    R5 8754   8.211   3.457   6.896  0.2130  0.2719 -0.2313
  589ERGO    C1 8755   8.489   3.688   7.017  0.3430 -0.0240  0.0522
  589ERGO    C2 8756   8.550   4.026   7.275 -0.3045  0.4264  0.3460
  590ERGO   ROH 8757  17.046   2.670   6.097 -0.0237  0.1272 -0.0929
  590ERGO    R1 8758  16.961   2.610   6.361  0.0734  0.1558 -0.0547
  590ERGO    R2 8759  17.038   2.761   6.580  0.0771  0.2363 -0.1118
  590ERGO    R3 8760  16.769   2.778   6.621  0.0820  0.1425 -0.0395
  590ERGO    R4 8761  16.889   2.854   6.877  0.1259  0.1374 -0.0560
  590ERGO    R5 8762  16.739   2.699   6.845  0.1667  0.0933 -0.0437
  590ERGO    C1 8763  16.551   2.924   7.090  0.1590 -0.0083  0.0444
  590ERGO    C2 8764  16.300   3.101   7.335 -0.0616 -0.1432 -0.1280
  591ERGO   ROH 8765   6.974  17.940   9.556  0.0781 -0.0398 -0.1733
  591ERGO    R1 8766   7.109  18.006   9.317  0.0514  0.0542 -0.1636
  591ERGO    R2 8767   7.094  17.850   9.089  0.1791  0.0410 -0.1677
  591ERGO    R3 8768   7.015  18.082   8.973  0.0228 -0.0135 -0.1699
  591ERGO    R4 8769   7.118  17.920   8.752  0.0518  0.0257 -0.1795
  591ERGO    R5 8770   7.179  18.123   8.803 -0.0459  0.0615 -0.2157
  591ERGO    C1 8771   7.057  18.180   8.446 -0.1692 -0.0340 -0.1884
  591ERGO    C2 8772   7.053  18.151   8.171  0.0862 -0.0255  0.0533
  592ERGO   ROH 8773  16.017  14.170   9.139  0.1191  0.0458  0.0688
  592ERGO    R1 8774  16.083  14.267   8.882  0.1042 -0.0973  0.0107
  592ERGO    R2 8775  15.908  14.257   8.668 -0.0028  0.0225  0.0964
  592ERGO    R3 8776  15.959  14.524   8.655  0.2684 -0.0310 -0.0077
  592ERGO    R4 8777  15.851  14.455   8.391 -0.1023  0.0231  0.1165
  592ERGO    R5 8778  16.039  14.558   8.432  0.0604 -0.1652 -0.1094
  592ERGO    C1 8779  15.866  14.821   8.218  0.0944 -0.0266  0.0304
  592ERGO    C2 8780  15.541  14.925   8.103 -0.0748  0.1973  0.0810
  593ERGO   ROH 8781  16.849   0.207   9.176  0.0037  0.3180  0.0536
  593ERGO    R1 8782  16.795   0.146   8.905  0.1079 -0.1160  0.1216
  593ERGO    R2 8783  16.781   0.341   8.709 -0.4336 -0.3417 -0.0897
  593ERGO    R3 8784  16.966   0.184   8.587 -0.0345 -0.0036  0.0583
  593ERGO    R4 8785  16.818   0.308   8.367 -0.0538 -0.2524 -0.0618
  593ERGO    R5 8786  16.853   0.095   8.396  0.3013 -0.1947 -0.0563
  593ERGO    C1 8787  17.013   0.141   8.053  0.5423  0.1170  0.0936
  593ERGO    C2 8788  16.922   0.238   7.782  0.0362 -0.0424 -0.0471
  594ERGO   ROH 8789   2.515  13.887   5.811  0.1776 -0.0128 -0.0005
  594ERGO    R1 8790   2.582  13.820   6.078  0.1037  0.0055  0.0235
  594ERGO    R2 8791   2.482  13.958   6.295  0.0787  0.0506 -0.0138
  594ERGO    R3 8792   2.405  13.710   6.376  0.0131  0.0742 -0.0052
  594ERGO    R4 8793   2.470  13.852   6.624  0.2361  0.0017 -0.0233
  594ERGO    R5 8794   2.550  13.659   6.560  0.1048 -0.0245 -0.1049
  594ERGO    C1 8795   2.390  13.558   6.891  0.2662 -0.0047 -0.0208
  594ERGO    C2 8796   2.268  13.321   7.126 -0.2528  0.2062  0.2516
  595ERGO   ROH 8797  13.497  10.222   9.348 -0.0682 -0.0399 -0.0126
  595ERGO    R1 8798  13.404  10.120   9.101 -0.1437 -0.0160  0.0074
  595ERGO    R2 8799  13.193  10.236   8.962  0.0231  0.1836 -0.0659
  595ERGO    R3 8800  13.374  10.242   8.759  0.0619 -0.1044 -0.0472
  595ERGO    R4 8801  13.115  10.268   8.627  0.0815  0.2545 -0.0735
  595ERGO    R5 8802  13.269  10.122   8.581 -0.1110  0.0130 -0.0401
  595ERGO    C1 8803  13.239  10.293   8.242  0.1519  0.0255 -0.0605
  595ERGO    C2 8804  13.173  10.459   7.970  0.0722 -0.0170 -0.0673
  596ERGO   ROH 8805  14.495   2.857   5.705  0.0782  0.2391 -0.0461
  596ERGO    R1 8806  14.488   2.895   5.985  0.0073  0.2062 -0.0433
  596ERGO    R2 8807  14.494   2.685   6.165 -0.1122  0.1805 -0.0669
  596ERGO    R3 8808  14.704   2.822   6.268 -0.0988  0.1019  0.0113
  596ERGO    R4 8809  14.639   2.621   6.472 -0.1790  0.0611 -0.0592
  596ERGO    R5 8810  14.657   2.836   6.502 -0.1348  0.0464  0.0060
  596ERGO    C1 8811  14.922   2.713   6.748 -0.2052 -0.0821  0.0186
  596ERGO    C2 8812  15.164   2.818   7.038  0.1759  0.2453  0.1673
  597ERGO   ROH 8813  17.396  18.285   9.766  0.0801 -0.2078  0.0497
  597ERGO    R1 8814  17.417  18.181   9.504  0.1415 -0.2740  0.0788
  597ERGO    R2 8815  17.417  18.342   9.278 -0.0892 -0.3436  0.0144
  597ERGO    R3 8816  17.649  18.212   9.225  0.0500 -0.0994  0.0255
  597ERGO    R4 8817  17.589  18.358   8.979 -0.1014 -0.2211  0.0147
  597ERGO    R5 8818  17.630  18.145   8.996  0.1285 -0.1621  0.0473
  597ERGO    C1 8819  17.908  18.245   8.755  0.0221  0.0796  0.0254
  597ERGO    C2 8820  18.152  18.344   8.563  0.0408 -0.1143  0.0880
  598ERGO   ROH 8821   4.023  16.081   9.504 -0.3080  0.1573  0.0349
  598ERGO    R1 8822   4.119  16.231   9.284 -0.0813  0.0173  0.0340
  598ERGO    R2 8823   4.295  16.128   9.098 -0.0861 -0.1863  0.1371
  598ERGO    R3 8824   4.104  16.208   8.921  0.0562 -0.0694  0.0344
  598ERGO    R4 8825   4.341  16.154   8.756  0.1338 -0.1251  0.1699
  598ERGO    R5 8826   4.224  16.338   8.759  0.2068 -0.0809  0.1375
  598ERGO    C1 8827   4.189  16.244   8.391  0.3954  0.0202  0.0926
  598ERGO    C2 8828   4.185  16.322   8.065 -0.0446 -0.1033 -0.0508
  599ERGO   ROH 8829  17.574   4.892   9.152  0.2762 -0.0376 -0.1131
  599ERGO    R1 8830  17.641   4.988   8.895  0.1835 -0.1079 -0.1641
  599ERGO    R2 8831  17.725   4.822   8.690 -0.0486 -0.1864 -0.2009
  599ERGO    R3 8832  17.520   4.939   8.555 -0.0570 -0.0664 -0.0865
  599ERGO    R4 8833  17.704   4.846   8.346 -0.0956  0.0752 -0.1822
  599ERGO    R5 8834  17.626   5.048   8.369 -0.0750  0.0644 -0.0199
  599ERGO    C1 8835  17.499   4.969   8.018 -0.1309  0.3403 -0.0640
  599ERGO    C2 8836  17.388   5.118   7.668  0.2470 -0.0606 -0.1083
  600ERGO   ROH 8837   6.155   3.953   6.069  0.2755 -0.0469  0.0839
  600ERGO    R1 8838   6.027   3.980   6.320  0.1137 -0.0303  0.0013
  600ERGO    R2 8839   5.979   3.765   6.488  0.0575 -0.0126  0.0120
  600ERGO    R3 8840   6.112   3.919   6.669 -0.0863  0.0498  0.0652
  600ERGO    R4 8841   6.010   3.692   6.824 -0.1484  0.0711  0.0500
  600ERGO    R5 8842   5.980   3.903   6.868 -0.2122  0.0742 -0.0172
  600ERGO    C1 8843   6.152   3.793   7.190 -0.4033  0.1784  0.1221
  600ERGO    C2 8844   6.242   3.761   7.452 -0.0854  0.0905  0.0435
  601ERGO   ROH 8845  18.064  13.436   9.285 -0.0449  0.0416 -0.0666
  601ERGO    R1 8846  17.958  13.299   9.061  0.0355 -0.0194 -0.0657
  601ERGO    R2 8847  17.789  13.419   8.878  0.0209 -0.1002 -0.0980
  601ERGO    R3 8848  17.974  13.332   8.700  0.0724 -0.0557 -0.0689
  601ERGO    R4 8849  17.743  13.407   8.536  0.1788  0.1667 -0.1324
  601ERGO    R5 8850  17.847  13.216   8.534  0.0962  0.1171 -0.2162
  601ERGO    C1 8851  17.891  13.319   8.169  0.3191  0.3639 -0.1252
  601ERGO    C2 8852  17.632  13.410   8.011 -0.0593 -0.0801 -0.2081
  602ERGO   ROH 8853   3.975  13.230   5.986  0.2796  0.0802 -0.0014
  602ERGO    R1 8854   3.872  13.037   6.165  0.1320  0.0749 -0.0896
  602ERGO    R2 8855   4.031  12.896   6.341  0.0055 -0.0077 -0.0296
  602ERGO    R3 8856   3.857  12.993   6.526 -0.0621  0.0148 -0.1060
  602ERGO    R4 8857   3.926  12.726   6.623 -0.0693  0.0605 -0.0163
  602ERGO    R5 8858   3.726  12.803   6.589 -0.0605  0.0253 -0.0948
  602ERGO    C1 8859   3.701  12.716   6.960 -0.1763  0.1213 -0.0803
  602ERGO    C2 8860   3.546  12.559   7.218  0.1531 -0.1968  0.2010
  603ERGO   ROH 8861  10.273   2.315   9.132  0.4315 -0.1527 -0.0097
  603ERGO    R1 8862  10.177   2.195   8.895  0.3874 -0.1454  0.0060
  603ERGO    R2 8863  10.040   2.336   8.701  0.2376 -0.1699  0.1020
  603ERGO    R3 8864  10.231   2.235   8.537  0.2118 -0.0421 -0.0120
  603ERGO    R4 8865  10.035   2.355   8.356 -0.0525 -0.2794  0.0961
  603ERGO    R5 8866  10.110   2.150   8.349  0.1374 -0.2181  0.1061
  603ERGO    C1 8867  10.212   2.271   8.001 -0.2456 -0.2231 -0.0143
  603ERGO    C2 8868  10.205   2.229   7.644 -0.4799 -0.1100 -0.0386
  604ERGO   ROH 8869   7.942   1.150   6.032 -0.0588 -0.0776  0.0359
  604ERGO    R1 8870   7.922   1.119   6.313  0.1670 -0.1350  0.0479
  604ERGO    R2 8871   8.143   1.104   6.478  0.3022  0.2329 -0.0899
  604ERGO    R3 8872   8.020   1.309   6.608  0.0264  0.0176 -0.0018
  604ERGO    R4 8873   8.264   1.259   6.762  0.0699  0.2433  0.0054
  604ERGO    R5 8874   8.061   1.265   6.839  0.0480 -0.0496 -0.0182
  604ERGO    C1 8875   8.219   1.541   7.050 -0.3242  0.0474  0.1437
  604ERGO    C2 8876   8.436   1.711   7.231  0.0538 -0.0538  0.2549
  605ERGO   ROH 8877   7.525  13.461   9.241  0.3457 -0.2361  0.0725
  605ERGO    R1 8878   7.617  13.525   8.981  0.2146 -0.1767  0.0401
  605ERGO    R2 8879   7.807  13.374   8.849  0.2543 -0.0639 -0.0319
  605ERGO    R3 8880   7.617  13.366   8.654  0.1884 -0.1688  0.0359
  605ERGO    R4 8881   7.872  13.353   8.511  0.1487  0.0202 -0.0580
  605ERGO    R5 8882   7.710  13.495   8.475  0.0386 -0.0836  0.0167
  605ERGO    C1 8883   7.733  13.333   8.130  0.0252 -0.0293 -0.0097
  605ERGO    C2 8884   7.545  13.046   7.861  0.1748 -0.0219 -0.0332
  606ERGO   ROH 8885  11.021   3.778   5.938 -0.2116  0.2042  0.0340
  606ERGO    R1 8886  11.084   3.824   6.211 -0.3537 -0.1672  0.1370
  606ERGO    R2 8887  11.105   4.078   6.318  0.3524 -0.2709  0.3102
  606ERGO    R3 8888  10.923   3.982   6.496 -0.1744  0.1862  0.0461
  606ERGO    R4 8889  11.085   4.171   6.650  0.3847 -0.5265  0.3847
  606ERGO    R5 8890  11.044   3.964   6.701 -0.4127 -0.4590  0.1483
  606ERGO    C1 8891  10.902   4.136   7.010 -0.0912 -0.2462  0.1801
  606ERGO    C2 8892  10.921   4.104   7.227 -0.0582  0.1669 -0.1249
  607ERGO   ROH 8893  11.538  18.472   6.158  0.0818 -0.5185 -0.0411
  607ERGO    R1 8894  11.576  18.472   6.439  0.0905 -0.1740 -0.0386
  607ERGO    R2 8895  11.673  18.692   6.576  0.0719  0.0050 -0.3077
  607ERGO    R3 8896  11.446  18.659   6.723  0.0805  0.1593 -0.2564
  607ERGO    R4 8897  11.646  18.747   6.916  0.2263 -0.1152 -0.2743
  607ERGO    R5 8898  11.522  18.570   6.931  0.0586 -0.0049 -0.3159
  607ERGO    C1 8899  11.418  18.749   7.252  0.3243 -0.0401 -0.2068
  607ERGO    C2 8900  11.265  18.753   7.520  0.0537 -0.3497  0.1273
  608ERGO   ROH 8901   6.686  13.957   6.132 -0.0284  0.0149 -0.0173
  608ERGO    R1 8902   6.871  13.752   6.194 -0.0625  0.0028  0.0476
  608ERGO    R2 8903   6.984  13.725   6.444 -0.0570  0.0688  0.0568
  608ERGO    R3 8904   6.887  13.472   6.426 -0.1076  0.0823  0.1451
  608ERGO    R4 8905   7.073  13.465   6.654  0.0273  0.0719  0.0250
  608ERGO    R5 8906   7.074  13.333   6.480 -0.1019  0.0560  0.0417
  608ERGO    C1 8907   7.032  13.075   6.758  0.0290  0.0863  0.0894
  608ERGO    C2 8908   6.928  12.765   6.970  0.0254  0.5502  0.1034
  609ERGO   ROH 8909   1.886   3.987   9.472 -0.0750 -0.0826 -0.1703
  609ERGO    R1 8910   1.964   4.030   9.204 -0.1408 -0.0320 -0.1820
  609ERGO    R2 8911   1.852   3.893   8.992 -0.1609 -0.0257 -0.1774
  609ERGO    R3 8912   1.805   4.143   8.897 -0.2292 -0.0215 -0.1320
  609ERGO    R4 8913   1.763   3.966   8.666 -0.1689  0.0121 -0.1663
  609ERGO    R5 8914   1.894   4.140   8.675 -0.2201  0.0477 -0.1284
  609ERGO    C1 8915   1.666   4.244   8.387 -0.2377  0.0380 -0.1175
  609ERGO    C2 8916   1.350   4.181   8.077 -0.0574 -0.0740  0.0229
  610ERGO   ROH 8917   2.616  18.533   9.722  0.2391 -0.1822  0.2364
  610ERGO    R1 8918   2.645  18.543   9.441  0.0741  0.0422  0.2250
  610ERGO    R2 8919   2.820  18.379   9.304  0.1968  0.3447  0.0136
  610ERGO    R3 8920   2.598  18.314   9.162  0.2000  0.1729  0.0962
  610ERGO    R4 8921   2.807  18.344   8.960  0.1684  0.0099  0.0447
  610ERGO    R5 8922   2.614  18.444   8.962  0.1586 -0.0213 -0.0330
  610ERGO    C1 8923   2.591  18.263   8.627  0.1549 -0.3461  0.1404
  610ERGO    C2 8924   2.725  18.439   8.334 -0.0567  0.3122  0.0200
  611ERGO   ROH 8925   3.688  17.011   5.917  0.2372  0.0767  0.0280
  611ERGO    R1 8926   3.820  17.087   6.156  0.2805  0.0139  0.0242
  611ERGO    R2 8927   3.706  17.257   6.341  0.3264 -0.0131  0.0753
  611ERGO    R3 8928   3.760  17.053   6.513  0.3312 -0.0529  0.0273
  611ERGO    R4 8929   3.602  17.243   6.671  0.0656 -0.2294 -0.0118
  611ERGO    R5 8930   3.797  17.161   6.723  0.0851 -0.1161  0.1083
  611ERGO    C1 8931   3.594  17.044   7.024 -0.0817 -0.3923 -0.1077
  611ERGO    C2 8932   3.638  16.932   7.344  0.1362 -0.0812  0.0410
  612ERGO   ROH 8933   1.380  10.537   6.099  0.0238  0.1610  0.0228
  612ERGO    R1 8934   1.449  10.385   6.328  0.0928 -0.0218 -0.1112
  612ERGO    R2 8935   1.651  10.460   6.500  0.0438 -0.0561 -0.0002
  612ERGO    R3 8936   1.456  10.438   6.688  0.0145 -0.3488 -0.0652
  612ERGO    R4 8937   1.703  10.478   6.842 -0.1597  0.2056  0.0172
  612ERGO    R5 8938   1.559  10.316   6.867  0.1606 -0.0524  0.0349
  612ERGO    C1 8939   1.549  10.468   7.217 -0.3057  0.0831 -0.0338
  612ERGO    C2 8940   1.670  10.413   7.607  0.2854  0.2277 -0.0577
  613ERGO   ROH 8941   8.801   2.850   9.364 -0.1082 -0.1432 -0.0069
  613ERGO    R1 8942   8.832   2.723   9.113 -0.0872  0.0331 -0.0950
  613ERGO    R2 8943   8.778   2.455   9.074  0.2248 -0.0183 -0.2113
  613ERGO    R3 8944   8.617   2.549   8.876 -0.0045 -0.1044 -0.0692
  613ERGO    R4 8945   8.683   2.275   8.794  0.1063 -0.0495 -0.1515
  613ERGO    R5 8946   8.709   2.456   8.675 -0.1128 -0.0216 -0.1561
  613ERGO    C1 8947   8.477   2.260   8.445 -0.1779 -0.1485  0.0166
  613ERGO    C2 8948   8.406   2.081   8.252 -0.0645 -0.0209 -0.0077
  614ERGO   ROH 8949   0.550   2.541   7.271  0.1065 -0.0739  0.0002
  614ERGO    R1 8950   0.499   2.512   7.548  0.1446 -0.0011  0.0157
  614ERGO    R2 8951   0.683   2.579   7.741  0.1144  0.1956 -0.0211
  614ERGO    R3 8952   0.479   2.730   7.838  0.0210  0.0995 -0.0674
  614ERGO    R4 8953   0.629   2.648   8.076 -0.0872  0.0365 -0.0198
  614ERGO    R5 8954   0.415   2.621   8.041 -0.0622 -0.0059 -0.1486
  614ERGO    C1 8955   0.405   2.829   8.361 -0.2923 -0.1464 -0.0625
  614ERGO    C2 8956   0.468   2.923   8.735  0.3028 -0.1767 -0.0915
  615ERGO   ROH 8957  14.043  10.997   9.386 -0.1031 -0.2231 -0.0733
  615ERGO    R1 8958  13.987  10.934   9.116 -0.0199 -0.2280 -0.0922
  615ERGO    R2 8959  14.040  11.108   8.907 -0.1124 -0.1540 -0.0707
  615ERGO    R3 8960  14.177  10.895   8.808  0.0582 -0.0468 -0.0640
  615ERGO    R4 8961  14.094  11.046   8.572 -0.1345 -0.1912 -0.0658
  615ERGO    R5 8962  14.058  10.835   8.609  0.0741 -0.2062 -0.0151
  615ERGO    C1 8963  14.253  10.810   8.283  0.0128 -0.1122 -0.0567
  615ERGO    C2 8964  14.271  10.603   8.065 -0.1360 -0.3941 -0.1011
  616ERGO   ROH 8965  17.692   2.803   9.312 -0.1507 -0.2000 -0.1937
  616ERGO    R1 8966  17.754   2.673   9.069 -0.1751 -0.1549 -0.2252
  616ERGO    R2 8967  17.587   2.683   8.848 -0.1106  0.0462 -0.2739
  616ERGO    R3 8968  17.812   2.773   8.723 -0.0085 -0.0634 -0.1702
  616ERGO    R4 8969  17.624   2.719   8.506  0.0478  0.1154 -0.2502
  616ERGO    R5 8970  17.826   2.642   8.524 -0.0129 -0.0149 -0.1965
  616ERGO    C1 8971  17.855   2.824   8.190  0.2358  0.0528 -0.1391
  616ERGO    C2 8972  17.906   2.918   7.964 -0.1803  0.0910  0.2515
  617ERGO   ROH 8973   2.354   0.569   9.847  0.2149  0.0902  0.0862
  617ERGO    R1 8974   2.302   0.537   9.570  0.0615  0.1040  0.1114
  617ERGO    R2 8975   2.403   0.710   9.379 -0.0424  0.1159  0.0611
  617ERGO    R3 8976   2.499   0.481   9.269 -0.1024  0.1196  0.0015
  617ERGO    R4 8977   2.534   0.685   9.061  0.1252  0.1977  0.1232
  617ERGO    R5 8978   2.433   0.493   9.039  0.0364  0.2655 -0.0296
  617ERGO    C1 8979   2.702   0.455   8.772  0.1664  0.2488  0.1033
  617ERGO    C2 8980   2.982   0.422   8.505  0.0493 -0.2055  0.0836
  618ERGO   ROH 8981   0.165   6.403   6.149  0.2153  0.0367  0.0641
  618ERGO    R1 8982   0.201   6.323   6.418  0.2432 -0.0829  0.0251
  618ERGO    R2 8983   0.442   6.225   6.512  0.3441  0.1650  0.0265
  618ERGO    R3 8984   0.413   6.423   6.696  0.0423  0.0173  0.1453
  618ERGO    R4 8985   0.558   6.211   6.838  0.3773  0.1436  0.0139
  618ERGO    R5 8986   0.373   6.308   6.902  0.2225 -0.1739  0.0790
  618ERGO    C1 8987   0.598   6.388   7.200  0.1133 -0.0076  0.1180
  618ERGO    C2 8988   0.749   6.541   7.454 -0.3693 -0.0502 -0.2301
  619ERGO   ROH 8989  15.116   3.500   9.302 -0.0010 -0.1584  0.0274
  619ERGO    R1 8990  14.950   3.601   9.097 -0.0210 -0.1728  0.0366
  619ERGO    R2 8991  14.967   3.861   9.005 -0.1187 -0.1405  0.1072
  619ERGO    R3 8992  14.996   3.740   8.764 -0.0426 -0.0659  0.0781
  619ERGO    R4 8993  14.935   4.018   8.699 -0.0372 -0.0508  0.1442
  619ERGO    R5 8994  14.831   3.843   8.625 -0.0068 -0.0330  0.0607
  619ERGO    C1 8995  14.943   3.996   8.294  0.0816  0.0715  0.1385
  619ERGO    C2 8996  14.921   3.917   8.017  0.1807  0.5538 -0.1486
  620ERGO   ROH 8997  16.026  11.485   5.950  0.0872  0.3949  0.0971
  620ERGO    R1 8998  16.027  11.472   6.232 -0.1705  0.1602  0.0924
  620ERGO    R2 8999  15.831  11.341   6.377 -0.1039 -0.2978 -0.2064
  620ERGO    R3 9000  16.043  11.210   6.484  0.0176 -0.0345 -0.1183
  620ERGO    R4 9001  15.820  11.149   6.663 -0.0128 -0.4239 -0.2871
  620ERGO    R5 9002  16.013  11.231   6.721 -0.1672 -0.1666 -0.1300
  620ERGO    C1 9003  16.013  10.913   6.931  0.1542 -0.2501 -0.2514
  620ERGO    C2 9004  16.014  10.561   7.083  0.1014  0.1222 -0.0563
  621ERGO   ROH 9005  16.023  12.223   9.578  0.0915  0.2908 -0.2911
  621ERGO    R1 9006  16.133  12.175   9.322  0.1039  0.3143 -0.2905
  621ERGO    R2 9007  15.979  12.094   9.107  0.1570  0.0407 -0.2326
  621ERGO    R3 9008  16.091  12.311   8.987 -0.1200  0.1296 -0.3400
  621ERGO    R4 9009  16.125  12.093   8.794 -0.0897  0.1485 -0.3513
  621ERGO    R5 9010  16.282  12.223   8.872 -0.1357  0.2853 -0.4868
  621ERGO    C1 9011  16.316  12.295   8.499 -0.4933  0.2945 -0.5212
  621ERGO    C2 9012  16.251  12.389   8.165  0.4075 -0.0028 -0.0157
  622ERGO   ROH 9013  13.748   7.181   8.880  0.0458  0.1068  0.0343
  622ERGO    R1 9014  13.714   7.030   8.642  0.0292  0.1626  0.0006
  622ERGO    R2 9015  13.590   7.132   8.418 -0.0296  0.2011  0.0464
  622ERGO    R3 9016  13.821   7.057   8.295 -0.0363  0.2732 -0.0104
  622ERGO    R4 9017  13.626   7.087   8.077 -0.1627 -0.0399  0.0625
  622ERGO    R5 9018  13.749   6.911   8.119 -0.0161  0.0834  0.1388
  622ERGO    C1 9019  13.864   6.989   7.764 -0.2467 -0.1125  0.0184
  622ERGO    C2 9020  14.035   6.959   7.485  0.0879  0.0658 -0.1870
  623ERGO   ROH 9021   9.803   5.954   5.480  0.1368  0.1740 -0.1715
  623ERGO    R1 9022   9.707   6.125   5.684  0.2057  0.1831 -0.1479
  623ERGO    R2 9023   9.824   6.138   5.934  0.1915  0.0797 -0.1421
  623ERGO    R3 9024   9.838   6.404   5.878  0.3240  0.0864 -0.0840
  623ERGO    R4 9025   9.818   6.391   6.170  0.1193  0.0285 -0.0878
  623ERGO    R5 9026   9.691   6.506   6.036  0.2463  0.1028 -0.1584
  623ERGO    C1 9027   9.828   6.787   6.255  0.2017  0.0051 -0.0017
  623ERGO    C2 9028  10.063   6.888   6.381 -0.1128 -0.4591 -0.0235
  624ERGO   ROH 9029   5.356   4.776   9.255  0.4956  0.3738 -0.1082
  624ERGO    R1 9030   5.225   4.799   9.005  0.2508  0.2206  0.0027
  624ERGO    R2 9031   5.360   4.857   8.771  0.0172  0.1211 -0.1582
  624ERGO    R3 9032   5.240   4.630   8.683 -0.0326  0.0546  0.0721
  624ERGO    R4 9033   5.306   4.779   8.439 -0.1853 -0.1054 -0.0749
  624ERGO    R5 9034   5.110   4.701   8.495 -0.1521 -0.0753  0.1015
  624ERGO    C1 9035   5.161   4.520   8.163 -0.3498 -0.2998  0.1898
  624ERGO    C2 9036   5.222   4.555   7.774 -0.3443 -0.5125 -0.1169
  625ERGO   ROH 9037  11.150   9.255   9.271  0.0627  0.3081  0.0847
  625ERGO    R1 9038  11.081   9.175   9.009  0.2063  0.0050  0.1373
  625ERGO    R2 9039  10.871   9.287   8.869  0.1274 -0.3361 -0.0092
  625ERGO    R3 9040  11.062   9.332   8.681  0.1191 -0.3054 -0.0135
  625ERGO    R4 9041  10.809   9.380   8.541  0.0910 -0.3068  0.0041
  625ERGO    R5 9042  10.969   9.246   8.478  0.1040 -0.2974 -0.0190
  625ERGO    C1 9043  10.954   9.476   8.175  0.0619 -0.2608  0.0079
  625ERGO    C2 9044  11.092   9.516   7.859 -0.1437 -0.1672  0.2094
  626ERGO   ROH 9045   8.977  15.931   6.919 -0.0224  0.1443  0.0362
  626ERGO    R1 9046   9.176  16.087   7.047  0.0623  0.0520  0.0186
  626ERGO    R2 9047   9.157  16.166   7.311  0.1004  0.1014  0.0078
  626ERGO    R3 9048   9.400  16.047   7.331  0.0339 -0.0333  0.0294
  626ERGO    R4 9049   9.385  16.223   7.564  0.1022 -0.0381  0.0379
  626ERGO    R5 9050   9.544  16.219   7.415  0.1179 -0.1162  0.0563
  626ERGO    C1 9051   9.747  16.145   7.729  0.0408 -0.2458  0.0757
  626ERGO    C2 9052  10.061  16.250   7.853  0.2262 -0.0249 -0.0457
  627ERGO   ROH 9053  15.921  10.704   9.306  0.3726  0.0760 -0.1147
  627ERGO    R1 9054  15.753  10.798   9.098  0.2574  0.0547 -0.0346
  627ERGO    R2 9055  15.852  10.889   8.856  0.1229 -0.0344 -0.1309
  627ERGO    R3 9056  15.681  10.704   8.753  0.0156 -0.0288  0.0375
  627ERGO    R4 9057  15.749  10.878   8.527  0.0385 -0.2153 -0.0983
  627ERGO    R5 9058  15.548  10.827   8.597  0.0342 -0.0781 -0.0144
  627ERGO    C1 9059  15.528  10.699   8.238 -0.1113 -0.3156  0.0789
  627ERGO    C2 9060  15.561  10.605   7.909 -0.1514 -0.1308  0.3888
  628ERGO   ROH 9061  18.673   5.025   9.032 -0.0818  0.0628  0.0016
  628ERGO    R1 9062  18.585   5.116   8.779 -0.0933 -0.0213 -0.0254
  628ERGO    R2 9063  18.739   5.279   8.617 -0.1827  0.0959  0.0023
  628ERGO    R3 9064  18.695   5.083   8.434  0.0194  0.0473  0.0043
  628ERGO    R4 9065  18.793   5.311   8.277 -0.1954  0.1390  0.0048
  628ERGO    R5 9066  18.609   5.199   8.242 -0.0837 -0.0423 -0.0030
  628ERGO    C1 9067  18.784   5.146   7.907 -0.0131  0.1184  0.0080
  628ERGO    C2 9068  19.013   5.264   7.719 -0.1575 -0.0626 -0.2934
  629ERGO   ROH 9069   5.008   1.622   6.037  0.1971 -0.1548 -0.0264
  629ERGO    R1 9070   4.847   1.574   6.265  0.1294 -0.1713 -0.0769
  629ERGO    R2 9071   4.933   1.422   6.479  0.1089 -0.0962 -0.0121
  629ERGO    R3 9072   4.866   1.643   6.622 -0.0298 -0.0915 -0.0834
  629ERGO    R4 9073   4.795   1.418   6.796  0.1862 -0.0769  0.0217
  629ERGO    R5 9074   4.664   1.582   6.735  0.0449 -0.2026 -0.0121
  629ERGO    C1 9075   4.652   1.623   7.115  0.1010 -0.0612 -0.0255
  629ERGO    C2 9076   4.503   1.263   7.141 -0.0274  0.2662 -0.1673
  630ERGO   ROH 9077  14.415  11.374   9.245  0.0009 -0.1275 -0.0315
  630ERGO    R1 9078  14.444  11.278   8.981  0.0303 -0.0478 -0.0576
  630ERGO    R2 9079  14.361  11.421   8.760  0.0502  0.0167 -0.0235
  630ERGO    R3 9080  14.618  11.383   8.679  0.0597  0.0464 -0.0081
  630ERGO    R4 9081  14.470  11.447   8.433  0.0717  0.0460 -0.0143
  630ERGO    R5 9082  14.596  11.273   8.467  0.0860  0.0567 -0.0158
  630ERGO    C1 9083  14.774  11.426   8.166  0.0929  0.0910  0.0056
  630ERGO    C2 9084  14.686  11.417   7.832 -0.5406 -0.0896  0.3060
  631ERGO   ROH 9085   3.215   7.239   5.860  0.0263 -0.2188  0.1347
  631ERGO    R1 9086   3.191   7.369   6.110 -0.1886 -0.1125  0.0643
  631ERGO    R2 9087   2.947   7.413   6.233 -0.2894 -0.2622 -0.0491
  631ERGO    R3 9088   3.065   7.285   6.441 -0.2503 -0.0664  0.0485
  631ERGO    R4 9089   2.839   7.426   6.560 -0.3657 -0.1832 -0.0793
  631ERGO    R5 9090   3.047   7.437   6.624 -0.4023  0.0001 -0.0339
  631ERGO    C1 9091   2.887   7.313   6.947 -0.3736  0.0465 -0.0053
  631ERGO    C2 9092   2.580   7.217   7.074 -0.3224 -0.2674  0.1327
  632ERGO   ROH 9093  12.775  16.953   9.004 -0.1568 -0.0750  0.0598
  632ERGO    R1 9094  12.713  16.771   8.796  0.2273  0.0078 -0.1354
  632ERGO    R2 9095  12.485  16.793   8.642  0.1263 -0.3548 -0.0385
  632ERGO    R3 9096  12.663  16.787   8.436  0.0960  0.3087 -0.1089
  632ERGO    R4 9097  12.404  16.833   8.308 -0.1151 -0.3442  0.0194
  632ERGO    R5 9098  12.546  16.676   8.259  0.3431  0.0841 -0.1451
  632ERGO    C1 9099  12.523  16.851   7.921 -0.2840  0.2849 -0.0132
  632ERGO    C2 9100  12.362  16.979   7.625 -0.4327  0.4376  0.2175
  633ERGO   ROH 9101  11.858   6.135   5.838  0.3152 -0.2375 -0.1346
  633ERGO    R1 9102  11.890   6.249   6.095  0.2149 -0.2485 -0.1172
  633ERGO    R2 9103  12.025   6.122   6.298  0.3584 -0.1469 -0.1487
  633ERGO    R3 9104  12.168   6.353   6.306  0.1248 -0.0005 -0.1168
  633ERGO    R4 9105  12.229   6.219   6.560  0.4488 -0.0932 -0.2382
  633ERGO    R5 9106  12.155   6.423   6.535  0.2167 -0.1512 -0.0638
  633ERGO    C1 9107  12.482   6.493   6.719  0.2821  0.0755 -0.2604
  633ERGO    C2 9108  12.597   6.479   7.048  0.0671 -0.0598  0.0148
  634ERGO   ROH 9109  10.733   6.431   8.771 -0.2488 -0.2961 -0.0005
  634ERGO    R1 9110  10.838   6.518   8.523 -0.0715 -0.0976  0.1404
  634ERGO    R2 9111  10.974   6.348   8.351  0.0571  0.0401  0.1034
  634ERGO    R3 9112  10.789   6.435   8.172  0.1830  0.1749  0.0370
  634ERGO    R4 9113  10.965   6.260   8.017 -0.0220 -0.1364  0.1509
  634ERGO    R5 9114  10.912   6.465   7.969  0.2426 -0.0939  0.0304
  634ERGO    C1 9115  10.787   6.290   7.654  0.0503 -0.1127  0.1162
  634ERGO    C2 9116  10.701   6.217   7.291  0.0222  0.1184 -0.3912
  635ERGO   ROH 9117  11.766  17.472   6.309  0.2274  0.3228 -0.0682
  635ERGO    R1 9118  11.685  17.391   6.567  0.0358  0.1341 -0.1839
  635ERGO    R2 9119  11.810  17.479   6.797  0.0559 -0.2566 -0.0342
  635ERGO    R3 9120  11.558  17.553   6.868  0.1112 -0.0394 -0.0576
  635ERGO    R4 9121  11.714  17.575   7.115  0.0936 -0.2160 -0.0352
  635ERGO    R5 9122  11.529  17.463   7.087 -0.0028 -0.0447 -0.0767
  635ERGO    C1 9123  11.421  17.700   7.366  0.1675  0.0114 -0.0577
  635ERGO    C2 9124  11.565  17.799   7.713  0.1321  0.1319 -0.3255
  636ERGO   ROH 9125   0.339  14.772   9.258 -0.1925 -0.3217  0.0173
  636ERGO    R1 9126   0.381  14.929   9.025 -0.1717 -0.1294  0.1480
  636ERGO    R2 9127   0.527  14.837   8.809  0.0575  0.1393  0.1797
  636ERGO    R3 9128   0.302  14.903   8.671  0.0879  0.0313  0.0762
  636ERGO    R4 9129   0.518  15.037   8.527  0.1158 -0.1113 -0.0032
  636ERGO    R5 9130   0.337  15.130   8.604  0.1094 -0.0319 -0.1220
  636ERGO    C1 9131   0.302  15.215   8.233  0.1784 -0.3586 -0.2068
  636ERGO    C2 9132   0.209  15.203   7.919  0.1113  0.2832 -0.0291
  637ERGO   ROH 9133   8.832  10.718   6.205 -0.2278 -0.0551  0.0174
  637ERGO    R1 9134   8.850  10.583   6.453 -0.3075 -0.0490  0.0268
  637ERGO    R2 9135   8.966  10.697   6.676 -0.0199 -0.1877 -0.0457
  637ERGO    R3 9136   8.728  10.634   6.792 -0.0631  0.1878  0.0827
  637ERGO    R4 9137   8.928  10.489   6.950 -0.1902  0.0353  0.1041
  637ERGO    R5 9138   8.751  10.404   6.854 -0.3339  0.1951  0.2234
  637ERGO    C1 9139   8.682  10.309   7.217 -0.3300  0.5175  0.3119
  637ERGO    C2 9140   8.890  10.373   7.450  0.0985 -0.2402  0.0993
  638ERGO   ROH 9141  16.654   3.509   9.242 -0.0245 -0.2404 -0.1460
  638ERGO    R1 9142  16.575   3.407   8.990 -0.0080 -0.1758 -0.1790
  638ERGO    R2 9143  16.401   3.541   8.822  0.0044 -0.1287 -0.1616
  638ERGO    R3 9144  16.602   3.511   8.642  0.0204 -0.0860 -0.1492
  638ERGO    R4 9145  16.371   3.593   8.482  0.0165 -0.1405 -0.1634
  638ERGO    R5 9146  16.496   3.417   8.449  0.0556 -0.1104 -0.1537
  638ERGO    C1 9147  16.543   3.595   8.115  0.0385 -0.1072 -0.1526
  638ERGO    C2 9148  16.607   3.575   7.710 -0.1849  0.0997  0.1326
  639ERGO   ROH 9149  15.038  13.076   9.544  0.0850 -0.0183  0.0188
  639ERGO    R1 9150  15.015  13.224   9.303  0.1778  0.0381  0.0424
  639ERGO    R2 9151  15.234  13.289   9.148  0.2276 -0.0534  0.0594
  639ERGO    R3 9152  15.089  13.169   8.951  0.1661  0.0543  0.0399
  639ERGO    R4 9153  15.309  13.305   8.811  0.3476 -0.2210  0.0779
  639ERGO    R5 9154  15.096  13.326   8.770  0.3897 -0.0033  0.0031
  639ERGO    C1 9155  15.218  13.202   8.430  0.3598 -0.2174  0.0703
  639ERGO    C2 9156  15.235  13.233   8.140  0.1244 -0.1629  0.2966
  640ERGO   ROH 9157  14.158  15.088   9.289 -0.0676 -0.2211  0.2179
  640ERGO    R1 9158  14.216  14.970   9.038  0.0033 -0.1603  0.2062
  640ERGO    R2 9159  14.115  14.725   8.962 -0.0657 -0.0891  0.0743
  640ERGO    R3 9160  14.028  14.864   8.745  0.1001  0.0208  0.0757
  640ERGO    R4 9161  13.995  14.582   8.671 -0.4414  0.0492  0.1542
  640ERGO    R5 9162  14.102  14.735   8.558 -0.2029 -0.1666  0.0753
  640ERGO    C1 9163  13.844  14.630   8.298 -0.5045  0.2328  0.2018
  640ERGO    C2 9164  13.712  14.649   8.039 -0.0318 -0.0186  0.0377
  641ERGO   ROH 9165   5.760   9.924   9.532  0.1973 -0.2633  0.0795
  641ERGO    R1 9166   5.699   9.815   9.278  0.0818 -0.2244  0.0900
  641ERGO    R2 9167   5.630   9.972   9.062  0.0260 -0.1884  0.1326
  641ERGO    R3 9168   5.834   9.838   8.941 -0.0424 -0.2099  0.0407
  641ERGO    R4 9169   5.684   9.959   8.720 -0.0111 -0.0227  0.1201
  641ERGO    R5 9170   5.736   9.749   8.741 -0.0993 -0.0578 -0.0005
  641ERGO    C1 9171   5.905   9.826   8.408 -0.0970  0.0537  0.0267
  641ERGO    C2 9172   5.991   9.967   8.058 -0.3303 -0.1247 -0.1109
  642ERGO   ROH 9173   3.687   6.704   6.111  0.2223  0.1858 -0.0595
  642ERGO    R1 9174   3.914   6.647   6.270  0.1078 -0.0785  0.0140
  642ERGO    R2 9175   3.985   6.800   6.489  0.2844 -0.0832 -0.0392
  642ERGO    R3 9176   3.979   6.561   6.618 -0.0940 -0.0226  0.0667
  642ERGO    R4 9177   4.091   6.748   6.814  0.2761 -0.1197 -0.0422
  642ERGO    R5 9178   4.178   6.559   6.750 -0.0592 -0.3046  0.0171
  642ERGO    C1 9179   4.146   6.493   7.125 -0.0839 -0.0841  0.0555
  642ERGO    C2 9180   4.383   6.403   7.362  0.0015  0.2056  0.0568
  643ERGO   ROH 9181   7.804   5.819   8.984  0.0433 -0.1281 -0.0138
  643ERGO    R1 9182   7.757   5.895   8.716  0.1930 -0.0514 -0.0196
  643ERGO    R2 9183   7.957   5.988   8.549  0.3583 -0.3458  0.0107
  643ERGO    R3 9184   7.869   5.788   8.387  0.0819 -0.2172 -0.0055
  643ERGO    R4 9185   7.846   6.032   8.225  0.4548 -0.1682  0.0003
  643ERGO    R5 9186   7.688   5.886   8.264  0.2331  0.0560 -0.0212
  643ERGO    C1 9187   7.699   5.870   7.883  0.2515  0.0558 -0.0211
  643ERGO    C2 9188   7.669   6.130   7.690 -0.3817 -0.1697  0.0543
  644ERGO   ROH 9189  17.819   0.245   9.571  0.0119 -0.2684 -0.1507
  644ERGO    R1 9190  17.953   0.327   9.336  0.0532 -0.2013 -0.1034
  644ERGO    R2 9191  18.082   0.149   9.168  0.0019 -0.1632 -0.1769
  644ERGO    R3 9192  17.923   0.262   8.979  0.0548 -0.0205 -0.1385
  644ERGO    R4 9193  18.172   0.199   8.839 -0.0482 -0.3117 -0.2145
  644ERGO    R5 9194  18.073   0.393   8.846  0.1575 -0.1980 -0.2073
  644ERGO    C1 9195  18.076   0.334   8.469 -0.0273 -0.2642 -0.2004
  644ERGO    C2 9196  18.177   0.265   8.232 -0.2388  0.1019 -0.0290
  645ERGO   ROH 9197   8.603  11.548   9.523  0.0685 -0.1219 -0.1910
  645ERGO    R1 9198   8.351  11.535   9.394  0.1274 -0.0625 -0.3138
  645ERGO    R2 9199   8.307  11.386   9.166  0.1131 -0.3611 -0.1203
  645ERGO    R3 9200   8.107  11.277   9.314 -0.0821  0.0525 -0.0652
  645ERGO    R4 9201   8.071  11.164   9.046  0.1307 -0.5172  0.1271
  645ERGO    R5 9202   7.921  11.268   9.164  0.0583 -0.1808 -0.2350
  645ERGO    C1 9203   7.746  10.933   9.115 -0.0424 -0.2199  0.3228
  645ERGO    C2 9204   7.649  10.609   9.048 -0.0495  0.1081  0.0231
  646ERGO   ROH 9205  11.968   9.058   5.769  0.3008 -0.0778  0.0877
  646ERGO    R1 9206  11.988   9.056   6.051  0.0762  0.1018  0.1093
  646ERGO    R2 9207  11.807   9.187   6.214 -0.1447  0.0903 -0.1057
  646ERGO    R3 9208  11.784   8.942   6.330 -0.0812  0.1380  0.0066
  646ERGO    R4 9209  11.797   9.131   6.555 -0.2430  0.2313 -0.0854
  646ERGO    R5 9210  11.924   8.956   6.525 -0.1640  0.2788  0.0473
  646ERGO    C1 9211  11.769   8.869   6.863 -0.2407  0.3581  0.0320
  646ERGO    C2 9212  11.716   8.815   7.354 -0.0509  0.2600 -0.1097
  647ERGO   ROH 9213   3.349  13.461   8.602 -0.2148 -0.1274  0.0545
  647ERGO    R1 9214   3.435  13.548   8.347 -0.2024 -0.0132  0.0972
  647ERGO    R2 9215   3.476  13.374   8.136  0.0456  0.0502  0.0907
  647ERGO    R3 9216   3.304  13.540   8.007 -0.0688 -0.0994  0.0470
  647ERGO    R4 9217   3.398  13.355   7.800  0.2951  0.0967  0.0283
  647ERGO    R5 9218   3.404  13.573   7.791  0.0407  0.1108  0.1261
  647ERGO    C1 9219   3.192  13.500   7.483  0.3329 -0.0164 -0.0491
  647ERGO    C2 9220   3.226  13.490   7.062  0.3203 -0.1499 -0.3953
  648ERGO   ROH 9221   8.537   0.453   9.490  0.1704  0.0481  0.2560
  648ERGO    R1 9222   8.671   0.541   9.257 -0.0227  0.0612  0.1495
  648ERGO    R2 9223   8.656   0.407   9.017 -0.0032 -0.0768  0.2333
  648ERGO    R3 9224   8.578   0.650   8.923 -0.2801 -0.1988  0.1308
  648ERGO    R4 9225   8.769   0.551   8.723 -0.2068 -0.1021  0.1385
  648ERGO    R5 9226   8.777   0.743   8.826 -0.3876 -0.0365  0.0478
  648ERGO    C1 9227   8.761   0.862   8.464 -0.5852 -0.2314 -0.0131
  648ERGO    C2 9228   8.909   0.897   8.178 -0.1963  0.3605 -0.1045
  649ERGO   ROH 9229  13.076   8.383   9.157 -0.1815  0.3700 -0.1716
  649ERGO    R1 9230  12.957   8.390   8.901 -0.0357  0.2690 -0.2446
  649ERGO    R2 9231  13.100   8.445   8.671  0.1247  0.0346 -0.2064
  649ERGO    R3 9232  12.993   8.210   8.587  0.0376  0.0378 -0.1056
  649ERGO    R4 9233  13.137   8.314   8.353 -0.0606 -0.0378 -0.1987
  649ERGO    R5 9234  12.928   8.253   8.360 -0.0681  0.0030 -0.0813
  649ERGO    C1 9235  13.058   8.018   8.089 -0.2501 -0.0767 -0.0999
  649ERGO    C2 9236  13.294   7.959   7.756  0.1851  0.0712 -0.2788
  650ERGO   ROH 9237  17.636  11.393   9.131 -0.1636 -0.2267  0.0062
  650ERGO    R1 9238  17.648  11.353   8.851 -0.1338 -0.2438  0.0094
  650ERGO    R2 9239  17.434  11.260   8.704 -0.1537 -0.1514 -0.0249
  650ERGO    R3 9240  17.478  11.485   8.557 -0.0238 -0.1761 -0.0236
  650ERGO    R4 9241  17.401  11.281   8.361 -0.0531 -0.1480 -0.0343
  650ERGO    R5 9242  17.581  11.405   8.356 -0.0037 -0.2226  0.0075
  650ERGO    C1 9243  17.424  11.504   8.023  0.1275 -0.1690 -0.0386
  650ERGO    C2 9244  17.360  11.616   7.787 -0.1351 -0.1345 -0.0142
  651ERGO   ROH 9245  11.282  18.043   9.333 -0.0143 -0.0142 -0.0080
  651ERGO    R1 9246  11.032  18.026   9.202 -0.0581 -0.0294  0.0773
  651ERGO    R2 9247  10.801  18.138   9.307  0.0112  0.1338  0.0573
  651ERGO    R3 9248  10.789  18.259   9.064 -0.0161 -0.0517 -0.0361
  651ERGO    R4 9249  10.521  18.150   9.104 -0.0700  0.1403  0.1692
  651ERGO    R5 9250  10.650  18.117   8.932 -0.1612 -0.0757  0.1370
  651ERGO    C1 9251  10.348  18.271   8.758 -0.1432 -0.0298  0.1467
  651ERGO    C2 9252  10.207  18.365   8.442 -0.0079 -0.0374  0.2599
  652ERGO   ROH 9253   4.418   2.950   9.284 -0.2488  0.1074  0.0213
  652ERGO    R1 9254   4.395   2.951   9.002 -0.1386  0.1332  0.0121
  652ERGO    R2 9255   4.528   3.133   8.842  0.1022  0.0067  0.0647
  652ERGO    R3 9256   4.619   2.908   8.718 -0.0673 -0.0823  0.0987
  652ERGO    R4 9257   4.624   3.115   8.510  0.0501 -0.1274  0.0561
  652ERGO    R5 9258   4.527   2.920   8.497 -0.0862 -0.0636  0.1076
  652ERGO    C1 9259   4.765   2.893   8.201 -0.1394 -0.2891  0.0830
  652ERGO    C2 9260   4.813   2.758   7.950  0.1125  0.0213  0.1478
  653ERGO   ROH 9261   7.820   4.781   9.499  0.0442  0.2260  0.0105
  653ERGO    R1 9262   7.960   4.776   9.253 -0.0311  0.0978 -0.0307
  653ERGO    R2 9263   7.857   4.659   9.026 -0.2075  0.1958 -0.0003
  653ERGO    R3 9264   7.907   4.902   8.916 -0.0113  0.1511 -0.0149
  653ERGO    R4 9265   7.839   4.730   8.688 -0.4060  0.2428  0.0189
  653ERGO    R5 9266   8.019   4.853   8.710 -0.2377  0.0337 -0.1155
  653ERGO    C1 9267   7.876   5.001   8.389 -0.3373  0.2281  0.0165
  653ERGO    C2 9268   7.877   4.968   8.000  0.3973  0.0301 -0.1540
  654ERGO   ROH 9269  11.021   5.184   9.209 -0.0782 -0.1808 -0.0292
  654ERGO    R1 9270  11.045   5.107   8.938 -0.0710 -0.0972 -0.0538
  654ERGO    R2 9271  10.842   5.145   8.754 -0.0883 -0.0858 -0.0392
  654ERGO    R3 9272  11.037   5.272   8.614 -0.1180 -0.0021 -0.0032
  654ERGO    R4 9273  10.846   5.183   8.410 -0.0037 -0.1391 -0.0438
  654ERGO    R5 9274  11.060   5.144   8.413  0.0143 -0.0195  0.0257
  654ERGO    C1 9275  11.031   5.325   8.079  0.0178 -0.0916 -0.0126
  654ERGO    C2 9276  11.146   5.478   7.774 -0.0469 -0.3225  0.2113
  655ERGO   ROH 9277   6.637   7.177   5.730  0.1891 -0.1911 -0.0226
  655ERGO    R1 9278   6.634   7.120   6.007  0.0297 -0.2448 -0.0338
  655ERGO    R2 9279   6.554   6.876   6.108  0.1892 -0.3450 -0.1434
  655ERGO    R3 9280   6.797   6.883   6.230  0.0921 -0.1279  0.0458
  655ERGO    R4 9281   6.668   6.641   6.335  0.2644 -0.3033 -0.1378
  655ERGO    R5 9282   6.755   6.804   6.452  0.0039 -0.2491 -0.0133
  655ERGO    C1 9283   6.963   6.511   6.581  0.2171 -0.0753  0.0431
  655ERGO    C2 9284   7.061   6.222   6.827  0.0075 -0.2858 -0.1110
  656ERGO   ROH 9285  16.721   3.174   5.755  0.1457  0.0335 -0.1391
  656ERGO    R1 9286  16.632   3.407   5.888  0.0739 -0.0369 -0.0644
  656ERGO    R2 9287  16.510   3.399   6.137 -0.0044 -0.1628 -0.1081
  656ERGO    R3 9288  16.705   3.577   6.201 -0.0485 -0.1645  0.0356
  656ERGO    R4 9289  16.487   3.635   6.388 -0.1858 -0.1670 -0.1188
  656ERGO    R5 9290  16.587   3.778   6.257 -0.0897 -0.1642 -0.0462
  656ERGO    C1 9291  16.657   3.940   6.595 -0.3327 -0.1711  0.0098
  656ERGO    C2 9292  16.764   3.897   6.943 -0.0383  0.0665  0.0705
  657ERGO   ROH 9293  12.104   1.029   6.745 -0.0256 -0.0546 -0.2207
  657ERGO    R1 9294  11.901   1.197   6.642 -0.1141  0.0779  0.1599
  657ERGO    R2 9295  11.733   1.120   6.436 -0.0295  0.4689 -0.0505
  657ERGO    R3 9296  11.538   1.187   6.613 -0.1091 -0.0714  0.0903
  657ERGO    R4 9297  11.397   1.051   6.396  0.0189  0.3640 -0.3137
  657ERGO    R5 9298  11.351   1.248   6.477 -0.1102  0.1670  0.1748
  657ERGO    C1 9299  11.018   1.074   6.539 -0.0274 -0.2043 -0.3347
  657ERGO    C2 9300  10.811   0.900   6.678 -0.1006  0.1268  0.1468
  658ERGO   ROH 9301  16.307  18.219   9.544 -0.5074 -0.0285  0.0086
  658ERGO    R1 9302  16.458  18.176   9.308 -0.2584  0.1520  0.1294
  658ERGO    R2 9303  16.434  17.945   9.157  0.1838  0.0942  0.1343
  658ERGO    R3 9304  16.387  18.122   8.956  0.0898  0.0051  0.0775
  658ERGO    R4 9305  16.442  17.869   8.820  0.1477 -0.0278  0.1607
  658ERGO    R5 9306  16.541  18.060   8.784  0.0792 -0.0085  0.0728
  658ERGO    C1 9307  16.403  17.991   8.435  0.0386 -0.1828  0.1226
  658ERGO    C2 9308  16.469  17.998   8.151  0.1094  0.1510  0.2327
  659ERGO   ROH 9309  15.473   8.941   9.362 -0.1364 -0.2353  0.1035
  659ERGO    R1 9310  15.606   8.813   9.147 -0.1121 -0.2516  0.1287
  659ERGO    R2 9311  15.470   8.693   8.939 -0.0876 -0.0600  0.0011
  659ERGO    R3 9312  15.626   8.855   8.786  0.1301 -0.1190  0.1549
  659ERGO    R4 9313  15.598   8.608   8.629 -0.0793  0.0070 -0.0144
  659ERGO    R5 9314  15.785   8.706   8.685  0.0085 -0.2213  0.1098
  659ERGO    C1 9315  15.818   8.711   8.305  0.1298 -0.0095  0.1211
  659ERGO    C2 9316  15.748   8.780   7.999 -0.0324 -0.1607 -0.3175
  660ERGO   ROH 9317  13.808   0.563   9.424  0.1479  0.0830  0.0434
  660ERGO    R1 9318  13.952   0.475   9.196  0.0235 -0.1105  0.0359
  660ERGO    R2 9319  13.833   0.333   8.991 -0.1731  0.0194  0.0484
  660ERGO    R3 9320  13.938   0.532   8.837  0.0604 -0.1114  0.0363
  660ERGO    R4 9321  13.858   0.325   8.646 -0.3677  0.0636  0.0331
  660ERGO    R5 9322  14.054   0.417   8.663 -0.2143 -0.2528 -0.0525
  660ERGO    C1 9323  13.971   0.507   8.302 -0.2619 -0.0334  0.0128
  660ERGO    C2 9324  14.023   0.416   8.050 -0.0882 -0.0507  0.0219
  661ERGO   ROH 9325   9.428   0.166   6.282 -0.0057 -0.2035  0.0224
  661ERGO    R1 9326   9.398   0.276   6.541 -0.0586 -0.2335  0.0287
  661ERGO    R2 9327   9.473   0.141   6.771  0.0590 -0.1884  0.0164
  661ERGO    R3 9328   9.616   0.367   6.817 -0.0952 -0.0879  0.0106
  661ERGO    R4 9329   9.575   0.251   7.082 -0.1529 -0.0235  0.0302
  661ERGO    R5 9330   9.527   0.454   7.021 -0.2438 -0.0709 -0.0600
  661ERGO    C1 9331   9.769   0.528   7.306 -0.4210  0.1669  0.0328
  661ERGO    C2 9332   9.722   0.483   7.597 -0.0472 -0.5999  0.2021
  662ERGO   ROH 9333   6.896  15.959   9.459 -0.1135  0.0241  0.0942
  662ERGO    R1 9334   6.927  15.880   9.190 -0.0013 -0.1014  0.1420
  662ERGO    R2 9335   6.852  15.630   9.098 -0.1346 -0.0827  0.1881
  662ERGO    R3 9336   6.709  15.775   8.918  0.0883 -0.0365  0.0451
  662ERGO    R4 9337   6.714  15.502   8.809 -0.1058 -0.0907  0.1786
  662ERGO    R5 9338   6.774  15.685   8.706  0.1135 -0.1954  0.1212
  662ERGO    C1 9339   6.499  15.563   8.471  0.1203 -0.0520  0.0389
  662ERGO    C2 9340   6.395  15.411   8.221  0.0692 -0.1961  0.0416
  663ERGO   ROH 9341  18.656   1.410   9.660  0.0957 -0.0758 -0.1693
  663ERGO    R1 9342  18.600   1.542   9.416 -0.0449 -0.1381 -0.1704
  663ERGO    R2 9343  18.798   1.639   9.250 -0.1481  0.0398 -0.1855
  663ERGO    R3 9344  18.671   1.487   9.064 -0.0195 -0.0844 -0.1748
  663ERGO    R4 9345  18.878   1.632   8.914 -0.1272  0.0753 -0.1822
  663ERGO    R5 9346  18.665   1.626   8.868 -0.1262 -0.1040 -0.1888
  663ERGO    C1 9347  18.805   1.484   8.543  0.0056 -0.0207 -0.1701
  663ERGO    C2 9348  18.918   1.415   8.236 -0.1485  0.0419  0.2381
  664ERGO   ROH 9349  18.507  15.816   9.412 -0.3246  0.1556 -0.0004
  664ERGO    R1 9350  18.413  15.769   9.149 -0.3553  0.1301  0.0136
  664ERGO    R2 9351  18.380  15.972   8.965 -0.2083  0.0955 -0.0638
  664ERGO    R3 9352  18.540  15.815   8.811 -0.3134 -0.0767  0.0021
  664ERGO    R4 9353  18.424  16.008   8.624 -0.0516  0.0141 -0.0519
  664ERGO    R5 9354  18.421  15.791   8.606 -0.2613  0.0221 -0.0335
  664ERGO    C1 9355  18.600  15.881   8.281 -0.0592 -0.1947  0.0168
  664ERGO    C2 9356  18.634  15.893   7.885 -0.3388  0.3558  0.0417
  665ERGO   ROH 9357   3.706  14.383   6.008  0.0765  0.1270  0.1201
  665ERGO    R1 9358   3.818  14.468   6.254 -0.0082  0.0062  0.2000
  665ERGO    R2 9359   3.664  14.572   6.459 -0.0613  0.0179  0.1451
  665ERGO    R3 9360   3.785  14.377   6.605 -0.2251 -0.0748  0.1626
  665ERGO    R4 9361   3.676  14.561   6.804  0.0157  0.1099  0.1466
  665ERGO    R5 9362   3.882  14.493   6.790 -0.0504 -0.1150  0.1060
  665ERGO    C1 9363   3.796  14.372   7.142 -0.0932  0.0765  0.1639
  665ERGO    C2 9364   3.843  14.188   7.455 -0.0395  0.0173  0.0077
  666ERGO   ROH 9365  18.854  17.634   6.666 -0.1160 -0.0840  0.0248
  666ERGO    R1 9366  18.749  17.667   6.927 -0.1518 -0.0391  0.0053
  666ERGO    R2 9367  18.835  17.516   7.142 -0.1684  0.0083  0.0483
  666ERGO    R3 9368  18.879  17.760   7.253 -0.1987  0.0343  0.0027
  666ERGO    R4 9369  18.822  17.584   7.480 -0.1353  0.0637  0.0383
  666ERGO    R5 9370  18.723  17.772   7.434 -0.1752  0.0363  0.0210
  666ERGO    C1 9371  18.856  17.852   7.782 -0.1443  0.1202 -0.0104
  666ERGO    C2 9372  18.799  18.056   8.134 -0.0425 -0.2733  0.0773
  667ERGO   ROH 9373  11.718  12.733   9.309 -0.0220 -0.0428 -0.0494
  667ERGO    R1 9374  11.580  12.756   9.063 -0.0631 -0.0001 -0.0224
  667ERGO    R2 9375  11.676  12.908   8.853 -0.1004  0.0400 -0.0110
  667ERGO    R3 9376  11.646  12.676   8.715 -0.1193  0.0647 -0.0481
  667ERGO    R4 9377  11.661  12.884   8.509  0.2751  0.0586 -0.0327
  667ERGO    R5 9378  11.504  12.734   8.531  0.1329  0.1770 -0.2125
  667ERGO    C1 9379  11.624  12.653   8.178  0.4760  0.0926 -0.0800
  667ERGO    C2 9380  11.699  12.726   7.797 -0.3202 -0.1542  0.2450
  668ERGO   ROH 9381  11.630  10.014   5.636 -0.0284  0.2154 -0.0244
  668ERGO    R1 9382  11.765   9.907   5.861 -0.2427  0.0234  0.0147
  668ERGO    R2 9383  12.014   9.996   5.942 -0.0700 -0.4287 -0.0064
  668ERGO    R3 9384  11.887  10.031   6.180 -0.0126 -0.1092 -0.0174
  668ERGO    R4 9385  12.172  10.025   6.248 -0.0018 -0.5168 -0.0323
  668ERGO    R5 9386  12.015   9.901   6.335 -0.1986 -0.2361  0.0411
  668ERGO    C1 9387  12.146  10.074   6.649  0.0919 -0.2682 -0.0578
  668ERGO    C2 9388  12.343  10.116   6.850 -0.2015 -0.0381 -0.2789
  669ERGO   ROH 9389   5.281   5.291   9.341  0.2145 -0.0714 -0.0589
  669ERGO    R1 9390   5.321   5.268   9.062  0.2707  0.0482 -0.0619
  669ERGO    R2 9391   5.179   5.418   8.879  0.2002  0.0208 -0.0340
  669ERGO    R3 9392   5.427   5.487   8.791  0.1705  0.2096  0.0285
  669ERGO    R4 9393   5.246   5.567   8.574  0.2005 -0.3100 -0.2003
  669ERGO    R5 9394   5.422   5.439   8.556  0.3737 -0.1199  0.0855
  669ERGO    C1 9395   5.517   5.719   8.315  0.1728 -0.3252 -0.2385
  669ERGO    C2 9396   5.401   5.878   7.962 -0.0653 -0.3449 -0.0606
  670ERGO   ROH 9397   7.028   9.644   9.464 -0.1395  0.1149  0.0108
  670ERGO    R1 9398   7.183   9.644   9.227 -0.0726  0.1217  0.0550
  670ERGO    R2 9399   7.074   9.602   8.977  0.0139  0.0281  0.0340
  670ERGO    R3 9400   7.196   9.837   8.919 -0.0561  0.0609  0.0167
  670ERGO    R4 9401   7.140   9.717   8.658  0.2117 -0.1002  0.0265
  670ERGO    R5 9402   7.333   9.788   8.729  0.1225  0.0310  0.1487
  670ERGO    C1 9403   7.293  10.005   8.418  0.2611 -0.1441  0.0059
  670ERGO    C2 9404   7.471  10.067   8.201  0.4354  0.0854 -0.1635
  671ERGO   ROH 9405   2.470   0.219   6.783  0.0328  0.2126 -0.2125
  671ERGO    R1 9406   2.623   0.146   7.010 -0.1851  0.1080 -0.0968
  671ERGO    R2 9407   2.842   0.292   7.094  0.0075 -0.1828 -0.0884
  671ERGO    R3 9408   2.708   0.296   7.330 -0.0993  0.1731 -0.1492
  671ERGO    R4 9409   2.991   0.304   7.406 -0.1186 -0.1478 -0.0283
  671ERGO    R5 9410   2.841   0.162   7.478 -0.3426  0.1013  0.0133
  671ERGO    C1 9411   2.951   0.315   7.809 -0.2924  0.2067 -0.0505
  671ERGO    C2 9412   3.211   0.412   8.056  0.1797  0.0739  0.1442
  672ERGO   ROH 9413   7.744   1.650   6.513  0.0727 -0.1942 -0.0813
  672ERGO    R1 9414   7.775   1.663   6.794  0.2514 -0.1185 -0.1026
  672ERGO    R2 9415   7.943   1.844   6.918  0.1037  0.1222 -0.2417
  672ERGO    R3 9416   7.719   1.909   7.056  0.1072 -0.1558 -0.0994
  672ERGO    R4 9417   7.937   1.943   7.249  0.1606 -0.0621 -0.1846
  672ERGO    R5 9418   7.757   1.823   7.276  0.2841 -0.2387 -0.1639
  672ERGO    C1 9419   7.722   2.062   7.571  0.1971 -0.4303 -0.0177
  672ERGO    C2 9420   7.658   2.233   7.862 -0.0089  0.2852 -0.1381
  673ERGO   ROH 9421   5.385  11.511   9.278  0.2126  0.0707  0.1701
  673ERGO    R1 9422   5.505  11.425   9.036  0.1242  0.0537  0.1310
  673ERGO    R2 9423   5.378  11.447   8.791 -0.0305 -0.1044  0.1898
  673ERGO    R3 9424   5.605  11.579   8.722 -0.1440  0.0041  0.0196
  673ERGO    R4 9425   5.512  11.457   8.473 -0.1125 -0.2759  0.1499
  673ERGO    R5 9426   5.710  11.437   8.562 -0.0783 -0.0540  0.1178
  673ERGO    C1 9427   5.804  11.586   8.223 -0.2667 -0.2740 -0.0331
  673ERGO    C2 9428   5.918  11.687   7.987 -0.1808 -0.1101  0.2261
  674ERGO   ROH 9429   4.896  10.529   9.516  0.2843 -0.0631 -0.0339
  674ERGO    R1 9430   4.937  10.461   9.244  0.0638 -0.0672 -0.0674
  674ERGO    R2 9431   4.731  10.381   9.078 -0.0892  0.0402  0.0713
  674ERGO    R3 9432   4.823  10.583   8.921 -0.1027  0.0049  0.0167
  674ERGO    R4 9433   4.763  10.365   8.734 -0.1429 -0.0335  0.0690
  674ERGO    R5 9434   4.952  10.473   8.751 -0.1329 -0.0382  0.0192
  674ERGO    C1 9435   4.867  10.545   8.386 -0.1867 -0.1095  0.0165
  674ERGO    C2 9436   4.734  10.508   8.019  0.1918 -0.1979 -0.1091
  675PSPI    C1 9437  11.902  11.001   5.439  0.2667  0.0005 -0.0050
  675PSPI    C2 9438  11.656  10.718   5.579 -0.0081  0.2933  0.1157
  675PSPI    C3 9439  11.585  10.886   5.223  0.2383  0.1103 -0.0224
  675PSPI   PO4 9440  11.912  11.287   5.606  0.0769 -0.2985 -0.1398
  675PSPI   GL1 9441  11.900  11.311   6.018  0.1893  0.2659 -0.0718
  675PSPI   GL2 9442  11.802  10.925   5.979 -0.1921  0.2054  0.0747
  675PSPI   C1A 9443  11.639  11.279   6.448 -0.0536 -0.1532  0.1038
  675PSPI   C2A 9444  11.613  11.073   6.753  0.2686  0.2056 -0.1651
  675PSPI   C3A 9445  11.658  10.858   7.219  0.0420  0.3743 -0.2914
  675PSPI   C4A 9446  11.735  10.945   7.687 -0.0847 -0.3913  0.1007
  675PSPI   C1B 9447  11.436  10.743   6.366 -0.3510 -0.1984  0.1519
  675PSPI   C2B 9448  11.384  10.619   6.792  0.1573 -0.0975  0.1941
  675PSPI   C3B 9449  11.636  10.384   6.902 -0.0523 -0.0330  0.1691
  675PSPI   C4B 9450  11.844  10.251   7.244 -0.1103  0.3671 -0.2472
  676PSPI    C1 9451   8.334   2.850   5.518 -0.0052 -0.0389  0.1331
  676PSPI    C2 9452   7.957   2.965   5.449  0.1013  0.1785 -0.1008
  676PSPI    C3 9453   8.224   2.966   5.151  0.2828  0.0051  0.0586
  676PSPI   PO4 9454   8.466   3.025   5.603  0.0874 -0.2368 -0.0925
  676PSPI   GL1 9455   8.541   3.041   6.143  0.1612 -0.4511  0.3843
  676PSPI   GL2 9456   8.752   3.315   5.992 -0.1183  0.0787  0.4200
  676PSPI   C1A 9457   8.658   3.149   6.545  0.2529 -0.1867 -0.0430
  676PSPI   C2A 9458   8.737   3.118   6.925  0.0512  0.1195 -0.1123
  676PSPI   C3A 9459   8.675   3.255   7.356  0.0667  0.4201 -0.1990
  676PSPI   C4A 9460   8.468   3.406   7.615 -0.0416 -0.0416  0.0361
  676PSPI   C1B 9461   8.968   3.442   6.322  0.2434 -0.2177  0.0064
  676PSPI   C2B 9462   9.052   3.449   6.810  0.0690  0.1422  0.2835
  676PSPI   C3B 9463   9.386   3.545   7.041 -0.1397 -0.1400  0.1410
  676PSPI   C4B 9464   9.637   3.824   7.029  0.1235  0.2082  0.0773
  677PSPI    C1 9465  18.043   7.359   5.425  0.0793  0.1170  0.1374
  677PSPI    C2 9466  17.829   7.065   5.257  0.0304  0.3191 -0.1614
  677PSPI    C3 9467  18.229   7.056   5.242  0.0337  0.1783 -0.0118
  677PSPI   PO4 9468  17.873   7.414   5.643  0.0007  0.3552  0.0440
  677PSPI   GL1 9469  17.898   7.677   5.985 -0.1146 -0.3514  0.1061
  677PSPI   GL2 9470  17.871   7.984   5.681 -0.1440 -0.2482 -0.1824
  677PSPI   C1A 9471  18.169   7.907   6.382 -0.5135 -0.5415  0.0974
  677PSPI   C2A 9472  18.306   7.971   6.713 -0.1150  0.1472  0.3146
  677PSPI   C3A 9473  18.331   7.986   7.208  0.1525 -0.0132  0.3125
  677PSPI   C4A 9474  18.432   7.796   7.536 -0.1302 -0.3993 -0.1131
  677PSPI   C1B 9475  17.709   8.162   6.194  0.0235  0.0775  0.0775
  677PSPI   C2B 9476  17.767   8.184   6.661  0.2562 -0.1376 -0.0210
  677PSPI   C3B 9477  17.850   8.380   7.062  0.1570 -0.2584  0.1769
  677PSPI   C4B 9478  18.097   8.592   7.390 -0.0964  0.2104 -0.1693
  678PSPI    C1 9479   0.862   2.834   5.790 -0.1339  0.0304  0.2800
  678PSPI    C2 9480   0.848   2.470   5.627 -0.1619  0.1341  0.0469
  678PSPI    C3 9481   0.717   2.786   5.421 -0.0171  0.2943  0.1973
  678PSPI   PO4 9482   0.804   2.740   6.043 -0.2220 -0.0171  0.0137
  678PSPI   GL1 9483   0.986   2.862   6.311 -0.1153 -0.2224 -0.0479
  678PSPI   GL2 9484   0.794   2.955   6.522  0.3486 -0.2526 -0.1939
  678PSPI   C1A 9485   1.416   3.066   6.561  0.1727  0.0058 -0.2327
  678PSPI   C2A 9486   1.837   3.212   6.700 -0.2956 -0.1395  0.1244
  678PSPI   C3A 9487   2.248   3.420   7.044 -0.2440  0.0617  0.1088
  678PSPI   C4A 9488   2.266   3.769   7.296 -0.3828  0.0459 -0.0560
  678PSPI   C1B 9489   1.002   2.836   6.900  0.1925 -0.2940 -0.1288
  678PSPI   C2B 9490   1.054   2.876   7.315 -0.1701  0.0173 -0.2634
  678PSPI   C3B 9491   0.920   3.012   7.811 -0.1998 -0.0673 -0.0412
  678PSPI   C4B 9492   0.722   3.122   8.188 -0.0108  0.0336  0.1735
  679PSPI    C1 9493  12.899   9.724   5.288 -0.2232  0.2789 -0.0084
  679PSPI    C2 9494  13.267   9.621   5.168 -0.2526  0.0144  0.1200
  679PSPI    C3 9495  13.153  10.005   5.160  0.0241  0.0978  0.0770
  679PSPI   PO4 9496  12.676   9.560   5.275 -0.1924 -0.0521 -0.1212
  679PSPI   GL1 9497  12.795   9.164   5.515 -0.3011  0.2337  0.0740
  679PSPI   GL2 9498  12.447   9.201   5.708 -0.2779 -0.0141  0.0576
  679PSPI   C1A 9499  12.963   9.389   5.950  0.0650 -0.1952 -0.0115
  679PSPI   C2A 9500  13.336   9.471   6.190 -0.1861 -0.0202  0.0164
  679PSPI   C3A 9501  13.383   9.610   6.568 -0.1474 -0.2363  0.2026
  679PSPI   C4A 9502  13.526   9.519   6.953  0.0504  0.0486  0.1761
  679PSPI   C1B 9503  12.533   9.258   6.108 -0.1881  0.1035  0.0443
  679PSPI   C2B 9504  12.393   8.974   6.328  0.0461 -0.1269  0.0472
  679PSPI   C3B 9505  12.497   8.889   6.812  0.1472  0.1205 -0.0892
  679PSPI   C4B 9506  12.359   8.875   7.198 -0.0918 -0.0237 -0.2106
  680PSPI    C1 9507  12.448  11.922   5.882 -0.0961  0.1856 -0.2021
  680PSPI    C2 9508  12.062  11.835   5.825 -0.0880  0.1257 -0.1653
  680PSPI    C3 9509  12.325  11.787   5.527 -0.0823  0.0153 -0.1429
  680PSPI   PO4 9510  12.389  11.924   6.174 -0.1979  0.2079  0.0835
  680PSPI   GL1 9511  12.323  11.684   6.460  0.1689 -0.0223 -0.1841
  680PSPI   GL2 9512  12.263  11.375   6.481  0.1618  0.1411  0.0300
  680PSPI   C1A 9513  12.645  11.556   6.666  0.2040 -0.1209 -0.0975
  680PSPI   C2A 9514  13.074  11.378   6.862 -0.0982 -0.1235 -0.1990
  680PSPI   C3A 9515  13.456  11.482   7.151  0.3840 -0.0474  0.0535
  680PSPI   C4A 9516  13.710  11.218   7.452 -0.3806 -0.1553 -0.1180
  680PSPI   C1B 9517  12.040  10.981   6.422  0.0477 -0.0986 -0.1485
  680PSPI   C2B 9518  12.016  10.752   6.822  0.2937  0.0459 -0.0475
  680PSPI   C3B 9519  12.208  10.538   7.103  0.3202 -0.1006 -0.1878
  680PSPI   C4B 9520  12.333  10.205   7.379  0.0058 -0.0387 -0.2753
  681PSPI    C1 9521  18.504   0.274   5.533 -0.1731  0.0532 -0.0434
  681PSPI    C2 9522  18.270   0.254   5.210  0.0044  0.2464 -0.1861
  681PSPI    C3 9523  18.638   0.097   5.200  0.0133  0.2600 -0.0808
  681PSPI   PO4 9524  18.475   0.531   5.610 -0.1206 -0.1827  0.0758
  681PSPI   GL1 9525  18.250   0.741   5.781  0.0078  0.0476  0.3811
  681PSPI   GL2 9526  18.342   1.002   5.830  0.1112 -0.1473 -0.2411
  681PSPI   C1A 9527  17.864   0.702   6.032  0.0915 -0.0330  0.0698
  681PSPI   C2A 9528  17.445   0.656   6.413  0.0413  0.0851  0.1034
  681PSPI   C3A 9529  17.116   0.453   6.643 -0.0168  0.0441  0.0709
  681PSPI   C4A 9530  16.685   0.199   6.694 -0.0729 -0.1674  0.0352
  681PSPI   C1B 9531  18.139   1.097   6.186 -0.3231 -0.2067 -0.1465
  681PSPI   C2B 9532  18.076   1.500   6.369  0.2939 -0.1155  0.0440
  681PSPI   C3B 9533  17.921   1.686   6.749  0.2179  0.0539  0.0357
  681PSPI   C4B 9534  17.787   1.793   7.074  0.3484  0.2981 -0.0828
  682PSPI    C1 9535  15.854   9.385   5.482 -0.2214 -0.0217 -0.2420
  682PSPI    C2 9536  15.860   9.672   5.203  0.0582 -0.0023 -0.2191
  682PSPI    C3 9537  16.037   9.320   5.132 -0.2734 -0.1684 -0.2428
  682PSPI   PO4 9538  15.967   9.427   5.665 -0.1634 -0.2378  0.0033
  682PSPI   GL1 9539  16.112   9.413   6.074 -0.0334 -0.4062 -0.0684
  682PSPI   GL2 9540  16.040   9.032   6.060 -0.1975  0.1311 -0.1021
  682PSPI   C1A 9541  16.473   9.443   6.278  0.1714 -0.0991 -0.1249
  682PSPI   C2A 9542  16.925   9.601   6.531  0.0075 -0.1198  0.0313
  682PSPI   C3A 9543  17.038   9.764   6.922 -0.1612 -0.0677  0.2838
  682PSPI   C4A 9544  17.168  10.064   7.248 -0.0207  0.0790  0.0385
  682PSPI   C1B 9545  16.265   8.987   6.402  0.2714 -0.1726 -0.0362
  682PSPI   C2B 9546  16.450   9.250   6.740  0.5149  0.0935  0.0138
  682PSPI   C3B 9547  16.620   9.468   6.943  0.1150  0.2242  0.3343
  682PSPI   C4B 9548  16.928   9.424   7.247  0.1381 -0.1517 -0.0239
  683PSPI    C1 9549  13.386   2.113   5.152 -0.0009 -0.0865  0.0861
  683PSPI    C2 9550  13.068   2.141   4.910  0.0148 -0.0823  0.0661
  683PSPI    C3 9551  13.395   2.360   4.838  0.0597 -0.1611  0.0286
  683PSPI   PO4 9552  13.274   2.088   5.464 -0.0055 -0.0196 -0.1606
  683PSPI   GL1 9553  13.112   2.129   5.767 -0.1943  0.0069  0.1417
  683PSPI   GL2 9554  13.106   1.773   5.818  0.0957  0.5095  0.1511
  683PSPI   C1A 9555  13.541   2.014   6.053  0.3423 -0.2755 -0.3131
  683PSPI   C2A 9556  13.737   1.892   6.462 -0.1862  0.0087  0.1340
  683PSPI   C3A 9557  14.102   1.990   6.663 -0.0545 -0.2005  0.0932
  683PSPI   C4A 9558  14.137   2.257   7.110  0.0689  0.2538 -0.1366
  683PSPI   C1B 9559  13.211   1.672   6.236 -0.2150 -0.1447 -0.0437
  683PSPI   C2B 9560  13.174   1.801   6.699  0.0536  0.0828 -0.2847
  683PSPI   C3B 9561  13.500   2.020   6.968  0.0088 -0.0784 -0.0067
  683PSPI   C4B 9562  13.748   2.039   7.373 -0.2674  0.2189  0.1095
  684PSPI    C1 9563   6.376   3.510   5.695  0.0968  0.0662 -0.1054
  684PSPI    C2 9564   6.545   3.670   5.369  0.1741  0.0341 -0.0814
  684PSPI    C3 9565   6.201   3.468   5.338  0.0878  0.1849 -0.1153
  684PSPI   PO4 9566   6.570   3.454   5.809 -0.1099  0.3811  0.0267
  684PSPI   GL1 9567   6.788   3.624   6.103 -0.0832  0.0541 -0.0726
  684PSPI   GL2 9568   6.554   3.540   6.298 -0.0441 -0.1310 -0.1513
  684PSPI   C1A 9569   7.018   3.683   6.488  0.0648  0.1411 -0.1107
  684PSPI   C2A 9570   7.020   3.871   6.913 -0.1536  0.1036 -0.2777
  684PSPI   C3A 9571   7.313   3.955   7.182 -0.0010 -0.2620 -0.0414
  684PSPI   C4A 9572   7.585   3.792   7.135 -0.1964  0.2717  0.4404
  684PSPI   C1B 9573   6.544   3.601   6.782 -0.2123 -0.2871 -0.1027
  684PSPI   C2B 9574   6.699   3.600   7.209 -0.0134  0.1428 -0.0608
  684PSPI   C3B 9575   7.035   3.404   7.464  0.2516  0.0009 -0.0081
  684PSPI   C4B 9576   7.425   3.109   7.309 -0.0732 -0.2430 -0.0379
  685PSPI    C1 9577   6.956   7.449   5.094 -0.0949  0.1200  0.0092
  685PSPI    C2 9578   6.868   7.824   5.202 -0.1405  0.0985  0.0469
  685PSPI    C3 9579   6.701   7.516   5.395 -0.0041  0.0575  0.1010
  685PSPI   PO4 9580   7.251   7.446   5.130 -0.0876  0.0354 -0.1114
  685PSPI   GL1 9581   7.363   7.624   5.486 -0.0721  0.4546 -0.0809
  685PSPI   GL2 9582   7.086   7.423   5.667 -0.0773  0.1207 -0.1804
  685PSPI   C1A 9583   7.590   7.585   5.875  0.0452 -0.2183 -0.2102
  685PSPI   C2A 9584   7.616   7.373   6.322  0.1179  0.0972 -0.1263
  685PSPI   C3A 9585   7.484   7.333   6.780 -0.0544 -0.0515  0.0860
  685PSPI   C4A 9586   7.291   7.117   7.073  0.1955  0.1532  0.1561
  685PSPI   C1B 9587   7.182   7.238   6.043  0.1168 -0.1536 -0.0842
  685PSPI   C2B 9588   7.484   6.967   6.034  0.0566 -0.0064 -0.1240
  685PSPI   C3B 9589   7.914   6.967   5.851 -0.0804 -0.0565  0.0926
  685PSPI   C4B 9590   8.291   6.876   6.093 -0.1475  0.1579 -0.1866
  686PSPI    C1 9591   4.563   5.447   5.444  0.0391 -0.3008 -0.0717
  686PSPI    C2 9592   4.883   5.477   5.206 -0.0472 -0.2447 -0.1815
  686PSPI    C3 9593   4.516   5.519   5.054 -0.0900  0.2326  0.0343
  686PSPI   PO4 9594   4.675   5.648   5.667 -0.1195 -0.2438 -0.0144
  686PSPI   GL1 9595   4.850   5.550   6.065  0.0003  0.0683  0.1604
  686PSPI   GL2 9596   4.570   5.742   6.153  0.1682  0.1027  0.0991
  686PSPI   C1A 9597   5.056   5.912   6.328  0.0310 -0.1008 -0.3482
  686PSPI   C2A 9598   5.032   5.986   6.677  0.0516 -0.0583  0.0695
  686PSPI   C3A 9599   5.277   6.038   7.034  0.0071 -0.0335  0.0104
  686PSPI   C4A 9600   5.067   5.841   7.408  0.2290  0.1742 -0.1394
  686PSPI   C1B 9601   4.576   5.758   6.549 -0.0096 -0.0973  0.0617
  686PSPI   C2B 9602   4.461   5.994   6.803  0.1587 -0.1247 -0.1209
  686PSPI   C3B 9603   4.768   6.209   7.070  0.2636 -0.0664 -0.0683
  686PSPI   C4B 9604   4.861   6.319   7.438  0.2191  0.4277 -0.0504
  687PSPI    C1 9605  14.140  14.096   5.487 -0.0978  0.1942 -0.3843
  687PSPI    C2 9606  14.119  13.812   5.768 -0.1440  0.3182 -0.2618
  687PSPI    C3 9607  14.144  13.710   5.382  0.0705  0.1454 -0.2040
  687PSPI   PO4 9608  14.359  14.256   5.623  0.3819  0.0873 -0.0692
  687PSPI   GL1 9609  14.331  14.131   6.114 -0.0097  0.3109 -0.0587
  687PSPI   GL2 9610  14.449  14.479   6.058  0.2312  0.5018  0.2165
  687PSPI   C1A 9611  14.058  14.171   6.355 -0.1332 -0.0009 -0.2602
  687PSPI   C2A 9612  13.852  14.427   6.644 -0.2500 -0.1097 -0.0358
  687PSPI   C3A 9613  13.800  14.648   7.087  0.3847 -0.2974  0.0710
  687PSPI   C4A 9614  13.739  14.893   7.421  0.0060  0.2461 -0.1806
  687PSPI   C1B 9615  14.401  14.448   6.497  0.0822  0.0653 -0.0461
  687PSPI   C2B 9616  14.282  14.364   6.997  0.1428 -0.1901 -0.1344
  687PSPI   C3B 9617  14.188  14.422   7.393 -0.4197 -0.0814 -0.0093
  687PSPI   C4B 9618  14.138  14.095   7.607  0.0087 -0.2701  0.0776
  688PSPI    C1 9619   1.042  10.303   5.301 -0.3387  0.0864 -0.2781
  688PSPI    C2 9620   1.331  10.174   5.057 -0.1414  0.0928 -0.0510
  688PSPI    C3 9621   1.401  10.479   5.305 -0.2618 -0.0687  0.1855
  688PSPI   PO4 9622   0.862  10.152   5.421  0.2831 -0.0587 -0.1018
  688PSPI   GL1 9623   0.840   9.963   5.860 -0.4601  0.3262  0.1689
  688PSPI   GL2 9624   0.605   9.776   6.055 -0.0064  0.1852  0.1009
  688PSPI   C1A 9625   1.157  10.043   6.194 -0.2358  0.1642  0.1825
  688PSPI   C2A 9626   1.073  10.149   6.561  0.2030  0.0040  0.0605
  688PSPI   C3A 9627   1.037  10.360   7.015 -0.0507 -0.0662 -0.1063
  688PSPI   C4A 9628   0.774  10.638   7.328  0.2130  0.0471 -0.1565
  688PSPI   C1B 9629   0.713   9.875   6.448  0.0674  0.2603  0.1303
  688PSPI   C2B 9630   0.458  10.052   6.734  0.0558 -0.2320  0.1293
  688PSPI   C3B 9631   0.563  10.532   6.821 -0.1866 -0.2070  0.0836
  688PSPI   C4B 9632   0.472  10.911   6.489 -0.4716  0.1764  0.2124
  689PSPI    C1 9633   1.640  11.347   5.376  0.0552 -0.0174 -0.2059
  689PSPI    C2 9634   1.394  11.041   5.297 -0.1570  0.1148 -0.0693
  689PSPI    C3 9635   1.569  11.241   4.997 -0.1586 -0.0261 -0.1646
  689PSPI   PO4 9636   1.644  11.314   5.665  0.0709 -0.0223 -0.0949
  689PSPI   GL1 9637   1.814  11.374   6.132 -0.1525  0.1377  0.1375
  689PSPI   GL2 9638   2.118  11.298   5.946 -0.3857 -0.0489 -0.0890
  689PSPI   C1A 9639   1.544  11.448   6.565  0.1451 -0.0023 -0.0808
  689PSPI   C2A 9640   1.454  11.456   6.976 -0.0651  0.1641  0.0530
  689PSPI   C3A 9641   1.124  11.687   7.145  0.0783 -0.0645  0.0079
  689PSPI   C4A 9642   0.710  11.835   6.988 -0.0638  0.2377  0.0056
  689PSPI   C1B 9643   2.183  11.030   6.290 -0.3098  0.4773 -0.1357
  689PSPI   C2B 9644   2.559  11.088   6.584  0.1062  0.4241 -0.0527
  689PSPI   C3B 9645   2.752  11.371   6.578  0.0354  0.1046  0.2393
  689PSPI   C4B 9646   2.844  11.754   6.332  0.2433 -0.1847  0.0576
  690PSPI    C1 9647   9.162   7.740   4.893  0.2991  0.0154  0.0569
  690PSPI    C2 9648   9.183   7.423   4.649 -0.0584 -0.0242  0.0720
  690PSPI    C3 9649   9.026   7.766   4.518  0.0377  0.0512  0.1522
  690PSPI   PO4 9650   9.007   7.599   5.083  0.2447 -0.2219 -0.3926
  690PSPI   GL1 9651   9.048   7.458   5.512 -0.2143 -0.0579  0.0714
  690PSPI   GL2 9652   9.165   7.740   5.545  0.1600 -0.0284  0.1510
  690PSPI   C1A 9653   9.388   7.330   5.801 -0.0716 -0.2149 -0.0032
  690PSPI   C2A 9654   9.430   7.293   6.186 -0.4400 -0.0513 -0.0555
  690PSPI   C3A 9655   9.604   7.201   6.529  0.1507 -0.0037 -0.2269
  690PSPI   C4A 9656   9.813   7.067   6.833 -0.0435  0.0100 -0.0340
  690PSPI   C1B 9657   9.083   7.668   6.022 -0.2490  0.1968 -0.0281
  690PSPI   C2B 9658   9.113   7.558   6.476 -0.0309  0.0161  0.2439
  690PSPI   C3B 9659   9.343   7.655   6.750 -0.0297 -0.1109 -0.1983
  690PSPI   C4B 9660   9.429   7.353   6.966  0.0865  0.0537 -0.1927
  691PSPI    C1 9661  14.548   7.587   5.207  0.1257 -0.0124  0.1193
  691PSPI    C2 9662  14.317   7.890   5.084 -0.0460 -0.2110 -0.0572
  691PSPI    C3 9663  14.353   7.562   4.858  0.1823 -0.3010  0.1058
  691PSPI   PO4 9664  14.476   7.625   5.482  0.2924  0.1361  0.2298
  691PSPI   GL1 9665  14.344   7.286   5.823 -0.1206  0.3392 -0.0381
  691PSPI   GL2 9666  14.020   7.431   5.739 -0.2298 -0.1078  0.2769
  691PSPI   C1A 9667  14.700   7.367   6.151 -0.1392  0.0864 -0.1874
  691PSPI   C2A 9668  14.753   7.560   6.489  0.2517 -0.0904  0.3614
  691PSPI   C3A 9669  14.505   7.971   6.685 -0.0235  0.0047 -0.1518
  691PSPI   C4A 9670  14.448   8.338   6.645 -0.2604 -0.1737  0.2414
  691PSPI   C1B 9671  13.810   7.377   6.103  0.1737 -0.1529  0.2186
  691PSPI   C2B 9672  13.817   7.473   6.432 -0.0358 -0.0826 -0.0932
  691PSPI   C3B 9673  13.473   7.322   6.725  0.0615 -0.0590  0.0904
  691PSPI   C4B 9674  13.198   7.136   6.940 -0.1091 -0.1668  0.4568
  692PSPI    C1 9675   7.626  16.018   5.828 -0.2011  0.1274 -0.0769
  692PSPI    C2 9676   7.415  16.148   5.514 -0.1314 -0.0154 -0.1841
  692PSPI    C3 9677   7.710  16.373   5.664  0.0659 -0.0971 -0.4420
  692PSPI   PO4 9678   7.458  15.968   5.993  0.0688 -0.3624 -0.1912
  692PSPI   GL1 9679   7.187  15.939   6.234  0.3026 -0.0186  0.1612
  692PSPI   GL2 9680   7.191  15.703   6.328 -0.0809  0.2982 -0.1143
  692PSPI   C1A 9681   7.149  16.137   6.529  0.1898 -0.0117  0.0837
  692PSPI   C2A 9682   7.154  16.127   6.969 -0.2815 -0.0111  0.1827
  692PSPI   C3A 9683   6.724  16.154   7.198  0.2759 -0.1951  0.2831
  692PSPI   C4A 9684   6.532  16.370   7.553  0.0667  0.3739 -0.1216
  692PSPI   C1B 9685   6.998  15.730   6.720 -0.1497 -0.2189 -0.2528
  692PSPI   C2B 9686   6.863  15.632   7.155 -0.2101 -0.2125  0.2093
  692PSPI   C3B 9687   6.581  15.454   7.400  0.3054 -0.1815  0.0550
  692PSPI   C4B 9688   6.610  15.293   7.775  0.1746 -0.0350  0.2141
  693PSPI    C1 9689  10.458  13.924   5.946 -0.1550  0.0132  0.1570
  693PSPI    C2 9690  10.496  14.251   5.719 -0.0518 -0.0622  0.0642
  693PSPI    C3 9691  10.179  14.011   5.673 -0.0582 -0.0487  0.0369
  693PSPI   PO4 9692  10.674  14.013   6.170  0.2142  0.2078  0.0917
  693PSPI   GL1 9693  10.814  13.920   6.577 -0.1286  0.0913  0.2420
  693PSPI   GL2 9694  11.089  13.872   6.485 -0.1532 -0.2444  0.0516
  693PSPI   C1A 9695  10.810  13.971   6.981  0.0628 -0.1908  0.1518
  693PSPI   C2A 9696  10.604  13.883   7.360  0.1443  0.1231 -0.0312
  693PSPI   C3A 9697  10.499  13.858   7.739  0.2240  0.0552  0.1279
  693PSPI   C4A 9698  10.333  13.814   8.089  0.0312 -0.1857 -0.1797
  693PSPI   C1B 9699  11.318  13.900   6.883 -0.0774  0.2184  0.1799
  693PSPI   C2B 9700  11.281  13.779   7.363 -0.1221  0.0585 -0.1488
  693PSPI   C3B 9701  11.021  13.846   7.749  0.2359 -0.1141 -0.3410
  693PSPI   C4B 9702  10.760  13.981   8.129 -0.0683  0.1807 -0.0858
  694PSPI    C1 9703  11.480   1.909   5.312  0.2509 -0.0831  0.2556
  694PSPI    C2 9704  11.427   2.180   5.023 -0.3467 -0.0021  0.4267
  694PSPI    C3 9705  11.793   2.114   5.170 -0.1067  0.2958 -0.0108
  694PSPI   PO4 9706  11.391   1.956   5.486 -0.1378 -0.1201  0.0536
  694PSPI   GL1 9707  11.053   1.923   5.880 -0.0616 -0.1935  0.0804
  694PSPI   GL2 9708  11.310   1.573   5.821  0.1451 -0.1051  0.0135
  694PSPI   C1A 9709  11.364   1.918   6.199 -0.1787  0.1383 -0.0086
  694PSPI   C2A 9710  11.695   2.145   6.555  0.0115  0.1957 -0.0770
  694PSPI   C3A 9711  11.918   1.992   6.912 -0.2005  0.2750  0.2463
  694PSPI   C4A 9712  11.931   2.339   7.182 -0.4106 -0.0076  0.1135
  694PSPI   C1B 9713  11.593   1.402   6.045 -0.1830 -0.1813 -0.2990
  694PSPI   C2B 9714  11.747   1.642   6.478 -0.0229  0.2083  0.2168
  694PSPI   C3B 9715  11.633   1.544   6.906  0.2973 -0.0465  0.0475
  694PSPI   C4B 9716  11.387   1.680   7.270 -0.0825  0.1239  0.1794
  695POPI    C1 9717  10.416   9.107   4.973  0.3172 -0.0771 -0.2343
  695POPI    C2 9718  10.040   9.235   4.929  0.2066 -0.2145  0.2516
  695POPI    C3 9719  10.339   9.499   4.963  0.1626 -0.1048 -0.1577
  695POPI   PO4 9720  10.359   8.878   5.254 -0.0547  0.5237 -0.1417
  695POPI   GL1 9721  10.273   8.759   5.691 -0.2571  0.0536  0.1303
  695POPI   GL2 9722  10.241   8.316   5.754  0.3208 -0.0553  0.0858
  695POPI   C1A 9723  10.018   8.696   5.953  0.0912  0.0341  0.2677
  695POPI   D2A 9724   9.573   8.892   6.172  0.1401 -0.4063 -0.1710
  695POPI   C3A 9725   9.237   8.700   6.242  0.4718 -0.1164 -0.1144
  695POPI   C4A 9726   8.916   8.394   6.350 -0.0232 -0.1212 -0.0359
  695POPI   C1B 9727  10.459   8.506   6.092 -0.0313  0.0161  0.1675
  695POPI   C2B 9728  10.239   8.455   6.534  0.0067  0.0482  0.1859
  695POPI   C3B 9729  10.229   8.454   6.907 -0.3228  0.0253  0.2494
  695POPI   C4B 9730  10.116   8.138   7.183  0.3519 -0.0959 -0.2415
  696POPI    C1 9731   8.312   9.877   5.329  0.1049  0.2252  0.0599
  696POPI    C2 9732   8.682   9.748   5.245  0.0591  0.1711 -0.0616
  696POPI    C3 9733   8.423   9.820   4.948 -0.1851 -0.2580  0.0399
  696POPI   PO4 9734   8.226   9.720   5.475  0.0641 -0.3805 -0.2251
  696POPI   GL1 9735   8.447   9.401   5.667  0.0299  0.0772 -0.1576
  696POPI   GL2 9736   8.613   9.523   5.883  0.0452 -0.0500 -0.0341
  696POPI   C1A 9737   8.471   9.133   6.099  0.1670 -0.0199 -0.0488
  696POPI   D2A 9738   8.752   8.850   6.385 -0.0454  0.0300  0.1995
  696POPI   C3A 9739   8.818   8.785   6.836 -0.0352  0.1611 -0.0152
  696POPI   C4A 9740   8.871   8.675   7.269 -0.3302 -0.1981  0.1220
  696POPI   C1B 9741   8.589   9.504   6.358 -0.0784  0.1023  0.0654
  696POPI   C2B 9742   8.721   9.242   6.682 -0.1044  0.0270  0.2869
  696POPI   C3B 9743   8.667   9.249   7.083  0.0942  0.2365 -0.1442
  696POPI   C4B 9744   8.961   9.149   7.314  0.1843  0.2439 -0.0727
  697POPI    C1 9745  13.002  11.199   5.828  0.1769 -0.1804 -0.2355
  697POPI    C2 9746  13.239  10.889   5.739  0.1730 -0.1025 -0.5283
  697POPI    C3 9747  13.300  11.244   5.565  0.2500  0.0966 -0.1088
  697POPI   PO4 9748  12.774  11.107   5.829  0.1716  0.1032  0.2089
  697POPI   GL1 9749  12.565  11.022   6.225  0.2156  0.0941 -0.1513
  697POPI   GL2 9750  12.309  10.902   6.078 -0.3207 -0.1505  0.3409
  697POPI   C1A 9751  12.501  10.958   6.741  0.2250  0.2129 -0.1012
  697POPI   D2A 9752  12.586  11.230   7.088  0.2563 -0.0913 -0.0744
  697POPI   C3A 9753  12.836  11.555   7.237 -0.1763  0.2407 -0.2628
  697POPI   C4A 9754  12.851  11.797   7.676 -0.0490 -0.1431  0.2588
  697POPI   C1B 9755  12.365  10.575   6.494 -0.2753  0.0635  0.2001
  697POPI   C2B 9756  12.690  10.489   6.875 -0.0243 -0.0198  0.1242
  697POPI   C3B 9757  12.671  10.701   7.223 -0.2487 -0.0714  0.0419
  697POPI   C4B 9758  12.713  10.966   7.567  0.3553  0.0267  0.1543
  698POPI    C1 9759  17.035  15.170   5.339 -0.2068 -0.2277 -0.0830
  698POPI    C2 9760  17.151  15.474   5.572 -0.0805 -0.2254 -0.1476
  698POPI    C3 9761  16.918  15.543   5.254 -0.2163 -0.2229 -0.0486
  698POPI   PO4 9762  16.925  14.992   5.452 -0.1009 -0.0576 -0.1604
  698POPI   GL1 9763  16.758  14.841   5.814 -0.2548 -0.1069  0.0862
  698POPI   GL2 9764  16.893  15.178   5.960 -0.1406  0.1581 -0.2850
  698POPI   C1A 9765  16.741  14.773   6.283  0.3176 -0.1144  0.1143
  698POPI   D2A 9766  16.962  15.054   6.625 -0.1352 -0.0055  0.1502
  698POPI   C3A 9767  17.087  15.061   7.119  0.3561  0.0146  0.1437
  698POPI   C4A 9768  16.909  14.903   7.543 -0.2453 -0.0416 -0.0315
  698POPI   C1B 9769  16.564  15.398   6.281 -0.0071 -0.0898 -0.1720
  698POPI   C2B 9770  16.802  15.499   6.627 -0.0717 -0.0214 -0.1086
  698POPI   C3B 9771  16.817  15.599   7.149  0.0333 -0.2258 -0.1439
  698POPI   C4B 9772  16.852  15.900   7.551 -0.1278 -0.1053  0.0200
  699POPI    C1 9773  11.684  13.123   5.538 -0.2227 -0.0464  0.0520
  699POPI    C2 9774  11.695  12.805   5.296 -0.0638 -0.0095  0.0097
  699POPI    C3 9775  11.908  13.131   5.207  0.0420 -0.0168  0.2284
  699POPI   PO4 9776  11.352  13.086   5.614  0.2520  0.1265  0.1446
  699POPI   GL1 9777  11.239  13.274   5.986 -0.1287  0.1451  0.0021
  699POPI   GL2 9778  11.095  13.290   6.268 -0.3016 -0.4574  0.0804
  699POPI   C1A 9779  11.510  13.019   6.251  0.0714 -0.1408 -0.3198
  699POPI   D2A 9780  11.520  12.893   6.726 -0.2799 -0.2605  0.4719
  699POPI   C3A 9781  11.789  12.619   6.901  0.1224 -0.0945  0.4125
  699POPI   C4A 9782  11.845  12.491   7.319 -0.1161 -0.3285 -0.4059
  699POPI   C1B 9783  11.061  12.825   6.498 -0.0867 -0.2181  0.3317
  699POPI   C2B 9784  10.886  12.535   6.811  0.3305 -0.1891  0.0153
  699POPI   C3B 9785  10.831  12.535   7.300  0.3501 -0.0038  0.1661
  699POPI   C4B 9786  11.003  12.212   7.608  0.2655  0.1627  0.2694
  700POPI    C1 9787  13.285  12.590   6.116  0.0849  0.0678  0.1899
  700POPI    C2 9788  13.138  12.710   5.763 -0.1238  0.0756  0.2779
  700POPI    C3 9789  13.533  12.666   5.811 -0.0817  0.2419  0.0954
  700POPI   PO4 9790  13.043  12.425   6.148  0.1302 -0.1287 -0.0371
  700POPI   GL1 9791  13.004  12.211   6.469  0.2001  0.0234  0.1813
  700POPI   GL2 9792  13.360  12.288   6.563 -0.1786  0.2222  0.3055
  700POPI   C1A 9793  12.985  12.167   6.922 -0.1063 -0.0949  0.1448
  700POPI   D2A 9794  12.939  12.162   7.322 -0.3290 -0.2753 -0.0267
  700POPI   C3A 9795  12.534  12.363   7.455  0.0947 -0.2350  0.1386
  700POPI   C4A 9796  12.256  12.612   7.647  0.2404 -0.1654  0.3181
  700POPI   C1B 9797  13.717  12.271   6.945  0.0553  0.1676  0.0987
  700POPI   C2B 9798  13.846  12.397   7.321 -0.1555  0.1259 -0.0436
  700POPI   C3B 9799  13.718  12.585   7.648 -0.0101  0.4077 -0.0007
  700POPI   C4B 9800  13.937  12.780   7.835 -0.3377 -0.1012 -0.1215
  701POPI    C1 9801   0.010   8.178   5.290  0.2285 -0.2486  0.1469
  701POPI    C2 9802   0.359   8.301   5.139  0.0570 -0.1753 -0.2001
  701POPI    C3 9803   0.198   7.957   5.015  0.0582 -0.2654  0.0424
  701POPI   PO4 9804  -0.026   8.434   5.526  0.1021  0.1356  0.0611
  701POPI   GL1 9805  -0.286   8.302   5.846 -0.0841 -0.2777 -0.2165
  701POPI   GL2 9806   0.099   8.266   5.998  0.0104 -0.1329  0.3899
  701POPI   C1A 9807  -0.364   8.159   6.302  0.1171 -0.1301 -0.0965
  701POPI   D2A 9808  -0.130   8.124   6.639  0.2594  0.0326 -0.0547
  701POPI   C3A 9809  -0.056   7.782   6.941  0.1194 -0.0962 -0.2116
  701POPI   C4A 9810   0.071   7.641   7.348  0.1321 -0.3071  0.3254
  701POPI   C1B 9811   0.273   8.334   6.414  0.1436  0.0872 -0.1796
  701POPI   C2B 9812   0.473   8.306   6.794 -0.1853  0.0631 -0.0793
  701POPI   C3B 9813   0.301   8.123   7.087  0.2677  0.0647  0.1801
  701POPI   C4B 9814  -0.105   8.132   7.275  0.0537 -0.0147 -0.0016
  702POPI    C1 9815   1.009  18.311   5.802 -0.0824 -0.2421 -0.1691
  702POPI    C2 9816   1.084  18.122   5.458  0.2202 -0.1176 -0.1743
  702POPI    C3 9817   1.199  18.502   5.507 -0.0051 -0.0685 -0.0090
  702POPI   PO4 9818   0.994  18.198   6.021 -0.2453  0.4339  0.1537
  702POPI   GL1 9819   0.784  18.001   6.411  0.0854  0.2465  0.1775
  702POPI   GL2 9820   0.551  18.190   6.347  0.3714  0.2732 -0.0808
  702POPI   C1A 9821   0.910  17.967   6.834  0.1129  0.0370  0.2357
  702POPI   D2A 9822   1.212  17.894   7.186  0.4379  0.0703 -0.1518
  702POPI   C3A 9823   1.066  17.611   7.561 -0.1500  0.0767 -0.0064
  702POPI   C4A 9824   0.786  17.430   7.822  0.2981  0.0670  0.0722
  702POPI   C1B 9825   0.577  18.311   6.789 -0.2732 -0.0417  0.0964
  702POPI   C2B 9826   0.527  18.551   7.186 -0.0660  0.0198 -0.0189
  702POPI   C3B 9827   0.632  18.427   7.587 -0.0769  0.0881  0.3462
  702POPI   C4B 9828   0.503  18.728   7.916 -0.4320  0.3288 -0.1394
  703POPI    C1 9829   9.119  10.066   5.237  0.0211 -0.0293 -0.0431
  703POPI    C2 9830   8.758  10.228   5.177 -0.0470 -0.0573  0.2717
  703POPI    C3 9831   9.088  10.425   5.064 -0.1563 -0.0113  0.0244
  703POPI   PO4 9832   9.285  10.134   5.584 -0.1954 -0.3301  0.2347
  703POPI   GL1 9833   9.109  10.136   6.044 -0.0749 -0.0419 -0.0315
  703POPI   GL2 9834   8.973   9.841   6.097 -0.2179  0.0093 -0.0656
  703POPI   C1A 9835   9.175  10.158   6.504  0.0888  0.2356  0.0163
  703POPI   D2A 9836   9.090   9.971   6.868 -0.0039 -0.3113 -0.1557
  703POPI   C3A 9837   9.216   9.909   7.258 -0.0373 -0.3387 -0.1845
  703POPI   C4A 9838   9.526   9.813   7.575 -0.3134 -0.4901 -0.1692
  703POPI   C1B 9839   9.065   9.631   6.479 -0.1326 -0.1919  0.1731
  703POPI   C2B 9840   9.151   9.490   6.890 -0.2413  0.0778  0.0831
  703POPI   C3B 9841   9.433   9.384   7.249 -0.3267  0.0703 -0.0012
  703POPI   C4B 9842   9.785   9.268   7.652 -0.3187  0.3284 -0.0864
  704POPI    C1 9843   7.672   2.048   5.308  0.1195 -0.2507  0.0321
  704POPI    C2 9844   7.478   1.698   5.321 -0.2428 -0.0512  0.1105
  704POPI    C3 9845   7.273   2.040   5.287  0.1195  0.1420 -0.2138
  704POPI   PO4 9846   7.886   1.998   5.542  0.0535  0.1578  0.0146
  704POPI   GL1 9847   8.088   1.667   5.746 -0.1890  0.1249  0.0256
  704POPI   GL2 9848   8.432   1.412   5.881 -0.2174  0.0164 -0.0325
  704POPI   C1A 9849   8.090   1.633   6.199  0.0871  0.0745  0.2370
  704POPI   D2A 9850   8.340   1.738   6.573 -0.2936 -0.1966 -0.0064
  704POPI   C3A 9851   8.334   2.075   6.920  0.2000  0.1888 -0.0818
  704POPI   C4A 9852   8.357   2.248   7.253  0.3321  0.3041 -0.1446
  704POPI   C1B 9853   8.533   1.345   6.289 -0.0382  0.0548 -0.0266
  704POPI   C2B 9854   8.743   1.395   6.742  0.3352  0.1433  0.2545
  704POPI   C3B 9855   8.870   1.506   7.137  0.1959  0.0618 -0.0983
  704POPI   C4B 9856   8.969   1.615   7.627  0.1158 -0.0785  0.0539
  705POPI    C1 9857   0.354   7.591   5.445 -0.0654 -0.1036 -0.1340
  705POPI    C2 9858  -0.029   7.700   5.402  0.0367  0.2592 -0.1581
  705POPI    C3 9859   0.209   7.901   5.653  0.1616 -0.0946  0.0138
  705POPI   PO4 9860   0.420   7.408   5.523  0.0810 -0.1431 -0.1634
  705POPI   GL1 9861   0.769   7.379   5.889 -0.2832  0.0353 -0.1454
  705POPI   GL2 9862   0.502   7.285   6.013  0.0955  0.0907  0.2490
  705POPI   C1A 9863   0.897   7.481   6.373  0.2880  0.0831 -0.2103
  705POPI   D2A 9864   0.798   7.446   6.800  0.0362 -0.4083 -0.0557
  705POPI   C3A 9865   0.586   7.653   7.063  0.1975  0.2809  0.1588
  705POPI   C4A 9866   0.640   7.459   7.430  0.0845 -0.1693  0.1620
  705POPI   C1B 9867   0.185   7.249   6.263  0.1647  0.5313 -0.0563
  705POPI   C2B 9868   0.274   7.319   6.608  0.0023 -0.1499 -0.1734
  705POPI   C3B 9869   0.159   7.246   7.023  0.0036 -0.0692 -0.1576
  705POPI   C4B 9870  -0.003   7.124   7.405  0.3591 -0.0632 -0.0344
  706POPI    C1 9871   5.101  11.868   5.673  0.0506 -0.0466  0.0371
  706POPI    C2 9872   4.854  11.561   5.605 -0.0116  0.0041  0.0334
  706POPI    C3 9873   4.780  11.918   5.439 -0.0265  0.0624  0.1642
  706POPI   PO4 9874   5.091  11.926   5.913  0.2153  0.1189 -0.2426
  706POPI   GL1 9875   5.203  11.783   6.300 -0.1768  0.1438 -0.1748
  706POPI   GL2 9876   5.578  11.961   6.428  0.2390 -0.0335  0.2171
  706POPI   C1A 9877   5.013  11.739   6.607  0.3052 -0.1361  0.3107
  706POPI   D2A 9878   5.049  11.732   7.012  0.1120 -0.0672  0.0333
  706POPI   C3A 9879   5.341  11.799   7.315  0.1317  0.4126 -0.0243
  706POPI   C4A 9880   5.647  12.010   7.654  0.1376  0.1510 -0.0452
  706POPI   C1B 9881   5.511  11.980   6.805 -0.0338 -0.2129 -0.2358
  706POPI   C2B 9882   5.583  12.188   7.180  0.0135  0.2170 -0.3098
  706POPI   C3B 9883   5.293  12.366   7.473 -0.2200  0.1529 -0.0217
  706POPI   C4B 9884   5.471  12.409   7.894  0.1911 -0.4563  0.0141
  707POPI    C1 9885  11.041   4.361   5.104  0.0686 -0.0992  0.1696
  707POPI    C2 9886  11.251   4.530   5.399 -0.0262 -0.0180  0.1911
  707POPI    C3 9887  11.434   4.421   5.061  0.0841 -0.1178  0.2820
  707POPI   PO4 9888  10.807   4.540   5.098  0.0532  0.2635 -0.0240
  707POPI   GL1 9889  10.431   4.545   5.479  0.0197 -0.4230  0.0301
  707POPI   GL2 9890  10.491   4.336   5.694 -0.4037 -0.3256  0.0628
  707POPI   C1A 9891  10.232   4.687   5.871  0.3789  0.0152  0.0932
  707POPI   D2A 9892  10.245   4.598   6.374  0.2786  0.0240 -0.0656
  707POPI   C3A 9893  10.196   4.843   6.783 -0.1478  0.1127 -0.1563
  707POPI   C4A 9894  10.500   4.817   7.192  0.2648 -0.1008 -0.0217
  707POPI   C1B 9895  10.705   4.311   6.030  0.1320 -0.2261 -0.0097
  707POPI   C2B 9896  10.788   4.497   6.379  0.1432  0.0280  0.1611
  707POPI   C3B 9897  10.588   4.503   6.717  0.0960 -0.1859  0.0902
  707POPI   C4B 9898  10.420   4.343   7.035  0.1922 -0.0399 -0.0695
  708POPI    C1 9899  16.353  15.292   5.106  0.1536  0.0540  0.0649
  708POPI    C2 9900  16.339  15.023   4.810  0.1333  0.3598 -0.2179
  708POPI    C3 9901  16.685  15.096   4.998  0.1134  0.0513 -0.0542
  708POPI   PO4 9902  16.153  15.193   5.306  0.1758  0.1404 -0.0237
  708POPI   GL1 9903  16.164  14.896   5.648  0.1269  0.1561 -0.4198
  708POPI   GL2 9904  16.193  14.617   5.796 -0.1755 -0.1876  0.0494
  708POPI   C1A 9905  16.225  15.049   6.088 -0.4027 -0.1636 -0.1664
  708POPI   D2A 9906  16.248  15.097   6.506 -0.0002  0.0857  0.1827
  708POPI   C3A 9907  16.477  14.749   6.712 -0.0532  0.0496  0.4233
  708POPI   C4A 9908  16.310  14.497   6.945 -0.1855 -0.1203  0.1289
  708POPI   C1B 9909  16.219  14.612   6.282  0.1579 -0.1248 -0.4271
  708POPI   C2B 9910  15.975  14.633   6.636 -0.0699  0.2454 -0.1522
  708POPI   C3B 9911  15.839  14.491   7.059  0.0273  0.1147 -0.0032
  708POPI   C4B 9912  16.008  14.389   7.432  0.0731 -0.0239  0.2218
  709POPI    C1 9913  13.513   7.173   5.031  0.3206 -0.1292  0.0389
  709POPI    C2 9914  13.207   6.928   4.953 -0.0643  0.3614 -0.0439
  709POPI    C3 9915  13.527   6.930   4.714 -0.0729 -0.0248 -0.0643
  709POPI   PO4 9916  13.638   7.108   5.341 -0.0888 -0.1719 -0.1729
  709POPI   GL1 9917  13.452   6.957   5.697 -0.0211  0.1639 -0.4043
  709POPI   GL2 9918  13.622   6.854   6.018  0.1240 -0.4384 -0.0483
  709POPI   C1A 9919  13.101   6.747   5.924 -0.0703 -0.0426 -0.0469
  709POPI   D2A 9920  12.949   6.502   6.321 -0.0491  0.0344 -0.1437
  709POPI   C3A 9921  12.996   6.614   6.720  0.0058  0.0616 -0.2430
  709POPI   C4A 9922  13.102   6.694   7.161 -0.0762 -0.3302 -0.0031
  709POPI   C1B 9923  13.700   6.964   6.430  0.1109  0.1553  0.0487
  709POPI   C2B 9924  13.512   6.687   6.793  0.1487 -0.0783 -0.0417
  709POPI   C3B 9925  13.635   6.811   7.255  0.4001  0.1636 -0.3028
  709POPI   C4B 9926  13.459   6.721   7.646 -0.1396  0.0037  0.1651
  710POPI    C1 9927   9.112  17.682   5.373 -0.0315  0.0021  0.1633
  710POPI    C2 9928   8.742  17.547   5.304 -0.0418  0.1972 -0.1852
  710POPI    C3 9929   9.041  17.288   5.363 -0.2216  0.0379  0.0439
  710POPI   PO4 9930   8.990  17.844   5.558 -0.4124 -0.0136  0.0327
  710POPI   GL1 9931   9.235  17.828   6.027  0.1107  0.1700  0.0466
  710POPI   GL2 9932   9.355  18.105   6.137 -0.0428 -0.0001  0.1172
  710POPI   C1A 9933   9.213  17.498   6.263  0.0774 -0.1848  0.2137
  710POPI   D2A 9934   8.859  17.237   6.433  0.1303 -0.0191 -0.0048
  710POPI   C3A 9935   8.865  17.069   6.900 -0.2089  0.4504 -0.0485
  710POPI   C4A 9936   8.861  16.745   7.191 -0.0334 -0.3581 -0.0068
  710POPI   C1B 9937   9.178  18.245   6.452  0.0557  0.1634 -0.1446
  710POPI   C2B 9938   8.896  18.200   6.794  0.1397 -0.0825 -0.1641
  710POPI   C3B 9939   8.736  17.882   7.105 -0.0135  0.0041  0.0321
  710POPI   C4B 9940   8.831  17.766   7.514  0.3515 -0.5967 -0.4044
  711POPI    C1 9941  10.273   7.809   5.135 -0.0618  0.0831  0.2725
  711POPI    C2 9942   9.938   7.784   4.917 -0.0442  0.1469  0.2377
  711POPI    C3 9943  10.284   7.646   4.769 -0.0358  0.1731  0.2330
  711POPI   PO4 9944  10.193   8.005   5.380  0.0504  0.2212  0.0482
  711POPI   GL1 9945  10.155   7.792   5.845 -0.1684  0.0969  0.1719
  711POPI   GL2 9946   9.828   7.715   5.562 -0.0115  0.1606 -0.1125
  711POPI   C1A 9947  10.386   7.995   6.215 -0.4002  0.2524  0.0874
  711POPI   D2A 9948  10.718   8.193   6.434 -0.0371  0.2231 -0.1848
  711POPI   C3A 9949  10.734   8.209   6.830  0.0205  0.0100  0.1857
  711POPI   C4A 9950  11.007   8.411   7.133  0.0275 -0.0912  0.0353
  711POPI   C1B 9951   9.732   7.726   5.981  0.0634 -0.0347 -0.0503
  711POPI   C2B 9952   9.691   7.712   6.355 -0.0895 -0.0565 -0.2266
  711POPI   C3B 9953   9.809   7.817   6.872  0.1385  0.0704  0.3577
  711POPI   C4B 9954   9.726   7.807   7.311 -0.2618 -0.1126  0.2539
  712POPI    C1 9955  16.427   6.287   5.029  0.2698 -0.1674  0.0487
  712POPI    C2 9956  16.613   6.593   4.852 -0.0018  0.0620  0.1518
  712POPI    C3 9957  16.338   6.383   4.651  0.1138 -0.0535  0.1130
  712POPI   PO4 9958  16.388   6.417   5.331 -0.3178  0.0995 -0.4389
  712POPI   GL1 9959  16.234   6.274   5.643 -0.0356  0.0446 -0.0066
  712POPI   GL2 9960  16.350   6.022   5.892 -0.4851 -0.2659 -0.1332
  712POPI   C1A 9961  16.379   6.454   6.097 -0.1471  0.2053  0.2173
  712POPI   D2A 9962  16.512   6.941   6.266 -0.2002  0.2632 -0.4323
  712POPI   C3A 9963  16.518   6.896   6.765 -0.0627 -0.0695 -0.2238
  712POPI   C4A 9964  16.434   6.557   7.045 -0.1150  0.2226  0.2650
  712POPI   C1B 9965  16.473   5.763   6.263 -0.2707  0.0766  0.0262
  712POPI   C2B 9966  16.630   5.771   6.675  0.3480  0.0146  0.3290
  712POPI   C3B 9967  16.796   5.575   7.025 -0.0548 -0.1867  0.0445
  712POPI   C4B 9968  16.789   5.641   7.454 -0.1238 -0.1685 -0.2833
  713POPI    C1 9969   8.715   7.948   5.356 -0.1274 -0.2115 -0.2558
  713POPI    C2 9970   8.687   7.978   4.958 -0.1168  0.0822 -0.2365
  713POPI    C3 9971   9.006   8.128   5.148 -0.0446 -0.1996 -0.1309
  713POPI   PO4 9972   8.674   7.725   5.420 -0.1379  0.0418 -0.3148
  713POPI   GL1 9973   8.642   7.610   5.798  0.1265 -0.2168  0.0417
  713POPI   GL2 9974   8.741   8.018   5.921  0.0399  0.2403 -0.3906
  713POPI   C1A 9975   8.538   7.483   6.249 -0.1167  0.3267 -0.0027
  713POPI   D2A 9976   8.587   7.411   6.610  0.2133  0.0148  0.0334
  713POPI   C3A 9977   8.943   7.398   6.948  0.2092  0.1641 -0.0062
  713POPI   C4A 9978   9.096   7.663   7.221  0.0736  0.3247 -0.1484
  713POPI   C1B 9979   8.744   7.929   6.434  0.1696 -0.0197 -0.2102
  713POPI   C2B 9980   8.674   7.832   6.871 -0.0557  0.0828  0.2400
  713POPI   C3B 9981   8.590   7.927   7.262  0.2264 -0.0908  0.2135
  713POPI   C4B 9982   8.752   8.247   7.515 -0.0122 -0.1061 -0.1662
  714POPI    C1 9983  15.917  14.698   5.299  0.0569 -0.2303  0.1640
  714POPI    C2 9984  15.771  14.735   4.928  0.2777 -0.0703  0.0911
  714POPI    C3 9985  15.668  14.999   5.211  0.1128 -0.1898  0.1439
  714POPI   PO4 9986  16.031  14.505   5.309 -0.1311  0.2115 -0.1859
  714POPI   GL1 9987  15.838  14.122   5.521  0.1735  0.0646  0.1021
  714POPI   GL2 9988  16.183  14.078   5.679  0.1478 -0.0952 -0.1795
  714POPI   C1A 9989  15.701  14.165   5.955 -0.3293  0.1242 -0.3316
  714POPI   D2A 9990  15.688  14.366   6.363  0.0322  0.1016 -0.0367
  714POPI   C3A 9991  15.879  14.123   6.653  0.0717 -0.0354  0.2486
  714POPI   C4A 9992  15.972  14.020   6.994 -0.0002 -0.0496 -0.0043
  714POPI   C1B 9993  16.224  14.050   6.225 -0.1027 -0.0628 -0.1949
  714POPI   C2B 9994  16.338  13.961   6.694 -0.1182  0.1032 -0.2731
  714POPI   C3B 9995  16.362  14.125   7.241  0.0453  0.2442  0.2462
  714POPI   C4B 9996  16.197  13.941   7.545  0.0034  0.0963 -0.0881
  715POPI    C1 9997  12.680   1.373   5.636 -0.0918 -0.2757 -0.0549
  715POPI    C2 9998  12.606   1.517   5.270  0.2806 -0.1128 -0.0706
  715POPI    C3 9999  12.307   1.473   5.532  0.0392 -0.0621 -0.3331
  715POPI   PO410000  12.981   1.252   5.488 -0.1961 -0.1763  0.1324
  715POPI   GL110001  13.408   1.377   5.584  0.1544  0.0639 -0.4878
  715POPI   GL210002  13.401   1.119   5.839  0.1229  0.0737  0.3649
  715POPI   C1A10003  13.753   1.621   5.764  0.3096 -0.1837 -0.1761
  715POPI   D2A10004  14.048   1.910   5.836 -0.0271 -0.4026 -0.2921
  715POPI   C3A10005  14.247   1.788   6.207 -0.1416 -0.2875 -0.2574
  715POPI   C4A10006  14.450   1.496   6.217  0.0532  0.0575  0.0003
  715POPI   C1B10007  13.598   1.300   6.322 -0.0395  0.0570 -0.2213
  715POPI   C2B10008  13.518   1.434   6.730 -0.2561  0.3384 -0.0615
  715POPI   C3B10009  13.617   1.576   7.186  0.3001 -0.1321  0.0444
  715POPI   C4B10010  13.884   1.593   7.481 -0.2397 -0.0291 -0.0972
  716POPI    C110011  14.404  10.317   5.038 -0.0288 -0.1454  0.1321
  716POPI    C210012  14.439  10.708   4.966 -0.0954 -0.1373  0.1436
  716POPI    C310013  14.558  10.443   4.691  0.0182 -0.1096  0.1659
  716POPI   PO410014  14.473  10.292   5.312  0.0176 -0.0455  0.0933
  716POPI   GL110015  14.244  10.488   5.768 -0.3057  0.0995 -0.0343
  716POPI   GL210016  14.318  10.184   5.791 -0.2461 -0.0932  0.4329
  716POPI   C1A10017  13.980  10.415   6.084  0.2566  0.2245 -0.2667
  716POPI   D2A10018  13.862  10.235   6.372 -0.2201  0.0543 -0.0470
  716POPI   C3A10019  13.606   9.913   6.287  0.0989 -0.2619  0.4312
  716POPI   C4A10020  13.053   9.904   6.328 -0.0083  0.0365  0.0561
  716POPI   C1B10021  14.344  10.133   6.204 -0.5306  0.2107  0.1831
  716POPI   C2B10022  14.408  10.110   6.690 -0.4335  0.1226 -0.3957
  716POPI   C3B10023  14.310  10.177   7.104 -0.0796 -0.0554 -0.3946
  716POPI   C4B10024  14.208   9.906   7.412 -0.2407 -0.2396 -0.3256
  717POPI    C110025   9.431   4.844   4.639  0.1655 -0.2625 -0.1313
  717POPI    C210026   9.703   5.020   4.405  0.0991  0.0097 -0.0072
  717POPI    C310027   9.322   5.142   4.395  0.1089  0.0707  0.2903
  717POPI   PO410028   9.628   4.879   5.016 -0.2247  0.2850  0.0208
  717POPI   GL110029   9.421   4.859   5.410  0.0918  0.0467  0.0035
  717POPI   GL210030   9.638   4.659   5.524 -0.2810  0.0876 -0.0975
  717POPI   C1A10031   9.126   4.694   5.760 -0.1264 -0.1575 -0.1483
  717POPI   D2A10032   8.774   4.937   6.039 -0.3114 -0.0185 -0.1539
  717POPI   C3A10033   8.732   5.266   6.362  0.0261  0.2062  0.3122
  717POPI   C4A10034   8.587   5.585   6.667 -0.2497  0.3371  0.1427
  717POPI   C1B10035   9.772   4.858   5.808 -0.2773 -0.1266 -0.0747
  717POPI   C2B10036   9.866   5.017   6.098 -0.1019  0.1790 -0.0824
  717POPI   C3B10037   9.847   5.390   6.187  0.0431  0.2208  0.1721
  717POPI   C4B10038  10.016   5.512   6.433  0.2526  0.0818  0.1550
  718POPI    C110039   6.338   7.826   5.104 -0.1435  0.2863  0.0262
  718POPI    C210040   6.233   7.684   4.745 -0.1048  0.0975  0.0885
  718POPI    C310041   6.578   7.880   4.790  0.1419 -0.3328  0.1232
  718POPI   PO410042   6.157   7.886   5.179  0.0634 -0.0373  0.6575
  718POPI   GL110043   6.039   7.830   5.527  0.0591  0.2659 -0.0760
  718POPI   GL210044   6.238   7.561   5.513 -0.1085  0.0500 -0.4398
  718POPI   C1A10045   5.969   7.712   5.934 -0.0088 -0.0811 -0.0602
  718POPI   D2A10046   6.225   7.555   6.249 -0.0316 -0.1413 -0.1377
  718POPI   C3A10047   6.220   7.841   6.521 -0.2618  0.1629 -0.4717
  718POPI   C4A10048   6.380   8.271   6.795  0.1488 -0.3873  0.1264
  718POPI   C1B10049   6.098   7.289   5.851  0.0584  0.0458 -0.0920
  718POPI   C2B10050   6.017   6.918   6.145 -0.2187  0.0284 -0.2181
  718POPI   C3B10051   6.229   6.531   6.126  0.1654  0.2807 -0.1334
  718POPI   C4B10052   6.356   6.335   5.703 -0.0931 -0.2877  0.0975
  719POPI    C110053  10.469  13.337   5.285 -0.1676 -0.1824 -0.3485
  719POPI    C210054  10.511  13.631   5.554 -0.1470 -0.5096  0.0150
  719POPI    C310055  10.376  13.714   5.186 -0.0787 -0.0394  0.0894
  719POPI   PO410056  10.627  13.112   5.496 -0.1777 -0.3440  0.2086
  719POPI   GL110057  10.819  12.971   5.865  0.2853 -0.2162  0.2432
  719POPI   GL210058  11.087  12.797   5.977 -0.1645 -0.1892 -0.0068
  719POPI   C1A10059  10.683  13.008   6.298 -0.1596  0.0927  0.2913
  719POPI   D2A10060  10.478  12.678   6.498 -0.3025 -0.0550  0.3463
  719POPI   C3A10061  10.036  12.629   6.632  0.0752 -0.0217 -0.1351
  719POPI   C4A10062   9.963  12.319   6.988  0.1554 -0.2094 -0.0791
  719POPI   C1B10063  10.817  12.488   6.208 -0.1427 -0.0408  0.0922
  719POPI   C2B10064  10.940  12.123   6.515 -0.0892  0.2019 -0.1760
  719POPI   C3B10065  11.028  12.010   6.936 -0.2814 -0.0802 -0.1233
  719POPI   C4B10066  10.966  11.735   7.251  0.4940  0.1007 -0.2222
  720POPI    C110067  18.860  13.902   5.112 -0.0621 -0.0077  0.0102
  720POPI    C210068  18.490  13.876   5.261 -0.1020 -0.0253 -0.0917
  720POPI    C310069  18.590  13.667   4.935 -0.0166  0.0173 -0.0930
  720POPI   PO410070  18.948  14.077   5.241  0.1623  0.0244  0.0689
  720POPI   GL110071  19.035  14.277   5.626  0.0440  0.0168  0.1528
  720POPI   GL210072  19.143  14.314   5.814 -0.0684 -0.2975  0.1717
  720POPI   C1A10073  18.924  13.869   5.842  0.1472  0.1095  0.0228
  720POPI   D2A10074  19.003  13.470   5.973 -0.1421 -0.0398  0.0232
  720POPI   C3A10075  18.817  13.072   6.079  0.2632  0.1003 -0.0447
  720POPI   C4A10076  18.633  12.739   6.235 -0.2922  0.2304  0.3320
  720POPI   C1B10077  18.820  14.369   6.164  0.1767 -0.2027 -0.3679
  720POPI   C2B10078  18.465  14.329   6.512  0.0961 -0.1232 -0.1585
  720POPI   C3B10079  18.367  14.164   6.996 -0.2867 -0.0584 -0.1519
  720POPI   C4B10080  18.565  13.866   7.303  0.0836  0.1152  0.1759
  721POPI    C110081   5.663  14.137   5.395  0.1522  0.3015  0.0510
  721POPI    C210082   5.456  14.024   5.072 -0.1403  0.1546  0.2841
  721POPI    C310083   5.841  13.920   5.110 -0.1026  0.1754 -0.0155
  721POPI   PO410084   5.439  14.128   5.620 -0.0580  0.0414 -0.1574
  721POPI   GL110085   5.215  14.191   6.009 -0.1939  0.5170 -0.2986
  721POPI   GL210086   5.017  13.957   6.156 -0.2250  0.1292  0.1543
  721POPI   C1A10087   5.462  14.268   6.324  0.0436 -0.2118 -0.1999
  721POPI   D2A10088   5.620  14.021   6.677 -0.1321  0.0814  0.1370
  721POPI   C3A10089   5.581  14.112   7.066  0.0748  0.0840  0.3420
  721POPI   C4A10090   5.527  14.329   7.499 -0.4579 -0.3649  0.1292
  721POPI   C1B10091   5.167  13.937   6.594 -0.0696 -0.0303  0.1260
  721POPI   C2B10092   5.109  13.934   7.079 -0.2211  0.0483 -0.0808
  721POPI   C3B10093   4.934  13.832   7.481  0.2463 -0.1915 -0.1605
  721POPI   C4B10094   5.261  13.974   7.664 -0.2003 -0.3936  0.3223
  722POPI    C110095  10.938   7.147   5.108 -0.3028 -0.1982 -0.0632
  722POPI    C210096  10.738   7.454   4.948 -0.3081 -0.1608  0.0152
  722POPI    C310097  11.071   7.320   4.772 -0.1848  0.0312  0.0995
  722POPI   PO410098  10.979   7.219   5.423 -0.2431  0.0176 -0.1531
  722POPI   GL110099  10.851   7.637   5.735  0.1111 -0.0156 -0.2769
  722POPI   GL210100  10.709   7.806   5.766 -0.1846  0.3297  0.1648
  722POPI   C1A10101  10.929   7.751   6.228 -0.0676  0.1107 -0.1105
  722POPI   D2A10102  11.172   7.633   6.627 -0.0050  0.2303  0.0714
  722POPI   C3A10103  11.088   7.608   7.081  0.0784  0.2343  0.0515
  722POPI   C4A10104  11.004   7.903   7.437  0.0830  0.4414  0.1741
  722POPI   C1B10105  10.622   7.336   6.075 -0.1484 -0.0057 -0.1430
  722POPI   C2B10106  10.515   7.221   6.516  0.1428 -0.3999 -0.4079
  722POPI   C3B10107  10.408   6.848   6.710 -0.0720 -0.2193 -0.2671
  722POPI   C4B10108  10.740   6.600   6.961 -0.4769  0.1031  0.0359
  723POPI    C110109   2.691   2.428   5.491  0.0204 -0.3121  0.1645
  723POPI    C210110   3.063   2.478   5.353 -0.2439  0.3110 -0.3751
  723POPI    C310111   2.851   2.156   5.245  0.0493  0.0733 -0.2565
  723POPI   PO410112   2.632   2.693   5.493 -0.0040  0.0746 -0.0547
  723POPI   GL110113   2.372   2.920   5.880 -0.3204  0.3435  0.2139
  723POPI   GL210114   2.364   3.204   5.818 -0.1780  0.1288  0.1546
  723POPI   C1A10115   2.249   3.006   6.286 -0.3374  0.1480 -0.0077
  723POPI   D2A10116   2.178   2.841   6.703 -0.1489 -0.1441  0.0175
  723POPI   C3A10117   2.047   3.008   7.230 -0.2718  0.5601  0.1747
  723POPI   C4A10118   2.012   3.318   7.477  0.2923 -0.1010 -0.4242
  723POPI   C1B10119   2.278   3.445   6.115 -0.0492 -0.3354  0.3427
  723POPI   C2B10120   2.389   3.528   6.533  0.1877 -0.2084 -0.0738
  723POPI   C3B10121   2.526   3.879   6.830 -0.1005  0.0335 -0.1729
  723POPI   C4B10122   2.633   4.238   7.139 -0.1734 -0.0150 -0.4839
  724POPI    C110123  14.899  18.560   5.396 -0.1431  0.0217  0.0218
  724POPI    C210124  14.619  18.672   5.659  0.0434  0.1916  0.1519
  724POPI    C310125  14.689  18.894   5.334 -0.2777 -0.0874 -0.1164
  724POPI   PO410126  15.162  18.470   5.598  0.4512  0.1398  0.1410
  724POPI   GL110127  15.336  18.485   6.085  0.0990 -0.0751 -0.0662
  724POPI   GL210128  15.219  18.662   6.319 -0.0230 -0.2709 -0.1181
  724POPI   C1A10129  15.668  18.391   6.502 -0.0125 -0.0993 -0.1227
  724POPI   D2A10130  15.706  18.469   6.842 -0.2970  0.0808  0.2626
  724POPI   C3A10131  15.800  18.807   7.046 -0.2783  0.0973 -0.0882
  724POPI   C4A10132  15.443  19.070   7.157  0.0790  0.1555  0.0923
  724POPI   C1B10133  14.790  18.496   6.450 -0.0479 -0.0619 -0.1423
  724POPI   C2B10134  14.657  18.160   6.776  0.1191  0.1025  0.2330
  724POPI   C3B10135  14.661  18.112   7.252  0.0340 -0.1047  0.0031
  724POPI   C4B10136  15.034  18.157   7.580 -0.2198 -0.0661  0.1406
  725POPI    C110137  16.677  16.689   5.403 -0.1107  0.1364  0.0780
  725POPI    C210138  16.456  16.801   5.090  0.0919 -0.0726 -0.1437
  725POPI    C310139  16.789  16.588   5.033  0.1264 -0.1203  0.2166
  725POPI   PO410140  16.511  16.885   5.578 -0.0539 -0.0461  0.0997
  725POPI   GL110141  16.207  16.756   5.816 -0.0113 -0.0119 -0.0824
  725POPI   GL210142  16.063  16.530   5.904  0.1604 -0.1304 -0.1360
  725POPI   C1A10143  16.280  17.108   6.278 -0.3509  0.1577 -0.4828
  725POPI   D2A10144  16.101  17.413   6.505 -0.0542 -0.0236 -0.0445
  725POPI   C3A10145  15.944  17.207   6.934  0.3488  0.2852  0.0261
  725POPI   C4A10146  15.745  17.260   7.358  0.0912  0.0714 -0.1332
  725POPI   C1B10147  16.041  16.186   6.220  0.0170 -0.2795  0.3155
  725POPI   C2B10148  16.159  16.180   6.504  0.0193 -0.5537  0.0572
  725POPI   C3B10149  16.228  16.264   6.898 -0.0699  0.0637  0.0421
  725POPI   C4B10150  16.348  16.400   7.256  0.2176 -0.1418  0.4714
  726POPI    C110151   2.417  16.231   5.227 -0.0472  0.2091 -0.0642
  726POPI    C210152   2.129  16.508   5.222 -0.1027  0.1596  0.2035
  726POPI    C310153   2.041  16.127   5.141 -0.0940  0.1602  0.1911
  726POPI   PO410154   2.503  16.217   5.522 -0.0545 -0.1795  0.0095
  726POPI   GL110155   2.358  16.270   5.921  0.1181 -0.2967 -0.0538
  726POPI   GL210156   2.572  16.465   6.136  0.1171  0.1301  0.2639
  726POPI   C1A10157   2.191  16.000   6.159  0.2126  0.0449  0.0209
  726POPI   D2A10158   2.247  15.635   6.381 -0.2399  0.0543 -0.0394
  726POPI   C3A10159   2.626  15.680   6.655  0.3114 -0.3081  0.2438
  726POPI   C4A10160   3.088  15.896   6.592  0.2528 -0.1395  0.1594
  726POPI   C1B10161   2.628  16.711   6.387  0.0893 -0.1269 -0.1777
  726POPI   C2B10162   2.770  17.100   6.445 -0.0397  0.0875  0.1345
  726POPI   C3B10163   3.190  17.374   6.409  0.0889 -0.1862 -0.0566
  726POPI   C4B10164   3.416  17.643   6.200  0.0379 -0.1846 -0.2125
  727POPI    C110165   9.530  14.684   5.770 -0.0556  0.0429  0.0622
  727POPI    C210166   9.438  14.411   5.493  0.0320  0.1400 -0.0636
  727POPI    C310167   9.610  14.755   5.384 -0.0910  0.2517  0.0924
  727POPI   PO410168   9.500  14.540   6.049 -0.1260  0.1237  0.1400
  727POPI   GL110169   9.587  14.549   6.386 -0.0514 -0.0120  0.3841
  727POPI   GL210170   9.546  14.827   6.466 -0.1646 -0.2207 -0.2331
  727POPI   C1A10171   9.533  14.328   6.749 -0.3630 -0.2526  0.0199
  727POPI   D2A10172   9.797  13.979   6.989 -0.2051 -0.1265  0.0534
  727POPI   C3A10173   9.634  13.716   7.271 -0.0147  0.1179  0.0227
  727POPI   C4A10174   9.531  13.794   7.673 -0.0515  0.3713 -0.3563
  727POPI   C1B10175   9.749  14.794   6.795  0.1243  0.1589  0.0487
  727POPI   C2B10176   9.746  14.609   7.231  0.0298 -0.3095  0.2128
  727POPI   C3B10177   9.693  14.665   7.660  0.1532 -0.2374  0.1508
  727POPI   C4B10178   9.427  14.683   8.009  0.2617 -0.0357 -0.3718
  728POPI    C110179   0.518  18.518   5.800 -0.0587  0.0902 -0.0075
  728POPI    C210180   0.740  18.567   5.471 -0.0150  0.1975  0.0376
  728POPI    C310181   0.379  18.738   5.497 -0.0958  0.0391 -0.0279
  728POPI   PO410182   0.629  18.581   5.954  0.1999 -0.1932 -0.2038
  728POPI   GL110183   0.537  18.694   6.360 -0.1304 -0.4311 -0.1622
  728POPI   GL210184   0.170  18.990   6.323 -0.2272  0.1188  0.2643
  728POPI   C1A10185   0.580  18.951   6.735 -0.0079 -0.1004  0.3302
  728POPI   D2A10186   0.790  18.980   7.205 -0.0561  0.1776 -0.2707
  728POPI   C3A10187   0.836  19.369   7.356 -0.0855 -0.0109  0.0671
  728POPI   C4A10188   0.559  19.654   7.752 -0.2590 -0.2248  0.1550
  728POPI   C1B10189   0.142  19.117   6.753  0.2881 -0.0720 -0.3119
  728POPI   C2B10190   0.306  19.117   7.165  0.0902 -0.1610  0.1117
  728POPI   C3B10191   0.420  19.129   7.570  0.1859 -0.0227 -0.0875
  728POPI   C4B10192   0.296  19.219   7.971  0.0524 -0.0175  0.1951
  729POPI    C110193   8.013   6.260   5.265  0.2248  0.0111 -0.0718
  729POPI    C210194   8.407   6.252   5.193  0.2076  0.0170 -0.1672
  729POPI    C310195   8.168   6.488   4.975  0.1281 -0.1140 -0.2236
  729POPI   PO410196   7.913   6.289   5.558  0.2242 -0.3124 -0.0092
  729POPI   GL110197   8.015   6.445   5.913 -0.3424 -0.1179  0.0098
  729POPI   GL210198   8.316   6.317   5.790 -0.0692  0.1522  0.0309
  729POPI   C1A10199   7.803   6.602   6.260 -0.0722  0.2116 -0.0422
  729POPI   D2A10200   7.923   6.755   6.552 -0.3679  0.0763  0.1496
  729POPI   C3A10201   8.102   6.591   6.929 -0.3153 -0.3272 -0.4519
  729POPI   C4A10202   7.924   6.432   7.373 -0.0898 -0.0202 -0.3871
  729POPI   C1B10203   8.221   6.376   6.349 -0.3004  0.0570  0.0311
  729POPI   C2B10204   8.001   6.219   6.553  0.0128 -0.0907 -0.1292
  729POPI   C3B10205   7.822   6.165   6.952 -0.0053  0.2668  0.1933
  729POPI   C4B10206   7.430   6.198   7.266 -0.1400  0.0701  0.3732
  730POPI    C110207  15.970   3.694   4.976 -0.1141 -0.2670 -0.3369
  730POPI    C210208  16.335   3.535   4.938 -0.1454 -0.4470  0.0668
  730POPI    C310209  16.294   3.930   4.987 -0.0221 -0.3975 -0.2078
  730POPI   PO410210  15.894   3.569   5.165 -0.0798  0.5327  0.1047
  730POPI   GL110211  15.695   3.559   5.528  0.0374 -0.1454  0.3381
  730POPI   GL210212  15.751   3.871   5.715 -0.2751  0.1056 -0.0734
  730POPI   C1A10213  15.624   3.322   5.826 -0.2474 -0.3826  0.3927
  730POPI   D2A10214  15.590   2.999   6.095 -0.1287 -0.2363  0.0492
  730POPI   C3A10215  15.955   2.822   6.391  0.1499  0.0258 -0.0977
  730POPI   C4A10216  16.069   2.963   6.813 -0.0341  0.1044  0.1834
  730POPI   C1B10217  15.527   3.813   6.040 -0.2046 -0.4215 -0.0119
  730POPI   C2B10218  15.333   3.970   6.390 -0.1083  0.2155  0.3191
  730POPI   C3B10219  15.579   4.047   6.823 -0.2814  0.1376  0.4023
  730POPI   C4B10220  15.824   3.992   7.202 -0.1299  0.2488 -0.0361
  731POPI    C110221  14.195   5.708   5.375 -0.1187  0.2759  0.0491
  731POPI    C210222  14.004   5.467   5.119 -0.4210  0.4007  0.1523
  731POPI    C310223  14.327   5.670   5.000 -0.1688 -0.0414  0.0602
  731POPI   PO410224  13.976   5.526   5.633 -0.1813  0.0445  0.1096
  731POPI   GL110225  13.831   5.634   5.906  0.0545 -0.1830 -0.2401
  731POPI   GL210226  13.676   5.220   5.889  0.1409  0.1957 -0.0281
  731POPI   C1A10227  13.862   5.468   6.308  0.0153  0.0384 -0.1421
  731POPI   D2A10228  13.818   5.036   6.430  0.1251  0.0017  0.0741
  731POPI   C3A10229  13.640   4.913   6.776  0.0205  0.2055  0.0977
  731POPI   C4A10230  13.764   4.891   7.310 -0.5350  0.4472  0.0539
  731POPI   C1B10231  13.327   5.102   6.251  0.3296  0.1225 -0.0572
  731POPI   C2B10232  13.128   4.927   6.762 -0.0525  0.1449  0.1759
  731POPI   C3B10233  12.879   4.939   7.129  0.0792 -0.0667 -0.3162
  731POPI   C4B10234  12.533   4.846   7.436 -0.1025 -0.2258  0.0544
  732POPI    C110235   7.375  11.124   5.842  0.1587 -0.0282 -0.1066
  732POPI    C210236   7.482  11.236   6.211  0.2575 -0.0760 -0.1205
  732POPI    C310237   7.313  11.501   5.963 -0.4943 -0.2213  0.2080
  732POPI   PO410238   7.187  11.000   5.873 -0.2099  0.1707 -0.0592
  732POPI   GL110239   6.826  11.069   6.109  0.0271 -0.0938  0.1800
  732POPI   GL210240   7.089  10.952   6.310  0.0650 -0.0279 -0.1221
  732POPI   C1A10241   6.742  11.085   6.655 -0.0046  0.2181 -0.2244
  732POPI   D2A10242   6.730  11.273   7.069  0.2019 -0.0734 -0.0949
  732POPI   C3A10243   6.719  11.348   7.532  0.1402 -0.1773  0.2658
  732POPI   C4A10244   7.081  11.520   7.570  0.3978  0.0657  0.1943
  732POPI   C1B10245   7.409  10.853   6.545 -0.1264  0.3674 -0.0847
  732POPI   C2B10246   7.811  10.711   6.834 -0.2942 -0.1993 -0.0785
  732POPI   C3B10247   7.855  10.855   7.223 -0.1023  0.1731 -0.1447
  732POPI   C4B10248   8.158  10.969   7.526  0.1614 -0.0597 -0.4549
  733POPI    C110249  18.847   5.310   5.623  0.0166 -0.0884  0.0493
  733POPI    C210250  18.471   5.445   5.623  0.0520  0.0133  0.2573
  733POPI    C310251  18.596   5.201   5.332 -0.1689 -0.0063  0.1771
  733POPI   PO410252  18.909   5.333   5.786  0.0464  0.2374  0.1139
  733POPI   GL110253  18.849   5.290   6.221  0.4117  0.3550  0.1282
  733POPI   GL210254  19.055   4.973   6.156  0.0583 -0.3311  0.0084
  733POPI   C1A10255  18.887   5.259   6.588 -0.1195  0.3039 -0.3061
  733POPI   D2A10256  18.814   4.951   6.989  0.1900 -0.1116 -0.0266
  733POPI   C3A10257  18.398   4.719   7.030  0.0442  0.0986 -0.0092
  733POPI   C4A10258  18.019   4.670   7.227 -0.0380  0.0056  0.0897
  733POPI   C1B10259  18.672   4.801   6.484  0.5001  0.0502  0.2156
  733POPI   C2B10260  18.267   4.757   6.511 -0.2478  0.1896  0.0734
  733POPI   C3B10261  17.886   4.632   6.513  0.3076 -0.0580  0.3084
  733POPI   C4B10262  17.577   4.556   6.881  0.3700 -0.1717 -0.1815
  734POPI    C110263   1.600  16.110   5.633  0.0759 -0.0755 -0.1045
  734POPI    C210264   1.685  16.424   5.401 -0.0253  0.2953  0.3462
  734POPI    C310265   1.948  16.302   5.676  0.1445 -0.2152 -0.0271
  734POPI   PO410266   1.399  16.068   5.535 -0.0515  0.4572  0.0869
  734POPI   GL110267   1.160  16.008   5.939  0.0976 -0.1165  0.0007
  734POPI   GL210268   0.782  16.030   6.099 -0.1494 -0.1522  0.1459
  734POPI   C1A10269   1.505  15.909   6.142  0.0783 -0.2124 -0.0760
  734POPI   D2A10270   1.788  15.524   6.281 -0.1551 -0.0431  0.1466
  734POPI   C3A10271   1.933  15.389   6.657 -0.2508  0.2207 -0.1440
  734POPI   C4A10272   2.315  15.384   6.901 -0.3632  0.0096  0.0291
  734POPI   C1B10273   1.114  15.982   6.477 -0.0284  0.1011 -0.0671
  734POPI   C2B10274   1.326  16.095   6.976  0.1054 -0.1092  0.1415
  734POPI   C3B10275   1.190  16.175   7.360 -0.1634 -0.2458  0.0473
  734POPI   C4B10276   1.037  16.558   7.447  0.0849  0.0425  0.3621
  735POPI    C110277   3.555   7.415   5.205 -0.1731  0.1503  0.1116
  735POPI    C210278   3.538   7.729   5.453  0.0501  0.1664  0.1083
  735POPI    C310279   3.773   7.742   5.129 -0.2236  0.1374 -0.0953
  735POPI   PO410280   3.533   7.213   5.378 -0.0035  0.0894  0.0488
  735POPI   GL110281   3.680   7.217   5.695  0.0421 -0.1000 -0.2858
  735POPI   GL210282   3.985   7.438   5.647 -0.1069  0.1191  0.0041
  735POPI   C1A10283   3.659   7.353   6.090  0.3115  0.3525 -0.0318
  735POPI   D2A10284   3.514   7.110   6.496 -0.1386 -0.0579 -0.3669
  735POPI   C3A10285   3.363   7.135   6.842  0.1329  0.1007  0.1312
  735POPI   C4A10286   3.326   7.034   7.258 -0.0923 -0.2406 -0.2704
  735POPI   C1B10287   3.946   7.724   5.913  0.1117  0.4141 -0.1409
  735POPI   C2B10288   3.934   7.910   6.305  0.2816  0.0550  0.1832
  735POPI   C3B10289   4.065   8.266   6.540 -0.1679 -0.1084 -0.3000
  735POPI   C4B10290   3.813   8.550   6.842 -0.2316 -0.4117  0.0416
  736POPI    C110291  15.897  17.639   5.594  0.3030  0.1679 -0.0291
  736POPI    C210292  15.710  17.889   5.344  0.4419 -0.0390 -0.3467
  736POPI    C310293  15.977  18.030   5.606  0.0185  0.2292 -0.0470
  736POPI   PO410294  15.684  17.434   5.645 -0.0517  0.0280 -0.2917
  736POPI   GL110295  15.670  17.226   5.996 -0.0587  0.0089  0.0818
  736POPI   GL210296  15.704  16.930   5.884 -0.0780 -0.2390 -0.2902
  736POPI   C1A10297  15.500  17.458   6.352  0.5511  0.2363 -0.0743
  736POPI   D2A10298  15.606  17.884   6.445  0.0635 -0.0380 -0.2190
  736POPI   C3A10299  15.954  17.948   6.766 -0.0181  0.1795  0.1445
  736POPI   C4A10300  16.097  17.666   7.054 -0.0981 -0.0228 -0.3860
  736POPI   C1B10301  15.891  16.766   6.318  0.0042  0.2909  0.2039
  736POPI   C2B10302  15.899  16.672   6.769  0.2066  0.2808  0.2078
  736POPI   C3B10303  15.767  16.700   7.059 -0.0589 -0.3170 -0.0111
  736POPI   C4B10304  15.468  16.869   7.304  0.5349  0.0236 -0.0186
  737POPI    C110305   7.150  18.712   5.410  0.3010  0.1598  0.2536
  737POPI    C210306   7.089  19.094   5.309 -0.1010  0.0248 -0.0383
  737POPI    C310307   7.177  18.824   5.027 -0.1077 -0.1518  0.1266
  737POPI   PO410308   7.320  18.737   5.678  0.0620  0.2023 -0.2470
  737POPI   GL110309   7.156  18.735   6.136  0.2091  0.6494 -0.2744
  737POPI   GL210310   7.249  18.442   6.103 -0.1548 -0.1402 -0.0749
  737POPI   C1A10311   7.042  18.830   6.538 -0.1267 -0.3253 -0.1248
  737POPI   D2A10312   7.138  18.886   6.980  0.3210  0.0614 -0.1664
  737POPI   C3A10313   7.583  18.922   7.177  0.0658  0.3445  0.0069
  737POPI   C4A10314   7.863  19.177   7.603  0.2250  0.2384 -0.2398
  737POPI   C1B10315   7.384  18.496   6.623  0.0548  0.3219 -0.2229
  737POPI   C2B10316   7.798  18.432   6.816 -0.1480  0.0307  0.0234
  737POPI   C3B10317   8.009  18.572   7.148 -0.1326  0.0825  0.3209
  737POPI   C4B10318   8.257  18.878   7.341 -0.2950 -0.0995 -0.2767
  738POPI    C110319  18.871   4.794   5.488 -0.1272  0.1269 -0.0304
  738POPI    C210320  18.834   4.508   5.211  0.1563  0.2076 -0.1555
  738POPI    C310321  18.515   4.722   5.321 -0.0823 -0.2223  0.0153
  738POPI   PO410322  18.951   4.675   5.704 -0.2691  0.0288 -0.2771
  738POPI   GL110323  18.831   4.453   6.016 -0.0120  0.1100 -0.2160
  738POPI   GL210324  18.537   4.502   6.141 -0.0422 -0.0948  0.0664
  738POPI   C1A10325  18.928   4.058   6.252 -0.0307 -0.2584 -0.3139
  738POPI   D2A10326  19.122   3.660   6.359  0.1804 -0.0097 -0.0655
  738POPI   C3A10327  19.307   3.471   6.718 -0.0792 -0.0329 -0.0512
  738POPI   C4A10328  19.505   3.128   6.918 -0.1263  0.1749 -0.1357
  738POPI   C1B10329  18.191   4.286   6.392 -0.1298  0.0731  0.1686
  738POPI   C2B10330  18.110   4.359   6.817  0.2015 -0.0413  0.0316
  738POPI   C3B10331  17.847   4.214   7.138 -0.0512  0.0484  0.1944
  738POPI   C4B10332  17.856   4.233   7.490  0.0423  0.2690  0.2931
  739POPI    C110333   4.805  14.002   5.557 -0.0918 -0.1293  0.0973
  739POPI    C210334   5.110  13.780   5.690 -0.0127 -0.1203 -0.0674
  739POPI    C310335   4.998  13.757   5.307 -0.0284  0.0957 -0.0767
  739POPI   PO410336   4.620  13.896   5.725  0.0388  0.1958 -0.3121
  739POPI   GL110337   4.482  13.846   6.103 -0.2622  0.4761  0.2568
  739POPI   GL210338   4.544  13.936   6.406  0.2469 -0.0982  0.0121
  739POPI   C1A10339   4.159  13.543   6.316  0.0822  0.0732  0.1282
  739POPI   D2A10340   4.039  13.408   6.759  0.0186 -0.0217 -0.1675
  739POPI   C3A10341   4.090  13.690   7.101  0.0330 -0.0028  0.1855
  739POPI   C4A10342   4.079  13.764   7.556  0.1166 -0.2401 -0.2567
  739POPI   C1B10343   4.754  14.141   6.808  0.1623 -0.1739  0.0238
  739POPI   C2B10344   4.824  14.320   7.233  0.0938 -0.0835 -0.1223
  739POPI   C3B10345   4.911  14.743   7.453 -0.0045 -0.3874 -0.0008
  739POPI   C4B10346   4.699  15.100   7.563  0.2274 -0.2659 -0.0976
  740POPI    C110347   8.633  16.155   5.949  0.0162  0.0231 -0.1331
  740POPI    C210348   9.017  16.267   5.931  0.0369 -0.0601 -0.2218
  740POPI    C310349   8.812  16.204   5.594 -0.0400 -0.0668 -0.1741
  740POPI   PO410350   8.662  15.922   6.044 -0.0572 -0.0606 -0.1893
  740POPI   GL110351   8.674  15.717   6.539 -0.3156  0.0765 -0.2750
  740POPI   GL210352   8.967  15.544   6.504  0.2390  0.0849 -0.0817
  740POPI   C1A10353   8.500  15.737   6.889 -0.1531  0.0827 -0.1011
  740POPI   D2A10354   8.432  15.504   7.341  0.0331  0.0865 -0.1983
  740POPI   C3A10355   8.725  15.385   7.649 -0.0032 -0.1581  0.1926
  740POPI   C4A10356   9.095  15.162   7.872 -0.0038  0.1578 -0.0326
  740POPI   C1B10357   8.970  15.070   6.586  0.2857 -0.2444 -0.4082
  740POPI   C2B10358   8.935  14.735   6.831 -0.1934  0.0035  0.0613
  740POPI   C3B10359   9.158  14.359   7.074 -0.2140  0.0298 -0.0418
  740POPI   C4B10360   9.441  14.218   7.440 -0.1888  0.0796 -0.1360
  741POPI    C110361   7.805   0.710   5.434  0.1223 -0.0502  0.1204
  741POPI    C210362   7.524   0.544   5.203  0.2161  0.0439 -0.0639
  741POPI    C310363   7.872   0.657   5.043  0.2278  0.2406  0.0971
  741POPI   PO410364   7.675   0.853   5.601  0.2518  0.1514  0.0732
  741POPI   GL110365   7.779   0.716   6.061  0.0722  0.1456 -0.2239
  741POPI   GL210366   7.439   0.764   6.101  0.0286 -0.3315 -0.1126
  741POPI   C1A10367   7.727   0.766   6.567 -0.0274  0.1476  0.1327
  741POPI   D2A10368   7.670   0.950   6.984  0.0843  0.1770  0.2478
  741POPI   C3A10369   7.738   1.354   7.217 -0.1560 -0.3044  0.0281
  741POPI   C4A10370   7.454   1.539   7.494 -0.1215  0.2410 -0.3895
  741POPI   C1B10371   7.206   0.745   6.476  0.0058  0.2450  0.1405
  741POPI   C2B10372   7.086   0.944   6.830  0.1825 -0.3261  0.3253
  741POPI   C3B10373   6.921   1.280   6.662 -0.0290 -0.0494 -0.0971
  741POPI   C4B10374   6.681   1.451   6.433  0.0575  0.0213  0.0362
  742POPS   CNO10375   9.632   8.212   5.137  0.1589 -0.3222  0.0823
  742POPS   PO410376   9.246   8.538   5.206  0.4212  0.0569  0.1521
  742POPS   GL110377   9.408   8.315   5.525  0.2524 -0.0984 -0.2487
  742POPS   GL210378   9.759   8.173   5.620  0.0767 -0.2046  0.1056
  742POPS   C1A10379   9.198   8.272   5.941  0.1121  0.0596 -0.1046
  742POPS   D2A10380   9.284   8.035   6.374 -0.0083  0.0293  0.1319
  742POPS   C3A10381   9.216   8.339   6.696  0.2893 -0.0347 -0.2141
  742POPS   C4A10382   8.860   8.270   6.903  0.4303  0.0042  0.1800
  742POPS   C1B10383   9.814   8.207   6.119 -0.2200  0.1486 -0.0521
  742POPS   C2B10384   9.993   8.041   6.531  0.1441  0.2753  0.2348
  742POPS   C3B10385  10.299   8.018   6.729 -0.2075  0.0541  0.0405
  742POPS   C4B10386  10.620   7.696   6.615 -0.3212  0.0840 -0.1231
  743POPS   CNO10387  10.464   2.622   4.832  0.2692  0.0386  0.1453
  743POPS   PO410388  10.184   2.795   5.153 -0.2688 -0.1830 -0.0321
  743POPS   GL110389  10.310   2.579   5.553  0.0615 -0.0024 -0.4113
  743POPS   GL210390  10.615   2.647   5.648 -0.0768  0.3042 -0.2290
  743POPS   C1A10391  10.289   2.712   5.936 -0.1070 -0.0031  0.0000
  743POPS   D2A10392  10.271   2.982   6.258 -0.3798 -0.0738 -0.3126
  743POPS   C3A10393  10.184   2.874   6.658  0.2634  0.1456 -0.0245
  743POPS   C4A10394  10.076   2.929   7.048  0.1873  0.0056  0.1451
  743POPS   C1B10395  10.786   2.397   5.961  0.1311 -0.0523  0.1925
  743POPS   C2B10396  10.805   2.042   6.275  0.2657 -0.3464 -0.2547
  743POPS   C3B10397  10.634   1.878   6.728  0.2098  0.0220 -0.0496
  743POPS   C4B10398  10.883   1.544   6.992 -0.3503 -0.0542 -0.1103
  744POPS   CNO10399  17.672   6.586   5.307 -0.0028  0.1125 -0.0872
  744POPS   PO410400  17.788   6.402   5.676 -0.2753 -0.0481 -0.2266
  744POPS   GL110401  17.753   6.494   6.145 -0.3830 -0.2251  0.2080
  744POPS   GL210402  18.160   6.588   6.088 -0.1804  0.0430 -0.0526
  744POPS   C1A10403  17.814   6.773   6.442  0.1700  0.1155  0.0107
  744POPS   D2A10404  17.542   6.778   6.812  0.0821  0.0359 -0.0118
  744POPS   C3A10405  17.580   6.851   7.296 -0.0108 -0.0896 -0.1444
  744POPS   C4A10406  17.509   6.608   7.580 -0.1072  0.0494  0.4752
  744POPS   C1B10407  18.359   6.621   6.548  0.1971  0.1243  0.0289
  744POPS   C2B10408  18.402   6.654   6.962  0.0559 -0.2546 -0.0004
  744POPS   C3B10409  18.520   6.801   7.286  0.1244 -0.1748  0.0105
  744POPS   C4B10410  18.675   6.677   7.556 -0.2237  0.2730 -0.3340
  745POPS   CNO10411  16.337  11.327   4.983 -0.1505 -0.0269  0.1654
  745POPS   PO410412  16.512  11.610   5.341  0.0674  0.4220  0.1237
  745POPS   GL110413  16.404  11.796   5.788  0.0781 -0.0138 -0.1837
  745POPS   GL210414  16.229  12.036   5.973 -0.0633  0.0804 -0.0543
  745POPS   C1A10415  16.518  11.712   6.195 -0.2842  0.1861 -0.0003
  745POPS   D2A10416  16.646  11.459   6.564 -0.0976  0.1678 -0.0039
  745POPS   C3A10417  16.353  11.614   6.778  0.1069 -0.1546 -0.3419
  745POPS   C4A10418  16.163  11.439   7.114 -0.0827  0.1458 -0.4027
  745POPS   C1B10419  16.216  12.067   6.437  0.1657 -0.0230  0.0221
  745POPS   C2B10420  16.140  12.133   6.978  0.0880 -0.0653 -0.1014
  745POPS   C3B10421  15.967  12.349   7.328  0.2684  0.0195 -0.0152
  745POPS   C4B10422  16.161  12.651   7.675 -0.2019  0.1200  0.2204
  746POPS   CNO10423  18.100   2.381   5.396 -0.0179  0.0424 -0.0067
  746POPS   PO410424  18.190   2.034   5.547 -0.2076  0.1556 -0.3303
  746POPS   GL110425  18.097   1.945   5.942 -0.3375 -0.0865 -0.1300
  746POPS   GL210426  18.466   1.906   6.029 -0.0301 -0.1290  0.3331
  746POPS   C1A10427  17.790   1.892   6.242 -0.2580  0.1219 -0.4941
  746POPS   D2A10428  17.510   1.659   6.408  0.1153 -0.1090 -0.2058
  746POPS   C3A10429  17.479   1.510   6.792  0.0506  0.2226 -0.0902
  746POPS   C4A10430  17.619   1.324   7.162  0.2322  0.1187  0.0455
  746POPS   C1B10431  18.334   1.927   6.463 -0.1162  0.3181 -0.0781
  746POPS   C2B10432  18.470   1.506   6.734 -0.2227 -0.2089  0.0609
  746POPS   C3B10433  18.363   1.425   7.153 -0.1886  0.0696  0.2917
  746POPS   C4B10434  18.146   1.177   7.414  0.0513 -0.0773 -0.1875
  747POPS   CNO10435   0.976  10.453   5.830  0.0768 -0.3866  0.0444
  747POPS   PO410436   0.708  10.786   5.794 -0.1716  0.1512 -0.2213
  747POPS   GL110437   0.942  10.891   6.143  0.1973 -0.0680  0.1172
  747POPS   GL210438   0.945  10.643   6.412 -0.0374  0.0208  0.1912
  747POPS   C1A10439   1.322  10.949   6.363 -0.4768 -0.3918  0.3129
  747POPS   D2A10440   1.761  10.933   6.494  0.4924  0.1577  0.0982
  747POPS   C3A10441   2.058  10.785   6.753 -0.2363  0.1005  0.1631
  747POPS   C4A10442   2.367  10.946   7.030  0.4167 -0.2512  0.3957
  747POPS   C1B10443   1.098  10.811   6.823 -0.0192 -0.1448  0.0968
  747POPS   C2B10444   1.556  10.892   6.971 -0.3316  0.2433 -0.1796
  747POPS   C3B10445   1.914  10.839   7.269  0.3165  0.1710 -0.2174
  747POPS   C4B10446   2.014  11.237   7.567  0.0839 -0.0938 -0.0156
  748POPS   CNO10447   6.169   1.718   5.357  0.0004  0.4096 -0.1001
  748POPS   PO410448   5.801   1.969   5.519  0.0496  0.2618  0.2972
  748POPS   GL110449   5.595   2.023   5.991  0.0385  0.0474 -0.2296
  748POPS   GL210450   5.240   2.043   5.817 -0.0330  0.3251  0.1898
  748POPS   C1A10451   5.704   2.061   6.426  0.1333 -0.2618  0.1131
  748POPS   D2A10452   5.962   2.150   6.752 -0.0462 -0.1407 -0.1762
  748POPS   C3A10453   6.048   1.894   7.105  0.0707 -0.0541  0.3664
  748POPS   C4A10454   5.843   1.571   7.136  0.1813 -0.2042  0.1514
  748POPS   C1B10455   5.236   2.111   6.258  0.2748 -0.1083  0.0314
  748POPS   C2B10456   4.913   2.165   6.540 -0.1999 -0.3766 -0.2832
  748POPS   C3B10457   4.920   2.131   6.997  0.1630  0.1617 -0.1470
  748POPS   C4B10458   5.225   2.184   7.299 -0.0389  0.1624  0.0008
  749POPS   CNO10459   4.073  13.663   5.835  0.5056 -0.1451  0.0048
  749POPS   PO410460   3.802  14.021   5.722 -0.1691  0.3055  0.0200
  749POPS   GL110461   3.683  13.775   6.148  0.2002 -0.2557  0.0559
  749POPS   GL210462   3.975  13.983   6.248 -0.0410  0.1953  0.2386
  749POPS   C1A10463   3.411  13.420   6.166  0.0657  0.2302 -0.0443
  749POPS   D2A10464   3.333  12.991   6.347  0.1475  0.0250  0.3487
  749POPS   C3A10465   3.538  12.658   6.133  0.1670  0.0972 -0.0643
  749POPS   C4A10466   3.682  12.316   6.515  0.2158  0.2234  0.2390
  749POPS   C1B10467   3.778  13.912   6.588 -0.1130 -0.2140  0.1500
  749POPS   C2B10468   3.428  13.684   6.639  0.0398  0.2899  0.1157
  749POPS   C3B10469   3.502  13.250   6.746  0.1040 -0.1191  0.1250
  749POPS   C4B10470   3.219  12.857   6.818  0.5251 -0.2358 -0.2339
  750POPS   CNO10471  16.350  17.776   5.853  0.1122 -0.1523 -0.1710
  750POPS   PO410472  16.498  18.101   5.674  0.0047 -0.0421 -0.1328
  750POPS   GL110473  16.323  18.281   5.951 -0.1725 -0.0477 -0.1570
  750POPS   GL210474  16.348  18.638   6.043 -0.2945  0.0762  0.0079
  750POPS   C1A10475  16.247  18.220   6.419  0.0150 -0.1664 -0.2826
  750POPS   D2A10476  16.178  18.425   6.695 -0.0897 -0.1631 -0.3071
  750POPS   C3A10477  16.366  18.833   6.915  0.0548 -0.2006 -0.0979
  750POPS   C4A10478  16.204  18.985   7.211  0.2587 -0.1587  0.1812
  750POPS   C1B10479  16.601  18.658   6.493  0.0008  0.1216 -0.1097
  750POPS   C2B10480  16.829  18.588   6.857 -0.0853 -0.1043 -0.0410
  750POPS   C3B10481  16.983  18.616   7.260  0.0128  0.1616 -0.0275
  750POPS   C4B10482  17.020  18.671   7.737 -0.1537 -0.3848  0.0848
  751POPS   CNO10483   5.945  14.689   5.152 -0.2783  0.0393  0.1022
  751POPS   PO410484   5.895  15.169   5.246 -0.1267 -0.1143 -0.1701
  751POPS   GL110485   5.956  15.128   5.678  0.2277 -0.1088  0.1028
  751POPS   GL210486   5.730  15.370   5.821  0.0218 -0.0138 -0.0419
  751POPS   C1A10487   5.935  14.972   6.112 -0.1334 -0.0530  0.0914
  751POPS   D2A10488   6.171  14.916   6.552 -0.3632  0.1540  0.2708
  751POPS   C3A10489   6.158  14.839   6.927 -0.0241 -0.3182  0.0538
  751POPS   C4A10490   5.798  14.776   7.241  0.0809 -0.0361 -0.2299
  751POPS   C1B10491   5.698  15.437   6.243 -0.3859  0.2060  0.5319
  751POPS   C2B10492   5.826  15.381   6.650  0.2905  0.4373  0.0067
  751POPS   C3B10493   6.167  15.327   6.921 -0.1471  0.2827 -0.1231
  751POPS   C4B10494   6.561  15.239   6.992 -0.0149  0.2100  0.1158
  752POPS   CNO10495   3.918  14.976   5.709  0.4462  0.3281  0.3043
  752POPS   PO410496   4.095  14.641   5.546 -0.0176  0.5550 -0.0438
  752POPS   GL110497   4.191  14.733   6.053  0.1568 -0.0162  0.0108
  752POPS   GL210498   4.496  14.900   6.138  0.1744 -0.0424  0.0844
  752POPS   C1A10499   4.098  14.902   6.506 -0.0575 -0.1257 -0.1166
  752POPS   D2A10500   3.951  14.891   7.070 -0.0455  0.4351 -0.0549
  752POPS   C3A10501   3.542  14.817   7.187 -0.0260 -0.3400  0.0999
  752POPS   C4A10502   3.108  14.971   7.312 -0.0995  0.0325  0.0394
  752POPS   C1B10503   4.639  14.684   6.594  0.2797  0.0228  0.3148
  752POPS   C2B10504   4.381  14.677   6.928  0.2186  0.0141  0.1057
  752POPS   C3B10505   4.295  14.604   7.323 -0.0986  0.0505  0.0295
  752POPS   C4B10506   4.107  14.611   7.751 -0.0539 -0.2830 -0.3518
  753POPS   CNO10507   2.915   4.617   5.109 -0.0032  0.1056  0.0013
  753POPS   PO410508   2.621   4.586   5.440 -0.1620  0.2685 -0.0151
  753POPS   GL110509   2.649   4.384   5.814 -0.2254 -0.0655 -0.0419
  753POPS   GL210510   2.935   4.284   5.834 -0.0576 -0.3778 -0.1029
  753POPS   C1A10511   2.583   4.325   6.135  0.1171  0.0960 -0.1457
  753POPS   D2A10512   2.346   4.022   6.397  0.1190 -0.1374  0.4130
  753POPS   C3A10513   2.081   4.039   6.778  0.0437 -0.0774 -0.0730
  753POPS   C4A10514   1.947   4.223   7.203 -0.1125 -0.1748  0.0998
  753POPS   C1B10515   3.194   4.045   6.166 -0.0174  0.2254  0.2073
  753POPS   C2B10516   3.304   3.974   6.620  0.4204  0.3297 -0.0759
  753POPS   C3B10517   3.021   3.913   6.973 -0.0240 -0.2082 -0.2430
  753POPS   C4B10518   2.763   3.573   7.102 -0.0151  0.0808 -0.3261
  754POPS   CNO10519   1.826  17.723   5.781  0.1898 -0.1980 -0.2911
  754POPS   PO410520   1.690  17.355   5.586 -0.1879  0.1605 -0.1944
  754POPS   GL110521   1.750  17.297   6.085  0.0225  0.3041  0.0803
  754POPS   GL210522   1.552  17.584   6.212  0.1272 -0.0120 -0.3927
  754POPS   C1A10523   1.802  17.188   6.512  0.4441  0.2109  0.0986
  754POPS   D2A10524   1.751  17.232   6.968  0.0402 -0.0895 -0.0745
  754POPS   C3A10525   1.823  16.886   7.180  0.1551 -0.1834  0.0012
  754POPS   C4A10526   2.007  16.578   7.442  0.2558 -0.2281 -0.2419
  754POPS   C1B10527   1.716  17.647   6.652 -0.3354  0.0154 -0.0834
  754POPS   C2B10528   1.635  17.728   7.078  0.1913  0.0178 -0.1531
  754POPS   C3B10529   1.690  17.726   7.480 -0.2187 -0.0461 -0.2343
  754POPS   C4B10530   1.432  17.905   7.817 -0.0453  0.0381  0.3421
  755POPS   CNO10531   2.348  10.346   5.614  0.0135 -0.2910  0.0492
  755POPS   PO410532   1.860  10.574   5.580  0.4617 -0.0310 -0.0317
  755POPS   GL110533   1.926  10.374   5.917  0.3329  0.0845 -0.3487
  755POPS   GL210534   1.725  10.134   5.984 -0.1497 -0.0807  0.0488
  755POPS   C1A10535   2.082  10.313   6.294 -0.0385  0.1797  0.3922
  755POPS   D2A10536   2.154  10.084   6.603  0.0379  0.2422  0.0069
  755POPS   C3A10537   2.224  10.390   6.963  0.1205  0.0178  0.0570
  755POPS   C4A10538   2.601  10.640   7.367 -0.2882  0.0898  0.0926
  755POPS   C1B10539   1.639   9.866   6.302  0.0829  0.0695 -0.1591
  755POPS   C2B10540   1.443   9.857   6.631  0.2579 -0.4957  0.0491
  755POPS   C3B10541   1.346   9.706   6.908 -0.1450  0.2411  0.0127
  755POPS   C4B10542   1.375   9.706   7.325  0.2179 -0.2258  0.0593
  756POPS   CNO10543   9.234   3.738   5.477 -0.0921 -0.0181  0.0544
  756POPS   PO410544   9.651   3.851   5.279 -0.2377  0.0018 -0.4485
  756POPS   GL110545   9.729   3.716   5.731 -0.1639  0.0792 -0.2509
  756POPS   GL210546   9.649   3.978   5.931 -0.4437 -0.0784 -0.1898
  756POPS   C1A10547   9.696   3.275   5.967 -0.1591 -0.1584 -0.1561
  756POPS   D2A10548   9.789   3.076   6.189 -0.0274 -0.1927 -0.2578
  756POPS   C3A10549   9.703   3.046   6.634 -0.0851  0.0971 -0.2176
  756POPS   C4A10550   9.571   3.057   7.027 -0.0964 -0.0903 -0.0866
  756POPS   C1B10551   9.768   4.010   6.475  0.1210 -0.2305 -0.3315
  756POPS   C2B10552   9.460   4.191   6.727 -0.0259 -0.3265 -0.0723
  756POPS   C3B10553   9.413   4.227   7.160 -0.0380  0.2059  0.0771
  756POPS   C4B10554   9.174   4.534   7.418  0.4077  0.1924  0.0180
  757POPS   CNO10555  12.666   8.689   5.173 -0.4459 -0.1719  0.1281
  757POPS   PO410556  12.379   8.791   5.387 -0.0680  0.4512 -0.2196
  757POPS   GL110557  12.222   8.545   5.595 -0.0863 -0.0347  0.2227
  757POPS   GL210558  11.830   8.611   5.658  0.0762 -0.1635 -0.1383
  757POPS   C1A10559  12.387   8.519   6.012 -0.1492 -0.3973  0.2337
  757POPS   D2A10560  12.635   8.512   6.385 -0.2033  0.0410  0.3073
  757POPS   C3A10561  12.565   8.294   6.826  0.0404  0.2746  0.0961
  757POPS   C4A10562  12.766   8.572   7.210  0.3983 -0.2494  0.1793
  757POPS   C1B10563  11.900   8.532   6.033  0.0109 -0.0024 -0.1419
  757POPS   C2B10564  12.146   8.513   6.508 -0.0101 -0.2109 -0.1427
  757POPS   C3B10565  12.107   8.531   6.930  0.1387 -0.2057  0.0174
  757POPS   C4B10566  12.309   8.307   7.237 -0.2191  0.2298  0.1636
  758POPS   CNO10567   9.152   5.611   4.862  0.1132  0.1537 -0.1304
  758POPS   PO410568   9.477   5.634   5.161  0.0483 -0.1594  0.0934
  758POPS   GL110569   9.382   5.586   5.585 -0.0289 -0.0348  0.0182
  758POPS   GL210570   9.384   5.280   5.703 -0.0568  0.1017  0.1611
  758POPS   C1A10571   9.513   5.720   5.847 -0.3363  0.1710  0.0025
  758POPS   D2A10572   9.642   5.834   6.289  0.0411  0.0962  0.0910
  758POPS   C3A10573   9.581   5.591   6.615 -0.1570  0.1835 -0.2784
  758POPS   C4A10574   9.642   5.499   6.998  0.2235  0.0689  0.0803
  758POPS   C1B10575   9.354   5.267   6.244  0.4469 -0.1442  0.0572
  758POPS   C2B10576   9.550   5.022   6.403 -0.2541 -0.2676  0.2423
  758POPS   C3B10577   9.795   5.144   6.716  0.1425 -0.2173  0.1286
  758POPS   C4B10578   9.810   4.917   7.122  0.0974 -0.3089 -0.0783
  759POPS   CNO10579   8.429   3.401   5.082  0.0447 -0.0188 -0.1619
  759POPS   PO410580   8.177   3.419   5.564 -0.1105  0.1907 -0.0324
  759POPS   GL110581   8.188   3.473   5.946 -0.3474  0.0388  0.0891
  759POPS   GL210582   7.831   3.394   6.073 -0.0305  0.1131  0.0773
  759POPS   C1A10583   8.439   3.523   6.334  0.2918  0.3395 -0.1558
  759POPS   D2A10584   8.729   3.736   6.571 -0.0988  0.4225 -0.0990
  759POPS   C3A10585   8.622   4.095   6.702 -0.2223 -0.2376 -0.0123
  759POPS   C4A10586   8.291   4.187   6.808 -0.0386  0.0230 -0.1706
  759POPS   C1B10587   7.746   3.368   6.526  0.4479 -0.1440  0.2377
  759POPS   C2B10588   7.758   3.332   7.028  0.1014 -0.0015 -0.2286
  759POPS   C3B10589   7.885   3.521   7.402 -0.1806  0.0527  0.0069
  759POPS   C4B10590   8.053   3.566   7.903 -0.3096  0.0050 -0.0504
  760POPS   CNO10591  14.327  13.348   5.685  0.3525  0.0240  0.1500
  760POPS   PO410592  14.745  13.358   5.692  0.0388 -0.0194 -0.1566
  760POPS   GL110593  15.076  13.583   6.076  0.3437  0.0559 -0.0998
  760POPS   GL210594  15.361  13.604   6.044 -0.1657  0.3938 -0.2280
  760POPS   C1A10595  15.213  13.626   6.605  0.0549 -0.1097 -0.1498
  760POPS   D2A10596  15.134  13.731   6.992 -0.1925  0.0183  0.0291
  760POPS   C3A10597  14.678  13.739   7.151  0.0900 -0.2147 -0.2505
  760POPS   C4A10598  14.559  13.981   7.397  0.3126  0.0755 -0.0953
  760POPS   C1B10599  15.290  14.047   6.308  0.1243  0.2219  0.0709
  760POPS   C2B10600  15.367  14.203   6.711 -0.0092  0.0588  0.1448
  760POPS   C3B10601  15.512  14.098   7.159 -0.4743 -0.0923 -0.0676
  760POPS   C4B10602  15.481  14.297   7.569  0.0106 -0.1561 -0.3413
  761POPS   CNO10603   4.128   8.419   5.411  0.0777 -0.1070 -0.0229
  761POPS   PO410604   3.665   8.253   5.296 -0.0712 -0.6373  0.1331
  761POPS   GL110605   3.713   8.174   5.806  0.2723 -0.0491 -0.2755
  761POPS   GL210606   3.877   8.244   5.941  0.3351 -0.3713 -0.1444
  761POPS   C1A10607   3.479   8.256   6.255 -0.1943  0.1731 -0.1354
  761POPS   D2A10608   3.489   8.232   6.706  0.0829 -0.1778  0.3064
  761POPS   C3A10609   3.293   8.205   7.054 -0.0268  0.0108  0.0184
  761POPS   C4A10610   2.998   8.295   7.469  0.0774  0.1958  0.2280
  761POPS   C1B10611   3.867   8.543   6.230 -0.0487 -0.2736  0.3998
  761POPS   C2B10612   3.973   8.817   6.464 -0.1302 -0.0031  0.0230
  761POPS   C3B10613   3.991   9.165   6.801 -0.0197 -0.4401  0.1382
  761POPS   C4B10614   4.063   9.413   7.293 -0.0679 -0.0609  0.0733
  762POPS   CNO10615   9.814  16.646   6.025 -0.1830  0.1820  0.0549
  762POPS   PO410616   9.485  16.892   5.953 -0.1316  0.1670  0.0751
  762POPS   GL110617   9.556  17.161   6.378 -0.0046  0.0170  0.1931
  762POPS   GL210618   9.819  16.963   6.491 -0.1484  0.0325 -0.2151
  762POPS   C1A10619   9.413  17.202   6.738  0.0310  0.0259  0.2259
  762POPS   D2A10620   9.321  17.049   7.113  0.1181  0.1640  0.3463
  762POPS   C3A10621   9.596  16.874   7.337 -0.2164 -0.0349 -0.2885
  762POPS   C4A10622   9.658  16.632   7.687  0.2425 -0.2456  0.0535
  762POPS   C1B10623   9.619  16.750   6.803  0.0457  0.1807  0.0903
  762POPS   C2B10624   9.266  16.596   7.030 -0.2020  0.2330  0.0712
  762POPS   C3B10625   9.152  16.672   7.547 -0.4438 -0.1044 -0.1624
  762POPS   C4B10626   9.107  16.257   7.930  0.0522 -0.1803  0.0080
  763POPS   CNO10627   7.896  11.128   5.945  0.1592 -0.0959 -0.2209
  763POPS   PO410628   8.107  10.645   6.023  0.1128 -0.2821 -0.1042
  763POPS   GL110629   8.008  10.776   6.424 -0.0540 -0.1225 -0.1300
  763POPS   GL210630   7.918  11.038   6.454  0.0576  0.0730  0.2249
  763POPS   C1A10631   8.272  10.860   6.785 -0.2664  0.3086  0.0292
  763POPS   D2A10632   8.535  10.871   7.158  0.0621 -0.2226  0.0743
  763POPS   C3A10633   8.882  10.890   7.290  0.0101  0.0048  0.4194
  763POPS   C4A10634   9.225  10.842   7.618  0.0643  0.2087  0.0189
  763POPS   C1B10635   8.254  11.287   6.617  0.1626 -0.0295  0.0127
  763POPS   C2B10636   8.524  11.660   6.839 -0.1625  0.0430 -0.1256
  763POPS   C3B10637   8.885  11.825   7.070  0.0665  0.3288  0.0496
  763POPS   C4B10638   9.068  11.899   7.455  0.3162 -0.0765 -0.1218
  764POPS   CNO10639   9.901  17.536   5.549  0.0386 -0.0316  0.0542
  764POPS   PO410640   9.747  17.683   5.954 -0.0320  0.2547  0.0260
  764POPS   GL110641   9.634  17.737   6.337 -0.1450  0.0481  0.1586
  764POPS   GL210642   9.519  17.948   6.621  0.0682 -0.0746 -0.2595
  764POPS   C1A10643   9.887  17.454   6.746 -0.0442  0.0405  0.1667
  764POPS   D2A10644  10.086  17.489   7.120 -0.2443  0.1600  0.2103
  764POPS   C3A10645   9.997  17.682   7.620  0.1620  0.2600  0.1470
  764POPS   C4A10646  10.254  18.048   7.974  0.3462  0.0550 -0.1722
  764POPS   C1B10647   9.476  17.632   6.957 -0.0164  0.1117 -0.0150
  764POPS   C2B10648   9.568  17.404   7.301  0.2534  0.2272 -0.0545
  764POPS   C3B10649   9.386  17.644   7.696  0.1996  0.0258 -0.2644
  764POPS   C4B10650   9.335  17.993   7.987 -0.2018 -0.1426  0.0469
  765POPS   CNO10651  15.407  16.061   5.329  0.1121 -0.0469  0.1527
  765POPS   PO410652  15.250  16.158   5.676 -0.2102  0.1708  0.1402
  765POPS   GL110653  15.357  16.419   6.050  0.1351  0.2250 -0.1590
  765POPS   GL210654  15.617  16.401   6.066  0.0359  0.1660 -0.3115
  765POPS   C1A10655  15.259  16.731   6.419  0.1627  0.0281 -0.2262
  765POPS   D2A10656  15.406  17.038   6.778  0.1751  0.1274 -0.0372
  765POPS   C3A10657  15.276  17.311   7.113  0.0201  0.1094 -0.1935
  765POPS   C4A10658  15.198  17.287   7.597 -0.1488  0.1470 -0.0401
  765POPS   C1B10659  15.614  16.361   6.534 -0.0403 -0.0865  0.1894
  765POPS   C2B10660  15.623  16.260   6.919 -0.0551  0.1378 -0.2552
  765POPS   C3B10661  15.863  16.203   7.296  0.1563 -0.2321  0.3401
  765POPS   C4B10662  16.027  16.078   7.647 -0.1199 -0.1310  0.2207
  766POPS   CNO10663  11.641   6.048   5.307  0.1247 -0.1185 -0.1144
  766POPS   PO410664  11.988   6.204   5.142  0.2444  0.1078 -0.0895
  766POPS   GL110665  11.886   6.467   5.456  0.0927 -0.3609 -0.0137
  766POPS   GL210666  11.597   6.448   5.547 -0.0634  0.1933  0.0086
  766POPS   C1A10667  11.956   6.620   5.836  0.1963  0.2944 -0.2003
  766POPS   D2A10668  11.816   6.769   6.290 -0.3227 -0.1448  0.2096
  766POPS   C3A10669  12.064   7.011   6.571 -0.0401 -0.0718 -0.1655
  766POPS   C4A10670  12.026   7.365   6.854 -0.1845 -0.2538 -0.2363
  766POPS   C1B10671  11.346   6.166   5.707  0.0666 -0.0325  0.0100
  766POPS   C2B10672  10.869   5.987   5.625  0.0834  0.0915 -0.0547
  766POPS   C3B10673  10.688   5.750   5.951 -0.1725 -0.0417 -0.1818
  766POPS   C4B10674  10.869   5.393   6.114  0.1018 -0.0566 -0.0311
  767POPS   CNO10675   6.846   1.348   5.835 -0.1541 -0.0973 -0.0477
  767POPS   PO410676   6.580   1.407   5.539  0.0428 -0.0798  0.1970
  767POPS   GL110677   6.476   1.686   5.896  0.1866 -0.2395  0.1500
  767POPS   GL210678   6.538   2.015   5.972  0.1802  0.1492 -0.2835
  767POPS   C1A10679   6.138   1.779   6.272  0.1305 -0.0306  0.1484
  767POPS   D2A10680   6.218   1.522   6.705 -0.3163 -0.2794 -0.3464
  767POPS   C3A10681   6.488   1.710   7.006 -0.2049 -0.5086  0.0252
  767POPS   C4A10682   6.525   2.097   7.171 -0.1151  0.1511  0.0725
  767POPS   C1B10683   6.632   2.028   6.467 -0.2950  0.6602 -0.0273
  767POPS   C2B10684   6.842   2.352   6.820  0.4575 -0.0411  0.0330
  767POPS   C3B10685   7.041   2.531   7.173 -0.2360 -0.1221  0.3458
  767POPS   C4B10686   6.977   2.890   7.418 -0.0365  0.4508  0.0876
  768POPS   CNO10687  15.929   7.638   5.750  0.1361 -0.1547 -0.0351
  768POPS   PO410688  15.984   8.040   5.935  0.1819 -0.1395  0.0359
  768POPS   GL110689  16.252   7.938   6.180 -0.0539  0.2509 -0.3424
  768POPS   GL210690  16.422   7.676   5.983 -0.2608  0.1399 -0.1141
  768POPS   C1A10691  16.344   7.928   6.560  0.2966  0.0473  0.0040
  768POPS   D2A10692  16.456   7.925   7.048  0.2701  0.1320  0.2756
  768POPS   C3A10693  16.311   7.669   7.429 -0.2610  0.1391 -0.1824
  768POPS   C4A10694  16.325   7.249   7.568  0.1657 -0.4757  0.0468
  768POPS   C1B10695  16.484   7.405   6.408  0.2216  0.0522  0.0709
  768POPS   C2B10696  16.550   7.491   6.816 -0.2095  0.1482 -0.2252
  768POPS   C3B10697  16.658   7.214   7.168  0.1260  0.5189 -0.1140
  768POPS   C4B10698  16.716   6.919   7.373 -0.0242  0.0038  0.3706
  769POPS   CNO10699  16.292   0.798   4.510 -0.1675  0.2574 -0.1605
  769POPS   PO410700  16.335   0.911   5.015  0.3638  0.1985 -0.0376
  769POPS   GL110701  16.417   0.737   5.418  0.0989 -0.0696 -0.0922
  769POPS   GL210702  16.252   0.619   5.617 -0.0351 -0.0332 -0.1942
  769POPS   C1A10703  16.812   0.750   5.641  0.0964  0.4120  0.4741
  769POPS   D2A10704  17.091   0.930   5.598  0.2381 -0.1590  0.0989
  769POPS   C3A10705  17.398   0.646   5.833  0.3587  0.0049  0.1234
  769POPS   C4A10706  17.290   0.191   6.005 -0.0737  0.1603  0.1870
  769POPS   C1B10707  16.457   0.660   5.962 -0.0675 -0.2223 -0.1177
  769POPS   C2B10708  16.460   0.715   6.394  0.1951  0.0708 -0.1049
  769POPS   C3B10709  16.775   0.900   6.602 -0.2938 -0.2266  0.2671
  769POPS   C4B10710  16.878   1.172   6.955 -0.0069  0.3685 -0.1208
  770POPS   CNO10711  18.721   3.970   5.279  0.1616  0.1591  0.1297
  770POPS   PO410712  18.445   3.744   5.488 -0.0062  0.0801 -0.0308
  770POPS   GL110713  18.374   3.726   5.892 -0.3478 -0.0411 -0.1935
  770POPS   GL210714  18.394   4.062   5.991 -0.0019  0.0080  0.2561
  770POPS   C1A10715  18.594   3.657   6.330 -0.2306 -0.0516 -0.5051
  770POPS   D2A10716  18.621   3.748   6.742  0.2836 -0.0173  0.0588
  770POPS   C3A10717  18.967   3.798   6.805  0.0605 -0.1904  0.0548
  770POPS   C4A10718  19.255   4.049   7.085  0.4319  0.0518  0.0020
  770POPS   C1B10719  17.990   3.954   6.079 -0.3894 -0.2579 -0.1264
  770POPS   C2B10720  17.607   3.687   6.158  0.0679  0.1753  0.2599
  770POPS   C3B10721  17.529   3.554   6.645  0.4364  0.2099  0.2844
  770POPS   C4B10722  17.577   3.581   7.113  0.1932  0.1303 -0.2936
  771POPS   CNO10723  10.955  14.975   5.696 -0.1976 -0.0745 -0.2596
  771POPS   PO410724  11.313  15.223   5.588 -0.0888  0.0125 -0.0868
  771POPS   GL110725  11.364  14.939   5.975  0.1540  0.0385 -0.1700
  771POPS   GL210726  11.090  14.861   6.248 -0.1858  0.2231 -0.0562
  771POPS   C1A10727  11.583  15.010   6.302 -0.0818  0.0988 -0.0848
  771POPS   D2A10728  12.024  15.340   6.414  0.0195 -0.1890 -0.0180
  771POPS   C3A10729  12.119  15.608   6.664 -0.0065  0.1178 -0.1326
  771POPS   C4A10730  12.030  15.994   6.661  0.4921 -0.1307  0.1633
  771POPS   C1B10731  10.735  14.828   6.567  0.4529 -0.3386 -0.1867
  771POPS   C2B10732  10.735  14.630   6.966  0.0816  0.0750 -0.1066
  771POPS   C3B10733  10.702  14.439   7.362  0.0801 -0.3223  0.1119
  771POPS   C4B10734  10.777  14.371   7.753  0.2640  0.2618 -0.0136
  772POPS   CNO10735  16.280   6.749   5.779 -0.3317  0.2057 -0.1837
  772POPS   PO410736  16.017   7.033   5.729 -0.2113  0.2072  0.1878
  772POPS   GL110737  15.899   6.868   6.174 -0.2235 -0.0461 -0.1689
  772POPS   GL210738  15.845   6.535   6.000  0.1201  0.0220 -0.0858
  772POPS   C1A10739  15.547   6.857   6.460 -0.3313 -0.2362  0.0457
  772POPS   D2A10740  15.300   6.805   6.857  0.0341 -0.1136  0.2785
  772POPS   C3A10741  15.601   6.809   7.133 -0.1208 -0.0049  0.3727
  772POPS   C4A10742  16.073   6.892   7.260 -0.1577 -0.1365 -0.1695
  772POPS   C1B10743  15.952   6.309   6.383 -0.1201  0.1917  0.4100
  772POPS   C2B10744  16.208   6.109   6.644  0.0238  0.0063  0.2204
  772POPS   C3B10745  16.401   6.097   7.023  0.3645 -0.3295 -0.1390
  772POPS   C4B10746  16.450   6.166   7.414  0.1979 -0.1422 -0.1514
  773POPS   CNO10747   2.598   1.665   6.059 -0.2647 -0.0232  0.2062
  773POPS   PO410748   2.452   2.035   5.989  0.0088  0.1391  0.0087
  773POPS   GL110749   2.522   2.393   6.123  0.2832  0.2070 -0.2195
  773POPS   GL210750   2.267   2.461   6.319 -0.0951  0.0202  0.1025
  773POPS   C1A10751   2.646   2.689   6.508  0.2114  0.1385 -0.1645
  773POPS   D2A10752   2.759   2.597   6.942 -0.0515  0.0543  0.0689
  773POPS   C3A10753   2.406   2.591   7.159 -0.0553  0.0199  0.0962
  773POPS   C4A10754   1.984   2.549   7.304 -0.0697 -0.0611  0.0394
  773POPS   C1B10755   2.212   2.372   6.778 -0.2804  0.2674  0.2540
  773POPS   C2B10756   2.176   2.139   7.131 -0.1920  0.1505 -0.2206
  773POPS   C3B10757   1.940   1.900   7.354 -0.2484  0.1036  0.0359
  773POPS   C4B10758   1.643   1.625   7.595 -0.2279 -0.1157  0.0552
  774POPS   CNO10759   5.018   4.360   4.870  0.1464  0.0845 -0.0820
  774POPS   PO410760   5.205   4.172   5.324  0.0285 -0.0821 -0.0723
  774POPS   GL110761   5.110   4.081   5.725  0.2100  0.0594 -0.3343
  774POPS   GL210762   5.218   3.761   5.875  0.3045  0.1005  0.2705
  774POPS   C1A10763   4.868   4.284   6.054 -0.5547  0.1797 -0.0067
  774POPS   D2A10764   4.457   4.366   6.108 -0.1983  0.0044 -0.1758
  774POPS   C3A10765   4.381   4.388   6.524 -0.1294  0.0286  0.1288
  774POPS   C4A10766   4.274   4.517   6.924  0.0757  0.2636  0.1404
  774POPS   C1B10767   4.991   3.763   6.297 -0.1131 -0.0676 -0.1262
  774POPS   C2B10768   4.990   3.821   6.668 -0.0427  0.0321  0.1021
  774POPS   C3B10769   4.750   3.588   6.976 -0.0285 -0.1228  0.0579
  774POPS   C4B10770   4.501   3.640   7.469  0.2090 -0.0190 -0.0488
  775POPS   CNO10771   4.137  17.220   5.619  0.0220 -0.1751  0.1861
  775POPS   PO410772   3.679  17.142   5.449 -0.0101 -0.0865 -0.4189
  775POPS   GL110773   3.676  17.462   5.775 -0.0794  0.1333  0.2276
  775POPS   GL210774   3.574  17.744   5.744 -0.0009  0.1517  0.0965
  775POPS   C1A10775   3.927  17.588   6.080 -0.2104 -0.2483  0.0226
  775POPS   D2A10776   4.292  17.371   6.451  0.0693 -0.1385  0.2279
  775POPS   C3A10777   4.249  17.592   6.737  0.3001 -0.0115 -0.1645
  775POPS   C4A10778   4.248  17.840   7.164 -0.2560  0.2897  0.2196
  775POPS   C1B10779   3.729  18.050   6.072  0.4820  0.1155  0.1202
  775POPS   C2B10780   3.830  18.385   6.239  0.1279  0.2635 -0.0019
  775POPS   C3B10781   3.591  18.630   6.501 -0.1158  0.1836 -0.1323
  775POPS   C4B10782   3.489  18.684   6.881 -0.2281  0.1998 -0.0625
  776POPS   CNO10783  13.691   3.965   5.373  0.2179 -0.1246  0.1807
  776POPS   PO410784  13.859   3.566   5.431 -0.0540 -0.0735 -0.4942
  776POPS   GL110785  13.762   3.699   5.890 -0.1108 -0.1860  0.2524
  776POPS   GL210786  13.856   3.938   6.038  0.1957 -0.0111  0.2779
  776POPS   C1A10787  13.853   3.417   6.207  0.0339  0.1456 -0.0315
  776POPS   D2A10788  13.786   3.414   6.603  0.0161  0.4316  0.2333
  776POPS   C3A10789  13.615   3.357   6.894  0.1759 -0.1104 -0.2481
  776POPS   C4A10790  13.240   3.382   7.190 -0.1125  0.3301  0.0165
  776POPS   C1B10791  13.813   3.933   6.468 -0.0196  0.0544 -0.2480
  776POPS   C2B10792  13.802   3.854   6.896 -0.0223 -0.0127  0.0278
  776POPS   C3B10793  13.849   3.666   7.280 -0.0247  0.0383 -0.2974
  776POPS   C4B10794  13.882   3.242   7.449  0.2079 -0.2484 -0.0803
  777POPS   CNO10795  16.293  15.748   5.381  0.2593 -0.0683  0.1393
  777POPS   PO410796  16.702  15.798   5.638  0.1662 -0.1847  0.0878
  777POPS   GL110797  16.464  15.986   6.061  0.3774  0.0076 -0.0686
  777POPS   GL210798  16.269  16.078   5.823 -0.2528  0.1651  0.3772
  777POPS   C1A10799  16.661  15.937   6.468  0.0529 -0.1228 -0.2096
  777POPS   D2A10800  16.428  15.804   6.796  0.2170 -0.1826  0.0117
  777POPS   C3A10801  16.393  15.381   6.871 -0.1799  0.2239 -0.3223
  777POPS   C4A10802  16.632  15.085   7.052  0.3436 -0.0144  0.1298
  777POPS   C1B10803  16.435  16.503   6.201  0.0209  0.1460  0.1861
  777POPS   C2B10804  16.580  16.717   6.548  0.3585  0.1426 -0.1233
  777POPS   C3B10805  16.360  16.987   6.904  0.1728 -0.0609 -0.0160
  777POPS   C4B10806  16.533  17.391   6.957  0.1584 -0.1505 -0.3211
  778POPS   CNO10807  16.063   0.301   5.219 -0.0359  0.2695 -0.2160
  778POPS   PO410808  15.997  -0.031   5.416  0.0587 -0.1074 -0.0266
  778POPS   GL110809  15.965   0.208   5.742  0.2836  0.0824  0.1680
  778POPS   GL210810  16.163   0.127   6.002 -0.3335 -0.4126 -0.0191
  778POPS   C1A10811  15.969   0.507   6.201 -0.2364 -0.1864  0.1229
  778POPS   D2A10812  15.963   0.722   6.599 -0.1735  0.0410  0.1125
  778POPS   C3A10813  15.527   0.730   6.772  0.2324 -0.0933 -0.0170
  778POPS   C4A10814  15.137   0.926   6.756 -0.1475  0.1483 -0.3026
  778POPS   C1B10815  16.485   0.271   6.240 -0.2226  0.0649 -0.0702
  778POPS   C2B10816  16.922   0.482   6.154 -0.0684  0.0064 -0.2306
  778POPS   C3B10817  16.920   0.865   6.147  0.0181  0.1125  0.4016
  778POPS   C4B10818  16.602   1.113   6.053  0.1893  0.2019 -0.5468
  779POPS   CNO10819   9.557   9.741   5.350  0.3141  0.0529 -0.2852
  779POPS   PO410820  10.021   9.681   5.420  0.3137  0.2620  0.0673
  779POPS   GL110821   9.894   9.563   5.792  0.1076  0.1327  0.0415
  779POPS   GL210822   9.997   9.215   5.830 -0.0890  0.1125  0.0886
  779POPS   C1A10823   9.653   9.415   6.213 -0.1114  0.2412  0.0782
  779POPS   D2A10824   9.888   9.029   6.541 -0.0400 -0.1907 -0.2163
  779POPS   C3A10825   9.698   8.647   6.601 -0.0958 -0.0224 -0.2365
  779POPS   C4A10826   9.731   8.327   6.918  0.0891 -0.3540  0.0096
  779POPS   C1B10827  10.199   9.391   6.139  0.4653  0.0962 -0.2211
  779POPS   C2B10828  10.272   9.386   6.513  0.1018  0.1290  0.1366
  779POPS   C3B10829  10.167   9.378   6.943  0.2157 -0.1756 -0.0239
  779POPS   C4B10830   9.896   9.587   7.267  0.1934  0.0005 -0.0176
  780POPS   CNO10831   1.043   2.336   6.294  0.1908  0.0234  0.2883
  780POPS   PO410832   1.115   2.084   5.912  0.1522  0.0952  0.1981
  780POPS   GL110833   1.228   1.854   6.236 -0.3825  0.0973  0.2644
  780POPS   GL210834   1.089   1.496   6.121 -0.0340 -0.1825  0.0333
  780POPS   C1A10835   1.361   1.616   6.605  0.0249 -0.1994  0.0245
  780POPS   D2A10836   1.382   1.704   7.071  0.0431 -0.0401 -0.0231
  780POPS   C3A10837   1.213   1.887   7.428 -0.3783 -0.0676  0.0126
  780POPS   C4A10838   1.018   1.556   7.659  0.3485 -0.0797 -0.2395
  780POPS   C1B10839   1.253   1.161   6.408  0.1939 -0.0433 -0.0742
  780POPS   C2B10840   1.541   0.958   6.711  0.0887 -0.0488 -0.4211
  780POPS   C3B10841   1.674   0.948   7.218 -0.0072  0.1393 -0.0257
  780POPS   C4B10842   1.818   0.782   7.549  0.2778  0.2022  0.2864
  781POPS   CNO10843   7.258  18.234   5.658  0.1911  0.0730  0.0027
  781POPS   PO410844   6.947  17.812   5.606  0.0287  0.0198  0.1649
  781POPS   GL110845   7.002  17.932   6.065 -0.0806  0.2856 -0.2618
  781POPS   GL210846   7.230  17.643   6.230 -0.0313 -0.0668  0.0672
  781POPS   C1A10847   7.122  18.065   6.442 -0.2357  0.1527 -0.1153
  781POPS   D2A10848   7.271  18.016   6.920 -0.3317 -0.2224  0.0634
  781POPS   C3A10849   7.070  18.318   7.094 -0.1488 -0.2058 -0.3893
  781POPS   C4A10850   7.467  18.450   7.292 -0.0241 -0.1321  0.0470
  781POPS   C1B10851   6.994  17.576   6.675  0.0899  0.3327 -0.0526
  781POPS   C2B10852   6.869  17.144   6.836 -0.1201 -0.0413  0.0965
  781POPS   C3B10853   6.765  17.104   7.295  0.1573  0.0020  0.0335
  781POPS   C4B10854   6.678  16.821   7.664 -0.1929  0.0690 -0.1335
  782POPS   CNO10855   8.677   4.600   4.799 -0.0494  0.1706 -0.2071
  782POPS   PO410856   8.734   5.079   5.059 -0.1447  0.1313 -0.0082
  782POPS   GL110857   8.510   5.113   5.382 -0.0594 -0.1259 -0.1721
  782POPS   GL210858   8.322   5.392   5.604 -0.0719 -0.0232  0.3132
  782POPS   C1A10859   8.299   4.897   5.668 -0.1250 -0.0521  0.1029
  782POPS   D2A10860   8.264   4.865   6.190 -0.0753  0.3108  0.3002
  782POPS   C3A10861   8.566   4.847   6.593  0.1003 -0.1894  0.0401
  782POPS   C4A10862   8.650   5.104   6.910 -0.0533  0.0231 -0.1401
  782POPS   C1B10863   8.355   5.396   6.017 -0.1755  0.2029  0.0661
  782POPS   C2B10864   8.103   5.298   6.299 -0.0767 -0.0802  0.0663
  782POPS   C3B10865   8.175   5.172   6.688 -0.0585  0.0811 -0.0654
  782POPS   C4B10866   8.167   5.298   7.124  0.0395  0.2189  0.1075
  783POPS   CNO10867  13.238  12.185   5.752 -0.3183 -0.0873 -0.1219
  783POPS   PO410868  13.432  12.062   6.048  0.1857  0.0189 -0.0793
  783POPS   GL110869  13.449  11.777   6.330  0.1177 -0.1577 -0.1832
  783POPS   GL210870  13.153  11.730   6.521 -0.1138  0.0616  0.1100
  783POPS   C1A10871  13.618  11.398   6.605  0.3393  0.0313 -0.1143
  783POPS   D2A10872  13.496  11.021   6.924 -0.2571  0.0632  0.0279
  783POPS   C3A10873  13.536  10.764   7.254  0.0747 -0.1779  0.0205
  783POPS   C4A10874  13.605  10.674   7.655 -0.2593  0.0947  0.0306
  783POPS   C1B10875  13.374  11.880   6.860  0.2465 -0.0944  0.0609
  783POPS   C2B10876  13.533  11.960   7.287  0.2914 -0.1781  0.1820
  783POPS   C3B10877  13.409  12.192   7.611 -0.1568  0.1004  0.1168
  783POPS   C4B10878  13.108  12.530   7.724 -0.1860  0.0423 -0.0905
  784POPS   CNO10879   5.068   2.430   5.233  0.1763  0.3206  0.1428
  784POPS   PO410880   4.947   2.056   5.168 -0.1020 -0.2435  0.1113
  784POPS   GL110881   4.696   2.294   5.536  0.2097  0.0693  0.3364
  784POPS   GL210882   4.964   2.406   5.717 -0.1848 -0.0578  0.1444
  784POPS   C1A10883   4.441   2.465   6.002  0.0675 -0.2010  0.0229
  784POPS   D2A10884   4.681   2.558   6.302  0.5547 -0.3473  0.2167
  784POPS   C3A10885   5.086   2.580   6.196  0.0096 -0.2673 -0.2407
  784POPS   C4A10886   5.428   2.897   6.468  0.2191  0.0038 -0.2021
  784POPS   C1B10887   4.733   2.099   6.067 -0.0685 -0.2836  0.0967
  784POPS   C2B10888   4.514   1.980   6.301  0.1427  0.1770  0.1345
  784POPS   C3B10889   4.239   1.696   6.558  0.1521  0.1133 -0.1667
  784POPS   C4B10890   4.093   1.524   6.925  0.1897 -0.0970  0.1096
  785POPS   CNO10891   3.134   1.705   5.881 -0.0072  0.1218  0.0380
  785POPS   PO410892   3.277   1.901   5.496  0.1857  0.0499 -0.0901
  785POPS   GL110893   3.468   2.040   5.985 -0.5415 -0.1987  0.1849
  785POPS   GL210894   3.840   1.944   6.020 -0.1335 -0.0507  0.1819
  785POPS   C1A10895   3.274   1.876   6.335  0.1781 -0.0430 -0.0963
  785POPS   D2A10896   3.297   1.853   6.803 -0.0347  0.2314  0.0166
  785POPS   C3A10897   3.086   2.083   7.269 -0.0340 -0.0156  0.1889
  785POPS   C4A10898   2.693   2.182   7.255 -0.0403 -0.2854 -0.2072
  785POPS   C1B10899   4.046   2.190   6.445 -0.1234  0.0360 -0.4254
  785POPS   C2B10900   4.023   2.415   6.850  0.2281 -0.1369 -0.2400
  785POPS   C3B10901   3.816   2.715   7.090 -0.1210  0.3729  0.1581
  785POPS   C4B10902   3.848   2.858   7.489 -0.0195 -0.6156 -0.0547
  786POPS   CNO10903   6.843   0.565   5.151  0.0019 -0.2536  0.1041
  786POPS   PO410904   6.660   0.309   5.505 -0.0488  0.0186 -0.0738
  786POPS   GL110905   6.468   0.275   5.912 -0.0116 -0.3242  0.1802
  786POPS   GL210906   6.349   0.590   5.994  0.2116  0.0209  0.0937
  786POPS   C1A10907   6.691   0.321   6.414 -0.1758  0.0741  0.0388
  786POPS   D2A10908   6.874   0.427   6.844 -0.0757  0.0382 -0.1696
  786POPS   C3A10909   6.788   0.272   7.320 -0.2701  0.0881 -0.1871
  786POPS   C4A10910   6.638   0.492   7.674  0.3331  0.0571 -0.1639
  786POPS   C1B10911   6.100   0.820   6.168  0.1513  0.1269  0.0907
  786POPS   C2B10912   6.074   1.169   6.349 -0.0090  0.1661  0.2801
  786POPS   C3B10913   5.775   1.501   6.429  0.0177 -0.1262 -0.0908
  786POPS   C4B10914   5.425   1.694   6.349 -0.0506  0.0210 -0.3093
  787POPS   CNO10915  12.122  12.894   5.601  0.0138 -0.3191 -0.0540
  787POPS   PO410916  12.628  12.851   5.681 -0.1907  0.2474  0.0795
  787POPS   GL110917  12.362  12.853   6.051 -0.0827 -0.0364 -0.0053
  787POPS   GL210918  12.410  13.184   6.263  0.0269 -0.2318 -0.0465
  787POPS   C1A10919  12.019  12.878   6.204 -0.1181 -0.0599  0.1505
  787POPS   D2A10920  11.982  13.130   6.566 -0.1767 -0.0691 -0.0078
  787POPS   C3A10921  11.824  13.184   7.011 -0.1223 -0.0860 -0.1303
  787POPS   C4A10922  11.781  12.961   7.300 -0.0444 -0.1074 -0.3093
  787POPS   C1B10923  12.375  12.841   6.560 -0.0377  0.1454 -0.1121
  787POPS   C2B10924  12.042  12.435   6.439  0.1264  0.0632  0.1281
  787POPS   C3B10925  11.685  12.542   6.371 -0.1877  0.1853 -0.0180
  787POPS   C4B10926  11.308  12.413   6.227 -0.2657 -0.0638 -0.1610
  788POPS   CNO10927   8.737  18.654   5.286 -0.2786 -0.0938 -0.2010
  788POPS   PO410928   8.751  18.328   5.572  0.1712  0.3380 -0.1841
  788POPS   GL110929   8.791  18.454   5.928 -0.1354  0.1769 -0.0867
  788POPS   GL210930   8.880  18.105   6.002 -0.0284  0.2164  0.0858
  788POPS   C1A10931   8.669  18.448   6.400 -0.3364 -0.0587 -0.0336
  788POPS   D2A10932   8.534  18.747   6.720  0.4406 -0.2410  0.2633
  788POPS   C3A10933   8.673  18.689   7.088 -0.2140 -0.1303  0.1841
  788POPS   C4A10934   8.997  18.430   7.282 -0.0535 -0.1309 -0.2686
  788POPS   C1B10935   8.817  17.870   6.347 -0.3006  0.0124 -0.0708
  788POPS   C2B10936   8.992  17.667   6.737  0.2093  0.0323  0.4460
  788POPS   C3B10937   9.006  17.500   7.155 -0.4443  0.1345 -0.0808
  788POPS   C4B10938   8.938  17.218   7.435 -0.4070 -0.1082  0.2286
  789POPS   CNO10939   3.838  18.747   5.772 -0.1597  0.3381 -0.0956
  789POPS   PO410940   3.796  19.178   5.760  0.1872 -0.2422  0.1535
  789POPS   GL110941   3.771  19.030   6.199 -0.0609 -0.3492  0.0983
  789POPS   GL210942   3.408  19.040   6.125 -0.1016  0.1061  0.0266
  789POPS   C1A10943   3.912  18.963   6.660 -0.1137  0.0265 -0.0882
  789POPS   D2A10944   4.218  19.071   6.826  0.0509 -0.3576 -0.1965
  789POPS   C3A10945   4.546  18.895   6.630 -0.1452 -0.4432 -0.1124
  789POPS   C4A10946   4.781  18.593   6.666 -0.0320  0.0100 -0.2752
  789POPS   C1B10947   3.458  19.159   6.605  0.0631 -0.1167  0.1458
  789POPS   C2B10948   3.377  19.142   7.078 -0.1387  0.5814 -0.3718
  789POPS   C3B10949   3.677  18.938   7.342  0.1097 -0.1051  0.2452
  789POPS   C4B10950   4.092  18.868   7.271 -0.0269 -0.1018 -0.2281
  790POPS   CNO10951  16.115   5.271   5.406 -0.2460  0.0591  0.1355
  790POPS   PO410952  16.307   4.854   5.473 -0.0959 -0.1464  0.1387
  790POPS   GL110953  16.613   4.910   5.757  0.2623 -0.3394  0.0501
  790POPS   GL210954  16.373   4.939   5.991  0.2818 -0.0690 -0.0965
  790POPS   C1A10955  16.796   4.791   6.173  0.1130  0.0606  0.0749
  790POPS   D2A10956  17.014   4.830   6.417  0.1203 -0.2004 -0.0077
  790POPS   C3A10957  17.054   4.813   6.931 -0.0823 -0.1878  0.1141
  790POPS   C4A10958  16.779   4.679   7.199  0.1240  0.4882 -0.0369
  790POPS   C1B10959  16.487   5.162   6.332  0.0728 -0.1535  0.1102
  790POPS   C2B10960  16.882   5.263   6.692 -0.1909 -0.0743 -0.1842
  790POPS   C3B10961  17.289   5.474   7.036 -0.2133 -0.3208  0.0516
  790POPS   C4B10962  17.264   5.771   7.251 -0.0514  0.2482 -0.2942
  791POPS   CNO10963   3.899  18.394   5.325  0.0709  0.1475 -0.0125
  791POPS   PO410964   4.262  18.625   5.557 -0.0577  0.0242 -0.0117
  791POPS   GL110965   4.308  18.567   5.981  0.2753  0.0330 -0.2778
  791POPS   GL210966   4.306  18.150   6.063 -0.1656 -0.1798  0.0912
  791POPS   C1A10967   4.316  18.561   6.391  0.1117 -0.4534  0.2918
  791POPS   D2A10968   4.156  18.543   6.761 -0.1288 -0.0887  0.1681
  791POPS   C3A10969   4.200  18.297   7.164  0.1560  0.2141  0.1088
  791POPS   C4A10970   4.314  18.442   7.504  0.0614  0.3367 -0.0320
  791POPS   C1B10971   4.184  18.023   6.493  0.1526 -0.1776  0.1751
  791POPS   C2B10972   3.934  18.083   6.779 -0.2380 -0.3830 -0.4002
  791POPS   C3B10973   3.737  18.037   7.185 -0.1965 -0.1731 -0.0291
  791POPS   C4B10974   3.483  17.902   7.496  0.1069  0.1711  0.0622
  792POPS   CNO10975  11.496  13.559   5.647  0.0090  0.1430  0.0634
  792POPS   PO410976  11.425  14.050   5.743 -0.2836  0.0493 -0.1232
  792POPS   GL110977  11.596  14.153   6.086  0.0647 -0.0780 -0.1897
  792POPS   GL210978  11.406  14.404   6.143  0.0555  0.4258  0.6080
  792POPS   C1A10979  11.645  14.001   6.491 -0.0511 -0.2236  0.0617
  792POPS   D2A10980  11.737  13.660   6.801 -0.0656  0.2636 -0.0773
  792POPS   C3A10981  11.397  13.431   7.032 -0.0758 -0.1179  0.0500
  792POPS   C4A10982  11.289  13.036   7.212  0.0844  0.0298 -0.0611
  792POPS   C1B10983  11.254  14.322   6.599 -0.0129  0.0112 -0.0353
  792POPS   C2B10984  11.231  14.381   7.125  0.0130  0.1471 -0.1078
  792POPS   C3B10985  11.224  14.307   7.564 -0.2379 -0.1107 -0.0395
  792POPS   C4B10986  11.410  14.362   7.905  0.0495  0.1126 -0.1249
  793POPS   CNO10987   7.920   8.177   4.961  0.0461 -0.0799 -0.0206
  793POPS   PO410988   8.086   8.649   5.088  0.0093  0.1385  0.2983
  793POPS   GL110989   7.926   8.405   5.528 -0.1156  0.2356  0.2997
  793POPS   GL210990   7.648   8.069   5.492 -0.0891 -0.1816  0.1160
  793POPS   C1A10991   7.949   8.389   6.056 -0.1075 -0.0900  0.2608
  793POPS   D2A10992   7.852   8.289   6.494 -0.1689  0.2757  0.1130
  793POPS   C3A10993   7.892   8.466   6.954 -0.1154 -0.0650 -0.1218
  793POPS   C4A10994   7.803   8.716   7.279 -0.1181 -0.2458 -0.0507
  793POPS   C1B10995   7.583   8.058   5.949 -0.0323 -0.0289 -0.3024
  793POPS   C2B10996   7.729   7.823   6.312  0.2745 -0.1114  0.1117
  793POPS   C3B10997   7.769   7.767   6.763  0.0345 -0.3770  0.1372
  793POPS   C4B10998   7.950   8.005   7.146  0.1247  0.3197  0.0464
  794POPS   CNO10999  10.220  10.889   5.591 -0.1738 -0.0205 -0.2325
  794POPS   PO411000  10.637  11.006   5.416 -0.2078  0.0325 -0.0587
  794POPS   GL111001  10.697  11.007   5.758  0.1353  0.1675 -0.4687
  794POPS   GL211002  10.590  10.773   5.882  0.4936 -0.0103 -0.2390
  794POPS   C1A11003  10.820  10.991   6.269 -0.3521  0.1755  0.2130
  794POPS   D2A11004  11.124  11.075   6.564 -0.1457  0.4774  0.0949
  794POPS   C3A11005  11.114  10.985   7.025  0.2823 -0.1994  0.0375
  794POPS   C4A11006  11.215  11.316   7.305  0.0647 -0.1976  0.1958
  794POPS   C1B11007  10.544  10.513   6.287 -0.1399 -0.0822  0.0316
  794POPS   C2B11008  10.680  10.212   6.621 -0.2514  0.1605  0.1799
  794POPS   C3B11009  10.834  10.029   7.027  0.1227 -0.3011 -0.2698
  794POPS   C4B11010  10.913   9.698   7.421  0.1629  0.1933 -0.0276
  795POPS   CNO11011   5.152  14.584   5.592 -0.1411  0.1366 -0.0759
  795POPS   PO411012   4.877  14.755   5.274 -0.0332 -0.3067  0.0389
  795POPS   GL111013   4.719  14.810   5.709  0.0923 -0.1829  0.1436
  795POPS   GL211014   4.625  14.539   5.742  0.3435 -0.1150  0.0383
  795POPS   C1A11015   5.004  14.704   6.063  0.1555 -0.0596  0.3739
  795POPS   D2A11016   4.952  14.386   6.411 -0.1142  0.2587  0.3285
  795POPS   C3A11017   5.160  14.487   6.799  0.0253 -0.3718  0.2362
  795POPS   C4A11018   5.347  14.638   7.202 -0.0171 -0.1250 -0.0288
  795POPS   C1B11019   4.530  14.383   6.166 -0.1139  0.0266  0.0501
  795POPS   C2B11020   4.264  14.361   6.456  0.0877  0.3310 -0.2650
  795POPS   C3B11021   4.255  14.145   6.838  0.3492  0.0801 -0.2064
  795POPS   C4B11022   4.572  13.848   7.163 -0.0296  0.2138 -0.1723
  796POPS   CNO11023   6.282   9.933   5.361 -0.0777  0.1496  0.3559
  796POPS   PO411024   5.991   9.584   5.534  0.0508 -0.1644  0.1458
  796POPS   GL111025   5.629   9.662   5.845 -0.3137  0.0388 -0.0480
  796POPS   GL211026   5.467   9.884   5.691 -0.1517 -0.1400  0.1159
  796POPS   C1A11027   5.601   9.549   6.157 -0.2374 -0.3301  0.1028
  796POPS   D2A11028   5.295   9.617   6.503  0.2609  0.0538  0.2101
  796POPS   C3A11029   5.169   9.972   6.753 -0.1275 -0.2446 -0.0420
  796POPS   C4A11030   4.979   9.859   7.190 -0.1924 -0.1230 -0.1198
  796POPS   C1B11031   5.169   9.776   6.000  0.0481  0.3850 -0.0438
  796POPS   C2B11032   5.014   9.383   6.165 -0.1322  0.2049 -0.0539
  796POPS   C3B11033   5.041   9.175   6.635 -0.3661  0.0468  0.0749
  796POPS   C4B11034   5.183   8.898   7.002 -0.0165 -0.0789 -0.3428
  797POPS   CNO11035   2.340   1.415   5.661 -0.1290 -0.1803 -0.0210
  797POPS   PO411036   2.120   1.378   5.986 -0.0639  0.1277  0.1239
  797POPS   GL111037   2.225   1.704   6.359  0.1866  0.0209 -0.2608
  797POPS   GL211038   2.031   2.006   6.370 -0.1477  0.1207 -0.3892
  797POPS   C1A11039   2.318   1.787   6.732  0.3519 -0.1892 -0.0972
  797POPS   D2A11040   2.536   2.021   6.756  0.2744  0.3071 -0.1278
  797POPS   C3A11041   2.864   2.147   6.577  0.2378 -0.1653  0.2370
  797POPS   C4A11042   2.998   2.385   6.296 -0.1617 -0.1402  0.0437
  797POPS   C1B11043   1.846   1.883   6.860 -0.0543  0.0303 -0.0847
  797POPS   C2B11044   1.560   2.161   7.052  0.0504  0.4118 -0.2607
  797POPS   C3B11045   1.486   2.590   7.279 -0.0817 -0.0543 -0.0121
  797POPS   C4B11046   1.509   3.004   7.139  0.3572  0.2795  0.0779
  798POPS   CNO11047   2.490   6.695   5.337 -0.0779  0.1837 -0.0602
  798POPS   PO411048   2.733   6.840   5.636 -0.2407  0.1011  0.1868
  798POPS   GL111049   2.800   6.910   6.096  0.0103 -0.0725  0.0345
  798POPS   GL211050   3.145   6.766   6.260 -0.1384  0.1119  0.1291
  798POPS   C1A11051   2.647   6.948   6.605 -0.0446  0.0705  0.0805
  798POPS   D2A11052   2.397   6.781   6.875 -0.1930  0.1324  0.0116
  798POPS   C3A11053   2.613   6.697   7.371  0.0007 -0.1549 -0.0646
  798POPS   C4A11054   2.845   7.008   7.481 -0.0757  0.0792  0.0647
  798POPS   C1B11055   3.373   6.625   6.594 -0.0048 -0.0617 -0.0026
  798POPS   C2B11056   3.601   6.664   6.938  0.0881 -0.0393  0.1517
  798POPS   C3B11057   3.753   6.754   7.240 -0.0217  0.0110  0.0336
  798POPS   C4B11058   3.685   7.210   7.517 -0.1161  0.4389  0.0111
  799POPS   CNO11059  12.463   3.747   4.926 -0.3384  0.4205  0.1591
  799POPS   PO411060  12.707   3.815   5.375 -0.0256 -0.0388  0.0841
  799POPS   GL111061  12.607   3.700   5.766  0.2137 -0.1754  0.1986
  799POPS   GL211062  12.409   3.959   5.762 -0.0559 -0.2460  0.0255
  799POPS   C1A11063  12.248   3.572   6.013  0.0671 -0.0954  0.0366
  799POPS   D2A11064  11.999   3.224   6.177  0.0727  0.0308  0.1180
  799POPS   C3A11065  11.617   3.427   6.349 -0.0231 -0.0256  0.0664
  799POPS   C4A11066  11.500   3.739   6.561  0.1047 -0.1415  0.1246
  799POPS   C1B11067  12.100   4.087   5.987  0.0660  0.2085 -0.0025
  799POPS   C2B11068  11.929   3.848   6.325  0.0308 -0.1404 -0.0880
  799POPS   C3B11069  11.983   3.579   6.630 -0.1001 -0.2076  0.1263
  799POPS   C4B11070  12.203   3.507   7.002 -0.0362  0.1587  0.1628
  800POPS   CNO11071  17.491  17.053   5.495 -0.1331 -0.2307 -0.0689
  800POPS   PO411072  17.449  17.005   5.937  0.1294  0.0295  0.0240
  800POPS   GL111073  17.671  16.738   6.251  0.2408 -0.1054 -0.2071
  800POPS   GL211074  17.995  16.566   6.161 -0.0836 -0.0999 -0.1325
  800POPS   C1A11075  17.668  16.865   6.755 -0.0322  0.2610  0.0352
  800POPS   D2A11076  17.371  16.988   7.041 -0.0997  0.2262  0.0759
  800POPS   C3A11077  17.309  16.789   7.383  0.0092  0.2519 -0.2928
  800POPS   C4A11078  17.456  16.433   7.738  0.1438 -0.3059  0.0753
  800POPS   C1B11079  18.221  16.491   6.544  0.1572  0.0577 -0.3025
  800POPS   C2B11080  18.162  16.766   6.953  0.3912  0.2660 -0.2376
  800POPS   C3B11081  18.014  17.098   7.320  0.0603 -0.0478  0.3488
  800POPS   C4B11082  17.604  17.240   7.450  0.2236  0.0655 -0.1617
  801POPS   CNO11083  10.579   1.438   5.270  0.0203  0.2155 -0.0033
  801POPS   PO411084  10.957   1.094   5.451  0.2430  0.1668 -0.3616
  801POPS   GL111085  11.053   1.162   5.875  0.1582 -0.2159  0.0468
  801POPS   GL211086  11.119   0.859   6.025 -0.1434  0.0738 -0.0668
  801POPS   C1A11087  10.977   1.409   6.148 -0.2556  0.1121 -0.2231
  801POPS   D2A11088  11.046   1.639   6.507  0.2935  0.1291  0.0767
  801POPS   C3A11089  11.130   2.037   6.642 -0.2337  0.2000  0.1779
  801POPS   C4A11090  11.424   2.156   7.011  0.0154  0.0106  0.1131
  801POPS   C1B11091  11.230   0.590   6.461 -0.2955 -0.1856  0.1466
  801POPS   C2B11092  11.271   0.701   6.794 -0.0725 -0.1735  0.0578
  801POPS   C3B11093  11.311   1.082   7.027  0.1288 -0.1999 -0.0680
  801POPS   C4B11094  11.821   1.119   7.153  0.1746 -0.1203  0.2008
  802POPS   CNO11095   9.921   3.562   4.583  0.0631 -0.3096 -0.2441
  802POPS   PO411096  10.178   3.798   4.974  0.0011  0.2723 -0.2868
  802POPS   GL111097  10.126   3.938   5.418 -0.4007 -0.0308  0.0974
  802POPS   GL211098   9.978   4.278   5.623  0.1363  0.1443 -0.0202
  802POPS   C1A11099  10.231   3.933   5.902  0.0357  0.0201 -0.4804
  802POPS   D2A11100  10.461   3.895   6.312  0.0237 -0.1614 -0.2092
  802POPS   C3A11101  10.210   4.129   6.584 -0.0508 -0.2191 -0.0630
  802POPS   C4A11102   9.904   4.321   6.869  0.2914  0.1671 -0.1713
  802POPS   C1B11103   9.999   4.319   6.116 -0.0665  0.0932 -0.0251
  802POPS   C2B11104   9.724   4.558   6.400  0.1903  0.2749 -0.1254
  802POPS   C3B11105   9.517   4.644   6.809  0.1578 -0.3452 -0.0807
  802POPS   C4B11106   9.267   4.875   7.075 -0.1985 -0.1793  0.1346
  803POPS   CNO11107  13.384   3.610   5.531 -0.2002  0.0423 -0.0952
  803POPS   PO411108  12.919   3.388   5.603  0.0180  0.2689 -0.3086
  803POPS   GL111109  13.180   3.103   5.738 -0.0044 -0.3666  0.1570
  803POPS   GL211110  13.433   3.218   5.891 -0.0756  0.3196  0.0880
  803POPS   C1A11111  12.998   3.079   6.112  0.5565  0.3505 -0.1617
  803POPS   D2A11112  12.689   3.019   6.378 -0.0026 -0.1079 -0.1628
  803POPS   C3A11113  12.633   3.318   6.514 -0.1125 -0.1985 -0.1595
  803POPS   C4A11114  12.654   3.780   6.238 -0.1174 -0.0885  0.1023
  803POPS   C1B11115  13.437   3.133   6.435  0.1866  0.0377 -0.1399
  803POPS   C2B11116  13.094   3.206   6.731  0.0558 -0.0289 -0.0677
  803POPS   C3B11117  12.988   2.970   7.103  0.1507  0.1559  0.1301
  803POPS   C4B11118  13.070   2.677   7.384 -0.1252 -0.1688 -0.1151
  804POPS   CNO11119  17.661   9.153   5.979  0.2870 -0.2292  0.0952
  804POPS   PO411120  17.928   9.420   5.609  0.0440 -0.0500 -0.2319
  804POPS   GL111121  18.218   9.440   5.952 -0.0118  0.3053 -0.0756
  804POPS   GL211122  18.645   9.426   5.850  0.0518 -0.1932  0.3691
  804POPS   C1A11123  18.405   9.504   6.326 -0.1082 -0.0274 -0.0535
  804POPS   D2A11124  18.543   9.925   6.685 -0.1058  0.1129  0.0613
  804POPS   C3A11125  18.814  10.172   6.521 -0.1524  0.3141 -0.0397
  804POPS   C4A11126  19.160  10.373   6.457  0.5136  0.0359 -0.1224
  804POPS   C1B11127  18.689   9.132   6.135  0.1639  0.0660 -0.0924
  804POPS   C2B11128  18.802   9.121   6.571  0.1116  0.0148 -0.0575
  804POPS   C3B11129  18.738   9.018   7.090  0.0606 -0.1872 -0.0729
  804POPS   C4B11130  19.039   8.911   7.437 -0.1764  0.0128  0.1467
  805POPS   CNO11131  18.280  13.411   5.355 -0.1700  0.0523 -0.2537
  805POPS   PO411132  18.378  13.485   5.750 -0.1225 -0.1108 -0.2066
  805POPS   GL111133  18.493  13.478   6.273  0.1123  0.0259  0.2047
  805POPS   GL211134  18.190  13.419   6.247  0.2520 -0.2192  0.0741
  805POPS   C1A11135  18.501  13.647   6.685  0.1188  0.2720 -0.1207
  805POPS   D2A11136  18.506  13.444   7.075 -0.0829 -0.0392 -0.0201
  805POPS   C3A11137  18.037  13.357   7.200 -0.1111 -0.2968  0.1961
  805POPS   C4A11138  17.634  13.473   7.362  0.2314 -0.1230 -0.0431
  805POPS   C1B11139  18.279  13.030   6.528  0.0792  0.2974 -0.0371
  805POPS   C2B11140  18.587  13.037   6.697 -0.3264 -0.1554 -0.2114
  805POPS   C3B11141  18.798  12.835   7.062 -0.2928  0.0202 -0.2694
  805POPS   C4B11142  19.083  12.655   7.405  0.1469  0.2052 -0.3826
  806POPS   CNO11143   7.655   5.877   5.303  0.1931  0.0552  0.1666
  806POPS   PO411144   7.684   5.465   5.328 -0.0700 -0.4033 -0.0543
  806POPS   GL111145   7.540   5.593   5.701 -0.2504  0.0290  0.1344
  806POPS   GL211146   7.533   5.920   5.760  0.0894 -0.0271 -0.0171
  806POPS   C1A11147   7.649   5.501   6.082 -0.0113  0.0526 -0.1045
  806POPS   D2A11148   7.401   5.416   6.425 -0.0360  0.3228  0.3867
  806POPS   C3A11149   7.666   5.378   6.757  0.2190 -0.2008 -0.0605
  806POPS   C4A11150   7.705   5.270   7.293 -0.0979 -0.0730 -0.2441
  806POPS   C1B11151   7.738   5.992   6.151  0.0143  0.0076  0.0441
  806POPS   C2B11152   7.589   5.901   6.511 -0.0733 -0.1233  0.0637
  806POPS   C3B11153   7.338   5.820   6.919  0.2690  0.3878 -0.0731
  806POPS   C4B11154   6.936   5.914   7.185 -0.2093  0.1895 -0.2859
  807POPS   CNO11155  12.880  16.804   5.389 -0.1124 -0.0034 -0.0071
  807POPS   PO411156  13.230  16.689   5.593  0.0353  0.1358  0.1450
  807POPS   GL111157  13.369  16.636   5.991 -0.2075  0.2965 -0.0499
  807POPS   GL211158  13.389  16.909   6.298  0.0345 -0.1273 -0.0218
  807POPS   C1A11159  13.435  16.345   6.326 -0.0009  0.0155 -0.0241
  807POPS   D2A11160  13.570  15.906   6.444  0.0453  0.3845 -0.3242
  807POPS   C3A11161  13.757  15.815   6.813 -0.0745  0.0705 -0.3001
  807POPS   C4A11162  14.033  15.824   7.161  0.0395  0.2519 -0.3046
  807POPS   C1B11163  13.440  16.656   6.698  0.1491  0.0194  0.0990
  807POPS   C2B11164  13.749  16.327   6.705 -0.1484 -0.0547  0.0318
  807POPS   C3B11165  14.161  16.247   6.940 -0.0028  0.0653  0.0830
  807POPS   C4B11166  14.189  16.321   7.415 -0.1266 -0.3143  0.3850
  808POPS   CNO11167  14.941   9.547   5.496 -0.0083 -0.0038  0.0022
  808POPS   PO411168  15.302   9.234   5.374 -0.0221 -0.1120  0.2626
  808POPS   GL111169  15.227   9.292   5.812 -0.0474 -0.0006  0.0222
  808POPS   GL211170  15.590   9.412   6.061  0.0627  0.1935 -0.3784
  808POPS   C1A11171  14.973   9.515   6.131 -0.1942 -0.1296 -0.1572
  808POPS   D2A11172  14.688   9.800   6.351 -0.1287 -0.0129  0.1359
  808POPS   C3A11173  14.409   9.592   6.623  0.4023  0.0043 -0.2340
  808POPS   C4A11174  14.162   9.414   7.033 -0.2459 -0.0507  0.0849
  808POPS   C1B11175  15.374   9.378   6.460 -0.2320 -0.2212  0.2002
  808POPS   C2B11176  15.075   9.345   6.632  0.1439  0.2986 -0.0286
  808POPS   C3B11177  15.048   9.465   7.050 -0.3835 -0.2580  0.2825
  808POPS   C4B11178  14.733   9.584   7.398 -0.2696  0.2983 -0.0832
  809POPS   CNO11179  18.345  17.221   5.205  0.2536  0.1113  0.0603
  809POPS   PO411180  18.009  17.256   5.454  0.2783  0.2068 -0.0732
  809POPS   GL111181  17.963  17.045   5.903  0.3231 -0.0113 -0.1675
  809POPS   GL211182  18.204  16.999   6.246  0.1000  0.1956  0.0119
  809POPS   C1A11183  17.803  17.323   6.264 -0.7640  0.1944  0.2652
  809POPS   D2A11184  17.432  17.179   6.435 -0.3422  0.2173  0.0257
  809POPS   C3A11185  17.241  17.449   6.770 -0.2558 -0.0357  0.0362
  809POPS   C4A11186  16.900  17.706   6.861 -0.1128 -0.1711  0.3177
  809POPS   C1B11187  18.093  17.234   6.705  0.0554  0.2335 -0.2999
  809POPS   C2B11188  18.221  17.511   6.960  0.2501  0.0049 -0.2980
  809POPS   C3B11189  18.342  17.450   7.246  0.0770  0.1950  0.0715
  809POPS   C4B11190  18.371  17.295   7.705  0.0405  0.3557 -0.0586
  810POPS   CNO11191  14.401  12.365   5.690 -0.0937 -0.2839 -0.0708
  810POPS   PO411192  14.132  12.748   6.020 -0.0353 -0.0380  0.1135
  810POPS   GL111193  14.262  12.693   6.360 -0.1952  0.0430 -0.0888
  810POPS   GL211194  14.040  12.654   6.602 -0.4135 -0.1715  0.5184
  810POPS   C1A11195  14.452  12.732   6.810  0.0380 -0.2180  0.1779
  810POPS   D2A11196  14.324  12.535   7.059  0.0522  0.0970  0.0460
  810POPS   C3A11197  14.211  12.158   6.880 -0.0854 -0.0409  0.0054
  810POPS   C4A11198  13.957  11.911   6.623  0.0841 -0.2840 -0.0159
  810POPS   C1B11199  13.872  12.747   6.963  0.0892 -0.1699  0.0399
  810POPS   C2B11200  13.915  12.908   7.294  0.1161 -0.2140 -0.0688
  810POPS   C3B11201  14.025  13.212   7.631  0.1647 -0.2882 -0.0488
  810POPS   C4B11202  14.298  13.529   7.631 -0.1426  0.2830 -0.3002
  811POPS   CNO11203  15.127   5.029   5.948 -0.4383  0.0670 -0.0259
  811POPS   PO411204  15.447   4.917   5.653 -0.1556 -0.0262 -0.2781
  811POPS   GL111205  15.340   4.594   5.692 -0.3928 -0.2312 -0.1898
  811POPS   GL211206  15.077   4.567   5.752  0.0067  0.1222 -0.0033
  811POPS   C1A11207  15.703   4.399   5.960 -0.1852  0.1507 -0.0659
  811POPS   D2A11208  15.783   4.312   6.445  0.0505  0.1349  0.3092
  811POPS   C3A11209  16.020   4.355   6.928 -0.1285  0.0081  0.1635
  811POPS   C4A11210  16.253   4.478   7.282  0.2472  0.3172 -0.4594
  811POPS   C1B11211  15.190   4.489   6.175  0.0969  0.0344  0.5369
  811POPS   C2B11212  15.256   4.400   6.632 -0.3955  0.0737  0.3279
  811POPS   C3B11213  14.999   4.152   6.828  0.0627 -0.0391  0.0114
  811POPS   C4B11214  14.544   3.906   6.968 -0.0058  0.1384 -0.2435
  812YOPS   CNO11215  16.342  13.317   5.351  0.0003 -0.1552 -0.1123
  812YOPS   PO411216  16.066  13.047   5.580 -0.1813 -0.0509  0.0750
  812YOPS   GL111217  16.052  12.985   5.980 -0.0147  0.4067 -0.0309
  812YOPS   GL211218  15.871  13.230   6.129 -0.2195 -0.0746 -0.2367
  812YOPS   C1A11219  16.328  13.012   6.282  0.1920  0.2341  0.2639
  812YOPS   D2A11220  16.568  12.801   6.641 -0.4154  0.1162  0.0662
  812YOPS   C3A11221  16.930  12.646   6.800 -0.2974  0.1140  0.1343
  812YOPS   C4A11222  17.375  12.825   7.008 -0.3154 -0.1042 -0.1307
  812YOPS   C1B11223  16.161  13.476   6.361  0.0199  0.2111 -0.1465
  812YOPS   C2B11224  16.488  13.399   6.541  0.2159  0.1708 -0.2759
  812YOPS   D3B11225  16.757  13.347   6.271 -0.0939 -0.0842 -0.1434
  812YOPS   C4B11226  17.230  13.550   6.275  0.3590 -0.2074 -0.0133
  813YOPS   CNO11227   4.228  17.105   5.123 -0.0195 -0.1081  0.2127
  813YOPS   PO411228   4.480  16.877   5.409  0.1654 -0.0665  0.3322
  813YOPS   GL111229   4.552  16.530   5.795 -0.1006  0.0212  0.3420
  813YOPS   GL211230   4.374  16.201   5.777  0.3276  0.0985 -0.2732
  813YOPS   C1A11231   4.732  16.532   6.229 -0.0357 -0.0065 -0.1699
  813YOPS   D2A11232   4.760  16.487   6.618 -0.1108  0.5143 -0.1137
  813YOPS   C3A11233   4.510  16.175   6.856  0.1549  0.1935  0.0192
  813YOPS   C4A11234   4.066  15.959   6.886  0.0873 -0.1413 -0.0440
  813YOPS   C1B11235   4.412  16.130   6.246  0.2657 -0.1398 -0.3061
  813YOPS   C2B11236   4.334  15.822   6.539 -0.1477  0.1112 -0.1618
  813YOPS   D3B11237   4.470  15.727   6.816 -0.0009  0.1355  0.4659
  813YOPS   C4B11238   4.321  15.673   7.234  0.1740  0.0000  0.1311
  814YOPS   CNO11239   4.722   0.084   5.596  0.1827  0.1793 -0.0277
  814YOPS   PO411240   5.118   0.109   5.418  0.1984  0.2580 -0.0344
  814YOPS   GL111241   5.292   0.316   5.698  0.0227  0.1529 -0.1779
  814YOPS   GL211242   5.566   0.476   5.701  0.1105 -0.1273 -0.0073
  814YOPS   C1A11243   5.434   0.170   6.151 -0.2268 -0.0164 -0.0392
  814YOPS   D2A11244   5.623   0.289   6.576 -0.0157 -0.2838 -0.0848
  814YOPS   C3A11245   5.485   0.385   7.034  0.3868 -0.0819  0.0263
  814YOPS   C4A11246   5.455   0.826   7.081  0.1304 -0.0665  0.1477
  814YOPS   C1B11247   5.884   0.277   5.939  0.0657  0.1043 -0.1692
  814YOPS   C2B11248   6.086   0.220   6.249  0.1196  0.0284 -0.1310
  814YOPS   D3B11249   6.214   0.453   6.602 -0.2643 -0.2019 -0.0162
  814YOPS   C4B11250   5.984   0.223   6.926 -0.1657 -0.0637 -0.3518
  815YOPS   CNO11251   1.572   9.360   5.153  0.3108 -0.0545  0.0564
  815YOPS   PO411252   1.326   9.234   5.511 -0.0120 -0.3383  0.0095
  815YOPS   GL111253   1.084   9.446   5.818  0.2825 -0.1164 -0.0696
  815YOPS   GL211254   0.789   9.291   5.907  0.3958  0.2106  0.2747
  815YOPS   C1A11255   1.073   9.580   6.235 -0.0924  0.0322 -0.1960
  815YOPS   D2A11256   0.977   9.345   6.565  0.0508 -0.1632  0.1427
  815YOPS   C3A11257   0.999   9.206   6.982 -0.3991  0.0969 -0.0314
  815YOPS   C4A11258   0.919   9.527   7.355 -0.1878  0.0834  0.1007
  815YOPS   C1B11259   1.017   9.016   6.144 -0.0664 -0.1755 -0.1403
  815YOPS   C2B11260   1.394   9.200   6.277  0.1471  0.5366  0.0725
  815YOPS   D3B11261   1.608   9.286   6.685  0.0024  0.1106 -0.0806
  815YOPS   C4B11262   1.422   9.127   7.106 -0.2564 -0.0848 -0.0086
  816YOPS   CNO11263   8.889   0.133   5.754  0.1084 -0.1728 -0.0773
  816YOPS   PO411264   8.514   0.341   5.798 -0.2098  0.0608  0.1361
  816YOPS   GL111265   8.619   0.364   6.246  0.0167  0.2293  0.0620
  816YOPS   GL211266   8.936   0.232   6.341  0.1569  0.1499  0.1788
  816YOPS   C1A11267   8.486   0.432   6.538  0.2470  0.3300 -0.1935
  816YOPS   D2A11268   8.521   0.309   7.041 -0.0251 -0.0440 -0.0201
  816YOPS   C3A11269   8.303   0.466   7.401  0.2325 -0.0026  0.0356
  816YOPS   C4A11270   8.191   0.862   7.638 -0.1129 -0.2184 -0.0664
  816YOPS   C1B11271   8.943   0.166   6.733 -0.0389 -0.1113 -0.1067
  816YOPS   C2B11272   9.012   0.457   7.031 -0.1848 -0.0293 -0.0510
  816YOPS   D3B11273   9.177   0.622   7.426  0.0504  0.0123  0.1255
  816YOPS   C4B11274   9.104   0.640   7.808 -0.2190  0.0643 -0.2157
  817YOPS   CNO11275   7.876  12.628   5.307  0.0435 -0.0408 -0.2072
  817YOPS   PO411276   7.551  12.541   5.598  0.3649  0.0443  0.3104
  817YOPS   GL111277   7.360  12.514   6.040  0.0233 -0.3076 -0.0766
  817YOPS   GL211278   7.648  12.771   6.185  0.0518  0.0593 -0.0398
  817YOPS   C1A11279   7.419  12.352   6.406  0.1017  0.1107 -0.1006
  817YOPS   D2A11280   7.275  12.278   6.858  0.0704  0.1935  0.2477
  817YOPS   C3A11281   7.426  12.117   7.308 -0.1405  0.0059 -0.0739
  817YOPS   C4A11282   7.129  12.032   7.633  0.0569  0.3280 -0.2281
  817YOPS   C1B11283   7.461  12.702   6.703 -0.0425 -0.0668  0.0060
  817YOPS   C2B11284   7.437  12.778   7.170 -0.2484  0.0496 -0.0967
  817YOPS   D3B11285   7.486  12.622   7.528 -0.0141 -0.0064 -0.3178
  817YOPS   C4B11286   7.920  12.599   7.752 -0.1890 -0.1905  0.1606
  818YOPS   CNO11287  16.882   9.662   5.207 -0.1337 -0.1886  0.1705
  818YOPS   PO411288  17.174   9.964   5.208  0.1402 -0.1260  0.1540
  818YOPS   GL111289  17.076   9.898   5.671 -0.0085  0.2036  0.1060
  818YOPS   GL211290  16.747   9.881   5.666 -0.0539  0.0791  0.3779
  818YOPS   C1A11291  16.930   9.783   6.118 -0.0148 -0.3281 -0.1524
  818YOPS   D2A11292  16.993  10.087   6.460  0.0697 -0.2898  0.0294
  818YOPS   C3A11293  17.006  10.301   6.769  0.0291  0.0244  0.0994
  818YOPS   C4A11294  16.694  10.549   6.927  0.1361 -0.0493  0.0953
  818YOPS   C1B11295  16.765  10.284   6.000 -0.1216  0.1051  0.1986
  818YOPS   C2B11296  16.665  10.451   6.403  0.1360  0.1749  0.3344
  818YOPS   D3B11297  16.269  10.600   6.593  0.1939  0.1762 -0.0728
  818YOPS   C4B11298  15.994  10.355   6.540 -0.0664  0.0318  0.1047
  819YOPS   CNO11299  13.427  10.434   5.056  0.4065  0.0307  0.0962
  819YOPS   PO411300  13.220  10.469   5.459  0.0071  0.1774  0.3050
  819YOPS   GL111301  13.251  10.254   5.900 -0.1156  0.0646  0.2134
  819YOPS   GL211302  12.949  10.104   5.903 -0.1483 -0.4316  0.2274
  819YOPS   C1A11303  13.260  10.317   6.325  0.1148  0.0901  0.0959
  819YOPS   D2A11304  13.164  10.252   6.719  0.0525 -0.1127  0.2744
  819YOPS   C3A11305  13.159  10.413   7.105  0.2557  0.1681  0.0357
  819YOPS   C4A11306  12.806  10.230   7.307  0.2315 -0.0583  0.3777
  819YOPS   C1B11307  13.190   9.766   5.734 -0.2581  0.0924 -0.1596
  819YOPS   C2B11308  13.490   9.582   5.739  0.0778 -0.2535 -0.0458
  819YOPS   D3B11309  13.920   9.793   5.837  0.1991 -0.1197 -0.0749
  819YOPS   C4B11310  14.292   9.648   6.103 -0.0053  0.1741 -0.1233
  820YOPS   CNO11311  11.839  18.674   5.727 -0.1798 -0.2158  0.2068
  820YOPS   PO411312  11.951  18.324   5.869 -0.0560  0.1641  0.1661
  820YOPS   GL111313  12.044  18.439   6.295 -0.1930  0.2092 -0.0940
  820YOPS   GL211314  12.136  18.719   6.381  0.0268 -0.0884  0.1159
  820YOPS   C1A11315  12.044  18.354   6.707  0.0145 -0.1096  0.0323
  820YOPS   D2A11316  11.952  18.162   7.150 -0.2162  0.2359 -0.0455
  820YOPS   C3A11317  11.952  18.097   7.641 -0.0717 -0.1857 -0.1999
  820YOPS   C4A11318  12.309  17.815   7.905 -0.0513  0.1249  0.3392
  820YOPS   C1B11319  12.454  18.813   6.605 -0.1617 -0.1785  0.0227
  820YOPS   C2B11320  12.649  19.137   6.668 -0.1689 -0.1234  0.0846
  820YOPS   D3B11321  12.922  19.549   6.610  0.2238  0.1541 -0.1483
  820YOPS   C4B11322  13.360  19.556   6.778  0.2155 -0.3643  0.1999
  821YOPS   CNO11323  17.635  16.123   5.371 -0.1938 -0.1537 -0.1953
  821YOPS   PO411324  17.574  15.702   5.619 -0.0475 -0.0933  0.0863
  821YOPS   GL111325  17.340  15.617   6.022 -0.1646 -0.2146  0.1065
  821YOPS   GL211326  17.001  15.769   6.031 -0.0855 -0.1161  0.1852
  821YOPS   C1A11327  17.233  15.408   6.344  0.4755  0.0836 -0.0620
  821YOPS   D2A11328  17.251  15.418   6.848  0.2308  0.0609 -0.1452
  821YOPS   C3A11329  17.353  15.487   7.266 -0.1087 -0.2251  0.0153
  821YOPS   C4A11330  17.129  15.399   7.625  0.1332 -0.2065  0.1847
  821YOPS   C1B11331  17.177  15.859   6.508  0.3674 -0.0996  0.0763
  821YOPS   C2B11332  17.166  15.886   6.955 -0.1893 -0.1665 -0.0051
  821YOPS   D3B11333  17.218  16.231   7.298 -0.1412  0.0784  0.1210
  821YOPS   C4B11334  16.926  16.498   7.292  0.1748 -0.2202  0.1012
  822YOPS   CNO11335  13.519   3.163   5.363  0.1874  0.0823 -0.0753
  822YOPS   PO411336  13.945   3.036   5.371  0.0829  0.3657  0.1242
  822YOPS   GL111337  13.840   2.895   5.692 -0.0075  0.1906 -0.2559
  822YOPS   GL211338  13.648   2.772   5.829 -0.2193  0.1624 -0.0698
  822YOPS   C1A11339  13.956   2.906   6.147  0.0017  0.2487 -0.1706
  822YOPS   D2A11340  13.926   2.906   6.455 -0.0224  0.2618  0.0435
  822YOPS   C3A11341  14.219   2.610   6.694  0.3293  0.0561  0.0571
  822YOPS   C4A11342  14.426   2.743   7.036  0.2662 -0.0887 -0.0295
  822YOPS   C1B11343  13.397   2.489   6.059 -0.2395 -0.0706  0.0605
  822YOPS   C2B11344  13.299   2.627   6.503  0.0285 -0.1538  0.0141
  822YOPS   D3B11345  13.211   2.511   6.910 -0.1255 -0.1051  0.1664
  822YOPS   C4B11346  13.531   2.474   7.218  0.3822 -0.0829  0.1169
  823YOPS   CNO11347   2.859  11.941   5.855 -0.1213  0.2030  0.1790
  823YOPS   PO411348   3.320  11.979   5.774  0.1668 -0.2066  0.2420
  823YOPS   GL111349   3.455  11.795   6.167 -0.0557 -0.1393 -0.1660
  823YOPS   GL211350   3.291  11.545   6.122 -0.1970  0.1051  0.1056
  823YOPS   C1A11351   3.269  11.804   6.638  0.0456 -0.0752  0.1001
  823YOPS   D2A11352   2.889  11.803   6.808 -0.0791  0.0582 -0.2311
  823YOPS   C3A11353   2.609  11.899   7.255  0.3245  0.1730  0.1288
  823YOPS   C4A11354   2.372  11.546   7.546  0.2097 -0.1261 -0.1811
  823YOPS   C1B11355   3.259  11.243   6.486 -0.0721 -0.0899 -0.0883
  823YOPS   C2B11356   3.113  10.780   6.614  0.1560  0.0312 -0.3397
  823YOPS   D3B11357   3.142  10.312   6.786 -0.2573  0.0441 -0.3604
  823YOPS   C4B11358   3.291  10.130   7.205 -0.2392 -0.1575  0.2214
  824YOPS   CNO11359  14.719   6.045   5.769 -0.2517 -0.1741  0.1453
  824YOPS   PO411360  14.398   6.156   5.417  0.2117 -0.4545 -0.1662
  824YOPS   GL111361  14.249   6.010   5.780  0.1826  0.0495 -0.1386
  824YOPS   GL211362  14.310   5.737   5.935 -0.4132 -0.0085 -0.1249
  824YOPS   C1A11363  14.259   6.051   6.296 -0.0489  0.1122  0.0201
  824YOPS   D2A11364  14.232   5.826   6.719 -0.1135  0.1250  0.1216
  824YOPS   C3A11365  14.432   5.585   7.054 -0.0537  0.1034  0.0767
  824YOPS   C4A11366  14.795   5.637   7.391  0.3054 -0.1988  0.0825
  824YOPS   C1B11367  14.324   5.502   6.308 -0.2668  0.0091 -0.0422
  824YOPS   C2B11368  14.270   5.246   6.679  0.0499 -0.0277  0.0903
  824YOPS   D3B11369  13.900   5.282   6.936 -0.1454  0.3017  0.0519
  824YOPS   C4B11370  13.446   5.409   6.673 -0.0393 -0.3723 -0.0239
  825YOPS   CNO11371   8.333   7.235   5.709 -0.0451 -0.2269  0.1415
  825YOPS   PO411372   8.133   7.294   5.233 -0.3081  0.0568 -0.2991
  825YOPS   GL111373   7.964   7.580   5.617  0.0374 -0.0069 -0.1717
  825YOPS   GL211374   8.189   7.785   5.681 -0.1775  0.1218  0.0322
  825YOPS   C1A11375   8.087   7.425   6.048  0.0209  0.0454  0.0776
  825YOPS   D2A11376   8.092   7.274   6.410  0.0412  0.2474 -0.1232
  825YOPS   C3A11377   8.302   7.033   6.709 -0.2444  0.0210  0.5094
  825YOPS   C4A11378   8.470   6.754   6.646  0.3116  0.1261  0.0742
  825YOPS   C1B11379   8.185   7.893   6.081 -0.0418 -0.1060  0.4073
  825YOPS   C2B11380   8.187   7.777   6.550 -0.0919  0.0051  0.1080
  825YOPS   D3B11381   8.152   7.629   6.993 -0.3527 -0.0282 -0.0977
  825YOPS   C4B11382   8.213   7.657   7.398  0.0437  0.0103  0.1269
  826YOPS   CNO11383  17.885   2.942   5.335 -0.0880  0.1185 -0.2290
  826YOPS   PO411384  17.664   3.374   5.358 -0.0708 -0.0149  0.1555
  826YOPS   GL111385  17.711   3.328   5.773 -0.1519  0.0199  0.0587
  826YOPS   GL211386  17.816   3.045   5.929  0.3646 -0.0604  0.3295
  826YOPS   C1A11387  17.492   3.216   6.220 -0.0999 -0.1361 -0.1429
  826YOPS   D2A11388  17.228   3.168   6.614  0.2560  0.3373 -0.2090
  826YOPS   C3A11389  17.176   3.356   6.938 -0.3552  0.1423  0.1118
  826YOPS   C4A11390  16.790   3.387   7.132 -0.0477 -0.2565 -0.2848
  826YOPS   C1B11391  18.019   3.325   6.235  0.0378 -0.0629 -0.2474
  826YOPS   C2B11392  18.098   3.664   6.512  0.1507  0.1468  0.3031
  826YOPS   D3B11393  17.934   3.816   6.872 -0.3849 -0.0768  0.3088
  826YOPS   C4B11394  18.158   3.716   7.100 -0.0009 -0.0963 -0.2748
  827YOPS   CNO11395  17.254   4.099   4.811  0.3229  0.1382  0.1927
  827YOPS   PO411396  16.782   4.020   4.887 -0.0735 -0.1312  0.0129
  827YOPS   GL111397  16.784   4.135   5.333 -0.0968  0.0410 -0.1682
  827YOPS   GL211398  16.489   4.156   5.420 -0.2098 -0.4771  0.1207
  827YOPS   C1A11399  16.754   4.434   5.724  0.2213  0.0225  0.0124
  827YOPS   D2A11400  17.177   4.497   5.934 -0.3665  0.1181  0.1029
  827YOPS   C3A11401  17.349   4.506   6.421 -0.2623  0.0384  0.1223
  827YOPS   C4A11402  16.970   4.353   6.657 -0.1546 -0.0961 -0.0952
  827YOPS   C1B11403  16.537   3.967   5.821  0.2120 -0.0769 -0.0733
  827YOPS   C2B11404  16.868   4.173   6.140  0.1537 -0.0672 -0.1946
  827YOPS   D3B11405  17.186   3.943   6.383  0.3420  0.0257  0.1577
  827YOPS   C4B11406  17.086   3.612   6.512  0.1246 -0.3801 -0.0268
  828YOPS   CNO11407  12.216   9.781   4.937 -0.2749 -0.0674  0.0906
  828YOPS   PO411408  12.252  10.103   5.338 -0.0397 -0.1312  0.2691
  828YOPS   GL111409  12.375   9.820   5.661 -0.5392  0.0022 -0.0107
  828YOPS   GL211410  12.686   9.697   5.749 -0.1924  0.0455 -0.0037
  828YOPS   C1A11411  12.141   9.529   6.021 -0.0565 -0.4023  0.1599
  828YOPS   D2A11412  12.136   9.439   6.488  0.0164  0.0670  0.1175
  828YOPS   C3A11413  11.987   9.380   6.929  0.1572  0.1288 -0.1256
  828YOPS   C4A11414  11.601   9.305   7.044  0.2132  0.1393 -0.2324
  828YOPS   C1B11415  12.617   9.696   6.164 -0.1290  0.0693 -0.4467
  828YOPS   C2B11416  12.664   9.514   6.549  0.4582 -0.0588  0.1523
  828YOPS   D3B11417  12.453   9.503   6.916  0.0255 -0.0693  0.1215
  828YOPS   C4B11418  12.606   9.702   7.218 -0.0240  0.2876 -0.2132
  829YOPS   CNO11419   8.427  12.522   5.265 -0.0901  0.0271  0.0140
  829YOPS   PO411420   8.476  12.253   5.614  0.3118  0.2302 -0.0635
  829YOPS   GL111421   8.615  12.215   5.988  0.2372  0.0962  0.0210
  829YOPS   GL211422   8.766  11.905   6.049 -0.5240  0.2539  0.0234
  829YOPS   C1A11423   8.449  12.523   6.382 -0.2100 -0.1741  0.1508
  829YOPS   D2A11424   8.429  12.706   6.848  0.2956 -0.1146 -0.0208
  829YOPS   C3A11425   8.511  12.949   7.187  0.0968 -0.0488 -0.0603
  829YOPS   C4A11426   8.888  12.903   7.430 -0.1622  0.2238 -0.1976
  829YOPS   C1B11427   8.825  12.130   6.428  0.1390 -0.2684 -0.4633
  829YOPS   C2B11428   8.938  12.371   6.816  0.0521  0.2151  0.1029
  829YOPS   D3B11429   8.839  12.452   7.247  0.0062  0.0639 -0.1579
  829YOPS   C4B11430   8.370  12.534   7.448 -0.2053  0.0526  0.1467
  830YOPS   CNO11431   2.426  14.610   5.314 -0.1361 -0.1480  0.0813
  830YOPS   PO411432   2.261  14.843   5.554  0.1499 -0.3266 -0.1057
  830YOPS   GL111433   2.493  14.769   5.859 -0.0397  0.0906  0.2167
  830YOPS   GL211434   2.551  14.379   5.967  0.0622  0.3481 -0.0419
  830YOPS   C1A11435   2.801  14.901   6.159  0.0866  0.0795  0.1752
  830YOPS   D2A11436   2.778  14.759   6.558 -0.2848  0.0931  0.2704
  830YOPS   C3A11437   2.743  15.062   7.001 -0.1387  0.0241 -0.1986
  830YOPS   C4A11438   2.892  15.430   7.049 -0.1788  0.1804 -0.4428
  830YOPS   C1B11439   2.842  14.356   6.258  0.2549 -0.2449 -0.1567
  830YOPS   C2B11440   2.818  14.306   6.723 -0.3518  0.0205 -0.3776
  830YOPS   D3B11441   2.532  14.051   7.056 -0.0306 -0.0678 -0.0691
  830YOPS   C4B11442   2.612  14.095   7.502  0.1943  0.2499 -0.0087
  831YOPS   CNO11443   7.114  18.326   5.146  0.1058 -0.0121  0.1358
  831YOPS   PO411444   6.768  18.266   5.393 -0.2518 -0.2715 -0.0310
  831YOPS   GL111445   6.827  18.395   5.835  0.0039  0.0533  0.2367
  831YOPS   GL211446   6.498  18.517   5.917 -0.0361  0.0846 -0.0878
  831YOPS   C1A11447   6.728  18.374   6.297 -0.0287  0.0060 -0.0941
  831YOPS   D2A11448   6.806  18.480   6.733 -0.0676  0.0132 -0.2455
  831YOPS   C3A11449   6.599  18.406   7.155  0.4161  0.0186 -0.1416
  831YOPS   C4A11450   6.817  18.632   7.436  0.0811  0.1123 -0.0293
  831YOPS   C1B11451   6.506  18.773   6.181  0.0713 -0.1282  0.1627
  831YOPS   C2B11452   6.413  18.804   6.614  0.2209 -0.1985  0.4674
  831YOPS   D3B11453   6.541  18.856   7.051  0.0632  0.0145 -0.1389
  831YOPS   C4B11454   6.324  18.838   7.502  0.1237  0.0159 -0.0390
  832YOPS   CNO11455   2.055   0.142   5.461  0.1506  0.1222  0.2329
  832YOPS   PO411456   2.182  -0.123   5.721  0.0901  0.1102  0.0739
  832YOPS   GL111457   2.385   0.200   6.154  0.1640  0.1177  0.0997
  832YOPS   GL211458   2.304  -0.120   6.416  0.0767  0.1036 -0.0771
  832YOPS   C1A11459   2.443   0.578   6.456  0.0423  0.2346  0.0611
  832YOPS   D2A11460   2.636   0.704   6.863 -0.1334 -0.1579  0.2324
  832YOPS   C3A11461   2.741   0.786   7.264 -0.1462  0.1840 -0.1617
  832YOPS   C4A11462   2.584   0.675   7.636  0.1715  0.1468  0.0079
  832YOPS   C1B11463   2.140  -0.242   6.851  0.2670 -0.0859  0.1234
  832YOPS   C2B11464   1.926  -0.412   7.202 -0.1063  0.0307 -0.1607
  832YOPS   D3B11465   1.882  -0.659   7.516 -0.3009  0.2751 -0.1599
  832YOPS   C4B11466   2.158  -1.022   7.637 -0.1260 -0.3604  0.1466
  833YOPS   CNO11467   2.050  12.119   5.318 -0.1773  0.1767 -0.1654
  833YOPS   PO411468   2.409  11.954   5.480  0.0898 -0.3311 -0.2852
  833YOPS   GL111469   2.306  12.088   5.853 -0.4093 -0.1936  0.2386
  833YOPS   GL211470   2.239  11.885   6.128 -0.0504  0.1472 -0.2016
  833YOPS   C1A11471   2.104  12.442   6.116  0.1236  0.2162 -0.2194
  833YOPS   D2A11472   2.014  12.765   6.349 -0.1445 -0.2410 -0.0812
  833YOPS   C3A11473   1.649  12.812   6.524  0.3073 -0.2024 -0.2045
  833YOPS   C4A11474   1.285  12.890   6.438 -0.1588  0.0957 -0.0847
  833YOPS   C1B11475   1.922  11.783   6.433  0.1172  0.2923 -0.5784
  833YOPS   C2B11476   1.828  11.787   6.832 -0.3090 -0.1121 -0.1627
  833YOPS   D3B11477   1.795  11.665   7.328 -0.1857 -0.2352 -0.2376
  833YOPS   C4B11478   1.548  11.801   7.485  0.1983 -0.2323  0.2530
  834YOPS   CNO11479  13.455   2.676   5.371  0.2298  0.0334 -0.0951
  834YOPS   PO411480  13.076   2.523   5.257 -0.4614  0.2112  0.0104
  834YOPS   GL111481  12.992   2.646   5.685  0.4640  0.0324  0.1085
  834YOPS   GL211482  12.743   2.819   5.793 -0.0202  0.1840  0.1929
  834YOPS   C1A11483  12.894   2.562   6.192 -0.0232  0.1684  0.1217
  834YOPS   D2A11484  12.775   2.505   6.647 -0.2369 -0.0761  0.1126
  834YOPS   C3A11485  12.720   2.529   7.063  0.0937  0.0530 -0.2832
  834YOPS   C4A11486  12.819   2.252   7.525 -0.0807  0.0105  0.1450
  834YOPS   C1B11487  12.379   2.672   6.172 -0.4890  0.3780  0.0281
  834YOPS   C2B11488  12.315   2.547   6.653 -0.1341  0.1109 -0.1864
  834YOPS   D3B11489  12.432   2.172   6.901 -0.0166 -0.1779  0.0906
  834YOPS   C4B11490  12.342   2.109   7.282  0.0278  0.0198  0.0107
  835YOPS   CNO11491   2.897  13.766   5.441  0.1972 -0.0257  0.4087
  835YOPS   PO411492   2.671  13.413   5.451  0.0201  0.0101  0.0818
  835YOPS   GL111493   2.572  13.363   5.827 -0.3411 -0.3040 -0.1342
  835YOPS   GL211494   2.487  13.020   5.842  0.1114 -0.1928 -0.1161
  835YOPS   C1A11495   2.144  13.508   6.005  0.0257  0.0169  0.1062
  835YOPS   D2A11496   1.856  13.247   6.342 -0.2532 -0.2202  0.1551
  835YOPS   C3A11497   1.926  13.559   6.730  0.2827 -0.0095 -0.0221
  835YOPS   C4A11498   1.815  13.445   7.161 -0.3435 -0.0594 -0.0071
  835YOPS   C1B11499   2.532  13.105   6.265  0.0431 -0.1532 -0.1445
  835YOPS   C2B11500   2.330  13.137   6.644 -0.0329  0.0063 -0.1372
  835YOPS   D3B11501   2.031  12.934   6.837  0.3779  0.0147  0.1028
  835YOPS   C4B11502   1.714  12.785   7.154  0.0224  0.3211  0.1089
  836YOPS   CNO11503   1.323  13.842   5.592 -0.0570 -0.1890  0.2468
  836YOPS   PO411504   1.024  14.086   5.678  0.3157 -0.0351 -0.3434
  836YOPS   GL111505   1.081  14.180   6.075  0.0223  0.1093 -0.2044
  836YOPS   GL211506   0.763  14.226   6.354  0.0567  0.2529 -0.2632
  836YOPS   C1A11507   1.266  14.231   6.526  0.0058  0.0554  0.1806
  836YOPS   D2A11508   1.586  14.252   6.815 -0.1851 -0.3675  0.1807
  836YOPS   C3A11509   1.795  14.543   7.133  0.1787 -0.0179  0.4220
  836YOPS   C4A11510   1.757  14.755   7.413 -0.3530 -0.2243 -0.0556
  836YOPS   C1B11511   0.668  14.181   6.795  0.0524 -0.0423 -0.0679
  836YOPS   C2B11512   0.647  14.167   7.280 -0.3404 -0.1267 -0.0709
  836YOPS   D3B11513   0.563  14.516   7.549  0.1469  0.0439  0.0612
  836YOPS   C4B11514   0.291  14.764   7.285 -0.0546  0.0102 -0.0152
  837YOPS   CNO11515   2.295  16.705   5.680  0.2005 -0.0695 -0.0302
  837YOPS   PO411516   2.725  16.665   5.697 -0.1124  0.0315  0.1607
  837YOPS   GL111517   3.149  16.766   5.875 -0.0444 -0.0524 -0.0535
  837YOPS   GL211518   3.358  16.462   5.909 -0.1465  0.2246  0.0868
  837YOPS   C1A11519   3.256  16.914   6.274 -0.2734 -0.4350  0.2001
  837YOPS   D2A11520   3.251  16.840   6.732  0.0048 -0.2744  0.2081
  837YOPS   C3A11521   3.181  16.806   7.207 -0.1750  0.3720 -0.1596
  837YOPS   C4A11522   2.773  16.738   7.384  0.1478  0.1381  0.0010
  837YOPS   C1B11523   3.161  16.436   6.400 -0.1702  0.0668 -0.1718
  837YOPS   C2B11524   3.118  16.391   6.860  0.0194  0.2622 -0.1503
  837YOPS   D3B11525   3.429  16.403   7.148 -0.0615 -0.0193 -0.0090
  837YOPS   C4B11526   3.362  16.464   7.513 -0.1972  0.2318 -0.4064
  838YOPS   CNO11527   0.225  15.585   5.665  0.2059  0.2140  0.0321
  838YOPS   PO411528   0.557  15.560   6.018  0.0830 -0.2799  0.0609
  838YOPS   GL111529   0.695  15.191   6.195  0.3282 -0.2786 -0.0085
  838YOPS   GL211530   0.801  14.794   6.333  0.1012  0.0333 -0.0680
  838YOPS   C1A11531   0.450  14.978   6.603  0.0545  0.2001  0.2182
  838YOPS   D2A11532   0.364  14.644   6.750  0.1527 -0.0669  0.1644
  838YOPS   C3A11533   0.263  14.389   6.992 -0.1416 -0.0327 -0.0926
  838YOPS   C4A11534  -0.144  14.493   7.175  0.3262  0.0201  0.3862
  838YOPS   C1B11535   1.179  14.753   6.465  0.0493  0.0589 -0.0696
  838YOPS   C2B11536   1.545  14.535   6.273  0.1772  0.0383  0.0883
  838YOPS   D3B11537   1.677  14.172   6.003 -0.1366  0.0418 -0.3140
  838YOPS   C4B11538   2.078  14.046   6.017  0.2413  0.0558 -0.1183
  839YOPS   CNO11539   5.834   5.004   5.414  0.2153  0.1324 -0.0352
  839YOPS   PO411540   5.826   4.633   5.527  0.0430  0.3596 -0.3172
  839YOPS   GL111541   5.814   4.712   5.906  0.4066 -0.2013  0.1496
  839YOPS   GL211542   5.886   4.435   6.000  0.0381 -0.0630 -0.0311
  839YOPS   C1A11543   5.707   4.709   6.367  0.1831 -0.0308 -0.0635
  839YOPS   D2A11544   5.328   4.743   6.634  0.0362  0.1267  0.0025
  839YOPS   C3A11545   5.005   5.098   6.806  0.1425  0.0259 -0.1372
  839YOPS   C4A11546   4.883   5.348   6.497 -0.0123 -0.2324  0.2522
  839YOPS   C1B11547   6.140   4.454   6.509  0.2104 -0.0128 -0.0226
  839YOPS   C2B11548   6.216   4.453   6.878  0.0141  0.2103  0.0878
  839YOPS   D3B11549   6.097   4.313   7.191 -0.1686 -0.1065 -0.2431
  839YOPS   C4B11550   5.705   4.093   7.204  0.1273 -0.2067 -0.0040
  840YOPS   CNO11551   1.013   8.879   5.664 -0.3993 -0.2168 -0.0693
  840YOPS   PO411552   0.935   8.433   5.577 -0.5635  0.1179  0.1879
  840YOPS   GL111553   0.940   8.398   6.057  0.4716 -0.1887 -0.1443
  840YOPS   GL211554   1.237   8.498   6.028 -0.2296  0.0170  0.4227
  840YOPS   C1A11555   0.966   8.361   6.439 -0.2101  0.2436 -0.0863
  840YOPS   D2A11556   1.011   8.319   6.849 -0.1056  0.3334 -0.0350
  840YOPS   C3A11557   0.744   8.223   7.302 -0.1973 -0.0266  0.0998
  840YOPS   C4A11558   0.772   8.496   7.521 -0.0051 -0.3916  0.4215
  840YOPS   C1B11559   1.500   8.668   6.445  0.0157 -0.1511  0.0186
  840YOPS   C2B11560   1.354   8.716   6.795  0.0633  0.1748 -0.1959
  840YOPS   D3B11561   1.442   8.545   7.079 -0.3197  0.4204 -0.0413
  840YOPS   C4B11562   1.228   8.727   7.485  0.0119  0.1076  0.1312
  841YOPS   CNO11563   2.260   5.970   5.563 -0.1081  0.2473 -0.1351
  841YOPS   PO411564   1.830   5.772   5.567  0.0574 -0.2523  0.0186
  841YOPS   GL111565   2.055   5.775   5.975  0.2443 -0.2199 -0.0631
  841YOPS   GL211566   2.368   5.502   5.993 -0.0223  0.2340  0.0781
  841YOPS   C1A11567   2.065   5.630   6.418  0.0323  0.1159  0.0326
  841YOPS   D2A11568   1.783   5.297   6.571  0.1417 -0.0132 -0.1932
  841YOPS   C3A11569   1.415   5.070   6.525 -0.1633 -0.3963 -0.3225
  841YOPS   C4A11570   1.328   5.090   6.103  0.1668 -0.1586 -0.2065
  841YOPS   C1B11571   2.550   5.463   6.430  0.0105 -0.1838  0.2736
  841YOPS   C2B11572   2.513   5.568   6.879 -0.2457  0.1265  0.1166
  841YOPS   D3B11573   2.501   5.689   7.221  0.1305 -0.0420 -0.2511
  841YOPS   C4B11574   2.846   5.753   7.544 -0.1016 -0.0442 -0.0526
  842POPE   NH311575  15.809   4.107   5.255 -0.2472  0.3649  0.1677
  842POPE   PO411576  15.426   4.169   5.441  0.1353 -0.1134  0.1879
  842POPE   GL111577  15.134   4.023   5.785  0.1858 -0.2142 -0.2429
  842POPE   GL211578  15.128   3.606   5.819 -0.0116 -0.2044  0.1012
  842POPE   C1A11579  14.855   4.085   6.222 -0.2588 -0.2293 -0.0719
  842POPE   D2A11580  14.681   3.860   6.491 -0.0207  0.2879  0.1370
  842POPE   C3A11581  14.700   3.519   6.638  0.3097 -0.4470  0.0449
  842POPE   C4A11582  14.638   3.155   6.919  0.0460  0.0222  0.3522
  842POPE   C1B11583  15.122   3.592   6.275  0.1563 -0.0873  0.2758
  842POPE   C2B11584  15.192   3.641   6.723  0.0361  0.3700 -0.1830
  842POPE   C3B11585  15.232   3.490   7.131 -0.4174  0.0178  0.2150
  842POPE   C4B11586  15.354   3.753   7.538  0.1212  0.0340  0.6544
  843POPE   NH311587   1.028  18.875   5.833 -0.1920  0.1498 -0.2618
  843POPE   PO411588   1.278  18.656   5.985 -0.1508 -0.0732  0.0102
  843POPE   GL111589   1.150  18.761   6.377  0.0062 -0.0518  0.0170
  843POPE   GL211590   1.026  18.442   6.563  0.1371 -0.0045 -0.1732
  843POPE   C1A11591   1.103  18.856   6.833 -0.3181 -0.1291  0.2765
  843POPE   D2A11592   1.302  18.742   7.203  0.1424 -0.3975 -0.0752
  843POPE   C3A11593   1.098  18.844   7.589 -0.0740  0.1317 -0.0093
  843POPE   C4A11594   0.864  19.138   7.802 -0.1324  0.2078 -0.0633
  843POPE   C1B11595   0.963  18.407   7.066  0.0990  0.1018  0.2440
  843POPE   C2B11596   0.770  18.063   7.295  0.2550  0.1360 -0.0941
  843POPE   C3B11597   0.431  17.799   7.555 -0.1564 -0.0601  0.1416
  843POPE   C4B11598   0.319  17.409   7.650  0.0080 -0.2618 -0.2672
  844POPE   NH311599  14.966   4.288   5.302  0.0526 -0.1490  0.0369
  844POPE   PO411600  14.688   4.263   5.554 -0.0462 -0.2284 -0.1691
  844POPE   GL111601  14.477   4.130   5.857  0.0804  0.2488 -0.1100
  844POPE   GL211602  14.494   3.824   5.975 -0.6211 -0.1079 -0.1071
  844POPE   C1A11603  14.369   4.180   6.265 -0.4140 -0.0563  0.1391
  844POPE   D2A11604  14.286   4.186   6.616  0.3642  0.1435  0.1939
  844POPE   C3A11605  13.875   4.367   6.826 -0.1282 -0.0952 -0.3526
  844POPE   C4A11606  13.660   4.211   7.211 -0.0289 -0.1159  0.0677
  844POPE   C1B11607  14.219   3.713   6.298 -0.1604  0.2130  0.1754
  844POPE   C2B11608  14.218   3.638   6.754 -0.0316  0.1342  0.3146
  844POPE   C3B11609  14.300   3.454   7.157  0.0918  0.1034 -0.1434
  844POPE   C4B11610  14.315   3.066   7.432  0.0364 -0.0327  0.1324
  845POPE   NH311611   4.245   5.875   5.483 -0.1339 -0.1243  0.4966
  845POPE   PO411612   3.872   6.159   5.585 -0.2145  0.0452 -0.0004
  845POPE   GL111613   4.053   6.208   5.962 -0.2015  0.2769  0.2197
  845POPE   GL211614   4.101   5.952   6.019  0.0948  0.0965  0.1603
  845POPE   C1A11615   4.509   6.397   6.231 -0.1823 -0.0452 -0.0283
  845POPE   D2A11616   4.649   6.420   6.595  0.0260 -0.1175  0.0165
  845POPE   C3A11617   4.648   6.700   6.837  0.1209 -0.0419  0.0715
  845POPE   C4A11618   4.728   6.811   7.259  0.1859  0.0388 -0.1129
  845POPE   C1B11619   4.164   6.131   6.446  0.2202 -0.2654 -0.1369
  845POPE   C2B11620   4.012   6.086   6.929  0.0616 -0.1704 -0.0696
  845POPE   C3B11621   4.138   5.901   7.273 -0.5059  0.1036  0.0100
  845POPE   C4B11622   4.542   5.900   7.447  0.1932 -0.4549  0.0909
  846POPE   NH311623  13.964   0.774   5.429 -0.0668  0.1473 -0.1941
  846POPE   PO411624  13.980   0.341   5.340  0.3006 -0.0047 -0.1002
  846POPE   GL111625  13.847   0.485   5.818  0.0226 -0.0553  0.1177
  846POPE   GL211626  13.851   0.197   5.857  0.0342  0.0826  0.1838
  846POPE   C1A11627  13.947   0.462   6.294  0.3119 -0.0286 -0.0827
  846POPE   D2A11628  14.296   0.695   6.593  0.3644  0.0891  0.0387
  846POPE   C3A11629  14.772   0.480   6.719 -0.0899 -0.2885 -0.2795
  846POPE   C4A11630  15.166   0.384   6.750  0.1665 -0.2284 -0.1538
  846POPE   C1B11631  13.942  -0.037   6.187  0.2442 -0.0482  0.5027
  846POPE   C2B11632  13.959  -0.321   6.497 -0.3691  0.2313 -0.1770
  846POPE   C3B11633  14.143  -0.559   6.833  0.4038  0.0878 -0.0393
  846POPE   C4B11634  14.249  -0.974   6.944  0.1487  0.4287 -0.0710
  847POPE   NH311635   7.541  16.863   5.965  0.1947  0.2101  0.2290
  847POPE   PO411636   7.652  17.235   5.976  0.0677  0.3307  0.1946
  847POPE   GL111637   7.734  17.565   6.256 -0.1883 -0.1480 -0.0954
  847POPE   GL211638   7.984  17.578   6.530  0.1927 -0.2727 -0.4302
  847POPE   C1A11639   7.497  17.461   6.565  0.3841 -0.0870  0.4343
  847POPE   D2A11640   7.348  17.116   6.903  0.3219 -0.0662 -0.3081
  847POPE   C3A11641   7.304  17.166   7.321 -0.0611  0.2421  0.1333
  847POPE   C4A11642   7.404  17.403   7.674 -0.0734  0.3051  0.1394
  847POPE   C1B11643   8.062  17.651   6.937  0.1006  0.1876  0.1229
  847POPE   C2B11644   8.194  17.791   7.343 -0.0072 -0.1602  0.2590
  847POPE   C3B11645   8.187  17.754   7.733 -0.1110  0.2330  0.2256
  847POPE   C4B11646   8.441  17.670   8.021  0.0815  0.0405  0.3232
  848POPE   NH311647   8.913  10.425   5.657  0.1955 -0.2917 -0.2514
  848POPE   PO411648   9.270  10.583   5.908 -0.0593 -0.1664 -0.2140
  848POPE   GL111649   9.609  10.355   6.038 -0.2738  0.2027  0.4028
  848POPE   GL211650   9.676  10.147   6.250 -0.0312 -0.0042  0.1615
  848POPE   C1A11651  10.063  10.394   6.389 -0.2533 -0.2641  0.1845
  848POPE   D2A11652  10.329  10.508   6.787 -0.1247 -0.0811  0.0873
  848POPE   C3A11653  10.448  10.265   7.258 -0.0100  0.3323 -0.4269
  848POPE   C4A11654  10.347  10.108   7.643 -0.2155  0.0008  0.1148
  848POPE   C1B11655   9.599   9.816   6.522 -0.2803 -0.0743 -0.0534
  848POPE   C2B11656   9.643   9.492   6.810 -0.0466  0.0205  0.1164
  848POPE   C3B11657   9.696   9.138   6.949 -0.1165  0.1206 -0.0963
  848POPE   C4B11658   9.823   8.714   7.162  0.0389  0.0683 -0.0621
  849POPE   NH311659   5.597  11.802   5.918 -0.1354 -0.2220 -0.0397
  849POPE   PO411660   5.715  11.264   5.912 -0.0706 -0.1996  0.0935
  849POPE   GL111661   5.871  11.433   6.208  0.2309  0.0257 -0.1975
  849POPE   GL211662   6.163  11.733   6.306 -0.0683 -0.1638  0.0868
  849POPE   C1A11663   5.946  11.303   6.578 -0.0084  0.0807  0.1593
  849POPE   D2A11664   6.181  11.268   6.881  0.4075  0.3743  0.1317
  849POPE   C3A11665   6.164  11.290   7.337 -0.0197 -0.1286 -0.2068
  849POPE   C4A11666   6.264  11.377   7.810 -0.0276 -0.1799  0.0044
  849POPE   C1B11667   5.998  11.739   6.788  0.3132  0.1930  0.1006
  849POPE   C2B11668   5.919  11.754   7.278 -0.0566  0.0711 -0.2789
  849POPE   C3B11669   6.225  11.903   7.652 -0.3032 -0.1559  0.4811
  849POPE   C4B11670   6.323  12.009   8.083 -0.1881  0.2197  0.1101
  850POPE   NH311671  13.876   7.511   5.214 -0.2855 -0.2345 -0.0507
  850POPE   PO411672  13.947   7.818   5.449  0.3421  0.0185  0.1252
  850POPE   GL111673  13.935   7.924   5.895 -0.0678  0.1657 -0.0747
  850POPE   GL211674  14.288   7.858   5.873  0.2220 -0.2187 -0.1240
  850POPE   C1A11675  14.023   8.031   6.444 -0.0486  0.0128 -0.1501
  850POPE   D2A11676  13.969   8.334   6.799  0.1052  0.0408  0.0178
  850POPE   C3A11677  13.816   8.330   7.230 -0.1054  0.1662  0.1474
  850POPE   C4A11678  13.607   8.719   7.384 -0.2815  0.2155  0.1586
  850POPE   C1B11679  14.264   7.586   6.253  0.3594 -0.2125  0.3155
  850POPE   C2B11680  14.109   7.682   6.769 -0.1011 -0.3959  0.0031
  850POPE   C3B11681  13.880   7.805   7.157 -0.0654  0.5408  0.1314
  850POPE   C4B11682  13.832   7.949   7.495  0.3981 -0.0728 -0.1260
  851POPE   NH311683  11.995  16.254   5.686 -0.1917 -0.1095 -0.1416
  851POPE   PO411684  12.326  15.885   5.764 -0.1501  0.2133  0.2065
  851POPE   GL111685  12.366  15.942   6.240  0.3164  0.0309 -0.2313
  851POPE   GL211686  12.525  16.287   6.180  0.0737 -0.2252 -0.4012
  851POPE   C1A11687  12.506  15.958   6.599  0.1831 -0.1035  0.0507
  851POPE   D2A11688  12.508  16.304   6.668  0.1645  0.0120  0.1105
  851POPE   C3A11689  12.242  16.279   7.056  0.1516  0.0936 -0.3946
  851POPE   C4A11690  11.854  16.213   7.324  0.1247  0.2918  0.2755
  851POPE   C1B11691  12.136  16.417   6.343  0.2162 -0.3386 -0.2724
  851POPE   C2B11692  11.977  16.465   6.734 -0.0279 -0.2835  0.0458
  851POPE   C3B11693  11.564  16.543   6.915  0.0305 -0.1200  0.0557
  851POPE   C4B11694  11.556  16.660   7.362 -0.3845 -0.1238  0.1253
  852POPE   NH311695   0.626   4.075   5.679 -0.2550 -0.1129  0.0747
  852POPE   PO411696   0.759   4.548   5.616  0.0539  0.1962  0.0306
  852POPE   GL111697   0.512   4.600   5.965 -0.4353  0.3628  0.0727
  852POPE   GL211698   0.654   4.833   6.237  0.1326  0.0881  0.1873
  852POPE   C1A11699   0.259   4.412   6.318 -0.0815  0.5243 -0.0821
  852POPE   D2A11700   0.147   4.490   6.757 -0.0167 -0.1581 -0.1518
  852POPE   C3A11701  -0.179   4.267   7.019 -0.3218  0.1083 -0.1187
  852POPE   C4A11702  -0.576   4.195   7.231  0.2907 -0.2896  0.1099
  852POPE   C1B11703   0.363   4.928   6.616  0.0373 -0.0621 -0.0521
  852POPE   C2B11704   0.581   5.156   6.949  0.1510  0.2739  0.2435
  852POPE   C3B11705   0.983   5.307   7.018  0.0079  0.2006 -0.1708
  852POPE   C4B11706   1.267   5.821   7.147  0.3887  0.1541 -0.3674
  853POPE   NH311707  11.511   1.208   5.246  0.0079  0.1353  0.0728
  853POPE   PO411708  11.866   1.586   5.267  0.0396  0.0576 -0.0007
  853POPE   GL111709  11.933   1.835   5.655 -0.1295  0.2765 -0.1876
  853POPE   GL211710  11.996   2.163   5.689 -0.0144  0.1342 -0.1371
  853POPE   C1A11711  11.943   1.962   6.130 -0.2927  0.1963 -0.1848
  853POPE   D2A11712  12.163   2.086   6.423  0.0208  0.5566 -0.1318
  853POPE   C3A11713  12.506   2.224   6.225  0.1613  0.0549 -0.2573
  853POPE   C4A11714  12.886   2.062   6.228  0.0157  0.1746 -0.1566
  853POPE   C1B11715  11.946   2.383   5.936 -0.0888 -0.2916  0.0585
  853POPE   C2B11716  11.914   2.600   6.304  0.1836 -0.0227 -0.0077
  853POPE   C3B11717  12.052   2.966   6.648  0.1075 -0.2919  0.0341
  853POPE   C4B11718  12.453   3.004   6.950  0.5038 -0.0994 -0.4509
  854POPE   NH311719  16.271   9.794   5.417 -0.0854  0.4505 -0.0397
  854POPE   PO411720  15.902   9.936   5.666  0.4041 -0.4679  0.0719
  854POPE   GL111721  15.830   9.820   6.084 -0.1087 -0.2105 -0.1859
  854POPE   GL211722  15.865  10.079   6.144 -0.0222  0.2592  0.0280
  854POPE   C1A11723  15.777   9.682   6.430  0.3171  0.0164  0.2475
  854POPE   D2A11724  16.056   9.515   6.752  0.1124  0.0763  0.3545
  854POPE   C3A11725  16.078   9.237   7.120 -0.2436 -0.1479 -0.1433
  854POPE   C4A11726  16.037   9.151   7.521 -0.3449 -0.1783 -0.3854
  854POPE   C1B11727  15.914  10.550   6.050 -0.0038  0.1776 -0.0231
  854POPE   C2B11728  16.085  10.927   6.139  0.1431 -0.2740 -0.0611
  854POPE   C3B11729  16.467  11.020   6.352  0.2662 -0.2600  0.0212
  854POPE   C4B11730  16.466  11.053   6.761  0.0282 -0.0012  0.1767
  855POPE   NH311731   1.773  12.909   5.621  0.1707  0.2352  0.3317
  855POPE   PO411732   1.610  12.544   5.487 -0.0952  0.4942 -0.0901
  855POPE   GL111733   1.391  12.675   5.905 -0.1027  0.2231 -0.0116
  855POPE   GL211734   1.619  12.652   6.026  0.1465  0.3061 -0.0810
  855POPE   C1A11735   1.197  12.456   6.098  0.0420  0.1405 -0.0613
  855POPE   D2A11736   1.164  12.392   6.493 -0.3659  0.1637 -0.1377
  855POPE   C3A11737   1.403  12.504   6.864  0.2084  0.0092 -0.0376
  855POPE   C4A11738   1.262  12.557   7.283  0.1124 -0.0493 -0.1535
  855POPE   C1B11739   1.673  12.330   6.319  0.2851 -0.3747 -0.0442
  855POPE   C2B11740   1.795  12.310   6.688 -0.0414 -0.0640  0.1231
  855POPE   C3B11741   2.062  12.416   7.056 -0.1431  0.0909  0.2856
  855POPE   C4B11742   2.048  12.571   7.453 -0.0043 -0.3239 -0.4218
  856POPE   NH311743  17.795  17.911   5.898  0.1206 -0.0321  0.1136
  856POPE   PO411744  18.146  17.638   5.888 -0.0811 -0.1138  0.1226
  856POPE   GL111745  18.032  17.780   6.262 -0.0362  0.0823 -0.3753
  856POPE   GL211746  18.181  18.085   6.181  0.1592  0.1524  0.2210
  856POPE   C1A11747  17.800  17.696   6.589 -0.3176 -0.0985 -0.1310
  856POPE   D2A11748  17.716  17.423   7.017  0.3554 -0.0163  0.0935
  856POPE   C3A11749  17.918  17.629   7.382  0.0187  0.1053  0.0257
  856POPE   C4A11750  17.948  17.542   7.820  0.0514 -0.0328  0.1499
  856POPE   C1B11751  18.001  18.181   6.618 -0.2032 -0.2142  0.1456
  856POPE   C2B11752  17.935  18.505   7.016 -0.1609 -0.0983 -0.0154
  856POPE   C3B11753  18.154  18.410   7.330  0.1407 -0.1089  0.0836
  856POPE   C4B11754  18.114  18.456   7.785  0.1154  0.2586 -0.2408
  857POPE   NH311755  16.205   9.009   5.554  0.2075  0.0384  0.1418
  857POPE   PO411756  15.998   8.613   5.513  0.2089  0.1187  0.1989
  857POPE   GL111757  15.968   8.562   5.973 -0.3576 -0.4227  0.1675
  857POPE   GL211758  16.240   8.537   6.141  0.2686 -0.0447 -0.2570
  857POPE   C1A11759  15.735   8.616   6.403  0.0411  0.0523 -0.3268
  857POPE   D2A11760  15.596   8.643   6.780 -0.2851  0.1063  0.0262
  857POPE   C3A11761  15.732   8.768   7.160  0.1220 -0.0272 -0.2792
  857POPE   C4A11762  15.882   8.634   7.556  0.1161  0.0805  0.0361
  857POPE   C1B11763  16.133   8.396   6.581 -0.0470 -0.3052 -0.0820
  857POPE   C2B11764  15.809   8.248   6.924 -0.0688  0.3879 -0.0683
  857POPE   C3B11765  15.440   7.952   7.024 -0.1107 -0.1229  0.0421
  857POPE   C4B11766  15.427   7.759   7.490 -0.3144 -0.0917  0.0863
  858POPE   NH311767   2.631  18.659   6.004  0.1709  0.0676  0.0159
  858POPE   PO411768   3.144  18.641   6.002  0.2400  0.1097 -0.0396
  858POPE   GL111769   3.051  18.470   6.378  0.1014 -0.0139  0.1289
  858POPE   GL211770   2.793  18.413   6.464  0.1196  0.0461 -0.0070
  858POPE   C1A11771   3.134  18.346   6.752  0.1552 -0.0901  0.0810
  858POPE   D2A11772   3.176  18.101   7.112  0.1418  0.1640  0.3168
  858POPE   C3A11773   3.081  18.206   7.509 -0.3449 -0.0371 -0.0842
  858POPE   C4A11774   2.840  18.067   7.797  0.1023  0.0816 -0.1267
  858POPE   C1B11775   2.629  18.491   6.750 -0.0838  0.3484 -0.0728
  858POPE   C2B11776   2.481  18.603   7.179  0.0546  0.3003 -0.1926
  858POPE   C3B11777   2.153  18.734   7.600  0.2730  0.3209  0.0117
  858POPE   C4B11778   1.808  18.930   7.534 -0.0176  0.4231 -0.1592
  859POPE   NH311779  10.537  16.633   5.781  0.0266  0.2440  0.3317
  859POPE   PO411780  10.717  16.292   6.022  0.2445  0.4032 -0.1877
  859POPE   GL111781  10.769  16.278   6.405 -0.2844  0.0490 -0.2106
  859POPE   GL211782  10.612  16.627   6.546  0.3036  0.2042 -0.3415
  859POPE   C1A11783  10.604  16.152   6.980  0.0566 -0.0490 -0.0373
  859POPE   D2A11784  10.294  15.975   7.301 -0.0432  0.0233  0.0114
  859POPE   C3A11785  10.395  15.887   7.676 -0.0780  0.1354 -0.1061
  859POPE   C4A11786  10.515  15.903   8.078  0.1747 -0.0790 -0.0389
  859POPE   C1B11787  10.304  16.234   6.632 -0.1755  0.0770  0.0394
  859POPE   C2B11788  10.129  15.987   6.779 -0.1889  0.2354  0.0117
  859POPE   C3B11789   9.820  15.810   7.162 -0.2095  0.2237  0.0832
  859POPE   C4B11790   9.625  15.562   7.331  0.1066  0.0830 -0.0727
  860POPE   NH311791  14.732  15.299   5.487 -0.2384 -0.3215  0.3722
  860POPE   PO411792  14.973  15.133   5.689  0.1176  0.1303  0.0311
  860POPE   GL111793  14.874  14.822   5.998 -0.3405 -0.0638  0.0059
  860POPE   GL211794  15.169  14.607   5.894 -0.2178 -0.3323 -0.3322
  860POPE   C1A11795  14.710  14.776   6.402 -0.2533 -0.0369  0.1702
  860POPE   D2A11796  14.910  14.735   6.831 -0.1130 -0.4959 -0.0362
  860POPE   C3A11797  14.682  14.616   7.151 -0.2122  0.0316  0.1570
  860POPE   C4A11798  14.617  14.694   7.592 -0.1927  0.3286  0.1168
  860POPE   C1B11799  15.166  14.583   6.331 -0.0952 -0.0133  0.2017
  860POPE   C2B11800  15.441  14.692   6.712 -0.0505  0.2232 -0.3041
  860POPE   C3B11801  15.305  14.549   7.126  0.1499 -0.0963 -0.1546
  860POPE   C4B11802  15.098  14.791   7.325  0.1592 -0.0213  0.1098
  861POPE   NH311803   1.176   4.086   5.651  0.1237  0.1355  0.0103
  861POPE   PO411804   1.498   4.469   5.375 -0.0521 -0.3077  0.0496
  861POPE   GL111805   1.574   4.342   5.874 -0.1352 -0.1527  0.1559
  861POPE   GL211806   1.240   4.538   5.836  0.0630  0.0474 -0.2258
  861POPE   C1A11807   1.630   4.516   6.312 -0.0927 -0.0001 -0.1422
  861POPE   D2A11808   1.895   4.590   6.650 -0.3149  0.1527  0.0141
  861POPE   C3A11809   1.647   4.740   6.943 -0.1653  0.0687  0.0556
  861POPE   C4A11810   1.418   5.017   7.247 -0.1452  0.0307  0.1075
  861POPE   C1B11811   1.154   4.584   6.208 -0.1355 -0.0805 -0.0435
  861POPE   C2B11812   1.257   4.461   6.659 -0.1064  0.0108  0.0401
  861POPE   C3B11813   1.476   4.312   7.075 -0.3037  0.2693 -0.2450
  861POPE   C4B11814   1.555   4.442   7.499 -0.0902  0.1384  0.2032
  862POPE   NH311815  18.791  17.035   6.122 -0.0127 -0.2021  0.1944
  862POPE   PO411816  19.057  17.145   5.809 -0.1027 -0.1213  0.0853
  862POPE   GL111817  19.265  17.511   6.082  0.0306  0.1164 -0.2597
  862POPE   GL211818  19.108  17.393   6.281 -0.5102 -0.2016 -0.4215
  862POPE   C1A11819  19.428  17.679   6.516  0.2614 -0.0282  0.1081
  862POPE   D2A11820  19.328  17.654   6.946 -0.0704  0.1198  0.0016
  862POPE   C3A11821  19.218  17.273   7.072 -0.0290 -0.0739 -0.3300
  862POPE   C4A11822  19.404  16.992   7.477  0.0033 -0.3786  0.0266
  862POPE   C1B11823  19.281  17.197   6.597 -0.1307 -0.1907  0.1865
  862POPE   C2B11824  19.614  16.989   6.601  0.0608  0.4156 -0.1293
  862POPE   C3B11825  19.708  16.785   7.008  0.3993 -0.1755 -0.0740
  862POPE   C4B11826  19.964  16.441   6.946  0.1090 -0.1536  0.0017
  863POPE   NH311827  16.246   8.366   5.171 -0.0969  0.3182  0.4592
  863POPE   PO411828  16.488   8.685   5.293 -0.5481  0.3269 -0.2041
  863POPE   GL111829  16.508   8.692   5.724 -0.2091  0.0378 -0.2430
  863POPE   GL211830  16.611   8.976   5.877 -0.0236  0.1267 -0.0400
  863POPE   C1A11831  17.006   8.666   5.929  0.1115 -0.1332  0.3258
  863POPE   D2A11832  17.344   8.849   6.147 -0.3307  0.0633  0.0949
  863POPE   C3A11833  17.277   8.844   6.571  0.0597 -0.2407  0.0708
  863POPE   C4A11834  17.279   8.516   6.918  0.3338  0.1910 -0.1749
  863POPE   C1B11835  16.827   9.008   6.276 -0.3508 -0.0932 -0.0878
  863POPE   C2B11836  16.751   8.876   6.769 -0.3237  0.1560 -0.0208
  863POPE   C3B11837  16.994   8.993   7.061 -0.3643  0.0234  0.4997
  863POPE   C4B11838  17.391   9.008   7.201  0.1784 -0.2675  0.0491
  864POPE   NH311839  15.935   1.051   5.270 -0.1680 -0.3730 -0.0678
  864POPE   PO411840  15.472   1.009   5.076 -0.1776 -0.1514 -0.1459
  864POPE   GL111841  15.466   1.212   5.481  0.3924  0.2322  0.2376
  864POPE   GL211842  15.342   1.492   5.471  0.0179 -0.0265  0.0566
  864POPE   C1A11843  15.648   1.455   5.895  0.0691 -0.0541 -0.1028
  864POPE   D2A11844  15.351   1.460   6.296 -0.0020 -0.4302 -0.1657
  864POPE   C3A11845  15.379   1.702   6.767  0.2724 -0.0466  0.3514
  864POPE   C4A11846  15.559   1.808   7.126 -0.1731  0.1078  0.0141
  864POPE   C1B11847  15.148   1.292   5.870  0.2505 -0.0975  0.1386
  864POPE   C2B11848  15.083   1.026   6.187  0.1727 -0.3667 -0.1994
  864POPE   C3B11849  15.198   0.669   6.311  0.1253 -0.1613  0.2077
  864POPE   C4B11850  15.446   0.443   6.256 -0.4205  0.3263  0.2036
  865POPE   NH311851   7.781   9.935   5.476 -0.3994 -0.1500  0.2198
  865POPE   PO411852   7.418   9.758   5.784 -0.2903 -0.4402 -0.1661
  865POPE   GL111853   7.655   9.573   6.078 -0.1827  0.0503 -0.0684
  865POPE   GL211854   7.963   9.444   5.894 -0.0037 -0.0618  0.1461
  865POPE   C1A11855   7.606   9.226   6.438 -0.2933 -0.1659  0.1100
  865POPE   D2A11856   7.851   9.031   6.755 -0.2513  0.0002  0.1431
  865POPE   C3A11857   7.869   9.263   7.140  0.2746 -0.2315 -0.2968
  865POPE   C4A11858   8.071   9.206   7.472  0.1326 -0.0898 -0.1420
  865POPE   C1B11859   8.125   9.363   6.389 -0.2496 -0.1659  0.0624
  865POPE   C2B11860   8.270   9.343   6.807 -0.0312 -0.0235  0.1626
  865POPE   C3B11861   8.278   9.572   7.182 -0.4699 -0.1427  0.0473
  865POPE   C4B11862   8.302   9.992   7.277 -0.0516  0.4055  0.1557
  866POPE   NH311863   1.313  13.069   5.509 -0.3849 -0.0314 -0.0809
  866POPE   PO411864   1.235  13.300   5.593  0.1064 -0.0155  0.1086
  866POPE   GL111865   0.956  13.548   5.921  0.2557 -0.0828  0.1607
  866POPE   GL211866   0.576  13.405   5.896  0.6447 -0.0487  0.0434
  866POPE   C1A11867   1.016  13.698   6.282 -0.1111 -0.1441 -0.0879
  866POPE   D2A11868   0.956  13.675   6.689  0.2148 -0.0322  0.2209
  866POPE   C3A11869   1.069  13.865   7.083 -0.0033 -0.0998 -0.5274
  866POPE   C4A11870   0.980  13.816   7.569 -0.0956 -0.0517 -0.1041
  866POPE   C1B11871   0.418  13.155   6.206  0.0593 -0.1479  0.1265
  866POPE   C2B11872   0.063  13.375   6.450  0.0632 -0.0370 -0.1245
  866POPE   C3B11873   0.137  13.301   6.867 -0.2427  0.1433  0.2011
  866POPE   C4B11874  -0.012  13.413   7.275 -0.0785  0.4459  0.3023
  867POPE   NH311875  17.600   9.729   5.428  0.3587  0.0179 -0.1521
  867POPE   PO411876  17.232   9.371   5.425  0.2059  0.1039 -0.1491
  867POPE   GL111877  17.164   9.399   5.840 -0.2994  0.0875 -0.0401
  867POPE   GL211878  17.448   9.694   5.958  0.0486 -0.2118 -0.0003
  867POPE   C1A11879  17.247   9.319   6.243  0.2410 -0.0075 -0.1808
  867POPE   D2A11880  17.473   9.267   6.779 -0.0074 -0.1280 -0.1513
  867POPE   C3A11881  17.795   8.914   6.868  0.2708 -0.0056 -0.0141
  867POPE   C4A11882  18.245   8.841   7.006  0.2553  0.0756  0.0925
  867POPE   C1B11883  17.714   9.560   6.242  0.1728  0.0878  0.1225
  867POPE   C2B11884  17.895   9.341   6.450 -0.3796  0.4120  0.1793
  867POPE   C3B11885  17.785   8.936   6.383 -0.0078 -0.1500 -0.2040
  867POPE   C4B11886  17.701   8.586   6.451  0.0017 -0.0361  0.0806
  868POPE   NH311887   4.935  12.351   5.696  0.1451 -0.0532 -0.0639
  868POPE   PO411888   5.256  12.631   5.677  0.4302  0.0665 -0.0491
  868POPE   GL111889   5.152  12.852   6.025 -0.1067  0.1171  0.0500
  868POPE   GL211890   5.139  13.185   6.062  0.0857  0.0137 -0.0487
  868POPE   C1A11891   5.185  12.963   6.509  0.1238 -0.1498  0.4531
  868POPE   D2A11892   4.944  13.075   6.755 -0.1915  0.0402 -0.0393
  868POPE   C3A11893   4.813  12.955   7.210 -0.0699 -0.0742  0.2418
  868POPE   C4A11894   4.465  12.931   7.409 -0.4214  0.5556  0.2409
  868POPE   C1B11895   4.927  13.468   6.272  0.0214 -0.4038  0.2209
  868POPE   C2B11896   4.741  13.582   6.674  0.0187 -0.0037 -0.1715
  868POPE   C3B11897   4.950  13.473   7.064  0.2601  0.0127  0.0710
  868POPE   C4B11898   5.325  13.273   7.154  0.3835 -0.1282  0.1578
  869POPE   NH311899   6.185  10.938   5.675 -0.1108  0.1294 -0.1305
  869POPE   PO411900   6.390  11.286   5.849 -0.2172 -0.0287  0.2127
  869POPE   GL111901   6.185  11.047   6.187  0.1923 -0.0606 -0.0951
  869POPE   GL211902   6.404  11.215   6.348 -0.2454 -0.3304 -0.0682
  869POPE   C1A11903   6.305  10.820   6.616 -0.2306  0.3220  0.2299
  869POPE   D2A11904   6.434  10.868   7.020 -0.3098 -0.0303  0.0158
  869POPE   C3A11905   6.090  10.805   7.390  0.0125  0.0479 -0.2149
  869POPE   C4A11906   5.883  10.953   7.708 -0.0588 -0.0311  0.1615
  869POPE   C1B11907   6.536  11.547   6.690 -0.2514 -0.0400 -0.0450
  869POPE   C2B11908   6.920  11.934   6.691  0.2062 -0.2777 -0.1801
  869POPE   C3B11909   6.865  12.356   6.458 -0.1694 -0.0683 -0.1415
  869POPE   C4B11910   7.087  12.766   6.398  0.3271 -0.0311  0.1328
  870POPE   NH311911  11.072   1.596   5.296  0.0212  0.1729 -0.2355
  870POPE   PO411912  10.825   1.845   5.380 -0.3215  0.2493 -0.1455
  870POPE   GL111913  10.558   2.095   5.670 -0.2432  0.3687 -0.1748
  870POPE   GL211914  10.259   2.004   5.614  0.1293 -0.0827 -0.0251
  870POPE   C1A11915  10.352   2.149   6.060  0.2125 -0.1431 -0.0407
  870POPE   D2A11916  10.424   2.359   6.338  0.1005 -0.1177  0.0115
  870POPE   C3A11917  10.263   2.154   6.738 -0.2260  0.0250 -0.1946
  870POPE   C4A11918  10.403   2.051   7.232 -0.2783  0.0794  0.0640
  870POPE   C1B11919   9.919   1.936   5.901 -0.0150  0.1346  0.0171
  870POPE   C2B11920   9.772   2.065   6.315 -0.2091 -0.2792  0.4376
  870POPE   C3B11921   9.585   1.909   6.711  0.2506 -0.0165  0.0696
  870POPE   C4B11922   9.775   2.101   6.991  0.0516 -0.2479  0.1468
  871POPE   NH311923  18.757  11.125   5.449 -0.0897  0.0655  0.1844
  871POPE   PO411924  19.097  11.332   5.636  0.1672 -0.1606  0.2783
  871POPE   GL111925  18.945  11.150   5.914  0.0595  0.0758 -0.1752
  871POPE   GL211926  18.673  10.988   5.939 -0.0762  0.3347  0.0073
  871POPE   C1A11927  19.001  11.156   6.318  0.0158 -0.0315 -0.0022
  871POPE   D2A11928  18.828  11.317   6.739  0.2075  0.0036 -0.2458
  871POPE   C3A11929  18.796  11.744   7.079 -0.1471 -0.1689  0.1718
  871POPE   C4A11930  19.171  11.896   7.233 -0.1508  0.0180 -0.0460
  871POPE   C1B11931  18.736  10.672   6.189 -0.4036  0.1446 -0.0508
  871POPE   C2B11932  18.776  10.703   6.627  0.0341  0.2427 -0.1325
  871POPE   C3B11933  19.093  10.927   6.862 -0.1067  0.0034 -0.2824
  871POPE   C4B11934  19.335  10.909   7.141  0.1627 -0.2015 -0.2301
  872YOPE   NH311935   4.001   7.057   5.324 -0.1372 -0.0693 -0.1183
  872YOPE   PO411936   4.110   6.614   5.424 -0.0966  0.0175  0.1013
  872YOPE   GL111937   4.259   6.714   5.842  0.0530  0.0032 -0.0057
  872YOPE   GL211938   4.627   6.736   5.881  0.0373 -0.2381 -0.2781
  872YOPE   C1A11939   4.064   7.040   6.015  0.1250  0.2079  0.0054
  872YOPE   D2A11940   4.160   7.371   6.317  0.2089 -0.1548 -0.0039
  872YOPE   C3A11941   3.947   7.422   6.557 -0.0463  0.4340  0.4256
  872YOPE   C4A11942   3.840   7.231   6.904 -0.1690 -0.0871  0.1599
  872YOPE   C1B11943   4.484   6.901   6.278 -0.0605  0.1497 -0.1387
  872YOPE   C2B11944   4.468   7.178   6.635  0.0232  0.1039 -0.3983
  872YOPE   D3B11945   4.263   7.443   6.998  0.2202  0.2020 -0.1242
  872YOPE   C4B11946   4.031   7.604   7.238  0.1285 -0.1698 -0.1432
  873YOPE   NH311947  14.518  14.779   5.644  0.3263  0.1200  0.3540
  873YOPE   PO411948  14.297  15.106   5.469 -0.0378  0.2244 -0.1557
  873YOPE   GL111949  14.488  15.221   5.911  0.1105 -0.4711 -0.1252
  873YOPE   GL211950  14.379  14.927   6.090  0.0379 -0.3423  0.2984
  873YOPE   C1A11951  14.680  15.255   6.275 -0.0036  0.2345  0.2180
  873YOPE   D2A11952  14.836  15.527   6.590 -0.0726 -0.0668 -0.0905
  873YOPE   C3A11953  14.979  15.675   6.983  0.0766  0.0557  0.0938
  873YOPE   C4A11954  14.961  15.794   7.464  0.0564  0.5123  0.2025
  873YOPE   C1B11955  14.010  14.880   6.354 -0.2835 -0.5280 -0.0975
  873YOPE   C2B11956  13.665  14.807   6.403  0.2032 -0.1286  0.1185
  873YOPE   D3B11957  13.249  14.932   6.413  0.3405 -0.2522 -0.1651
  873YOPE   C4B11958  13.027  15.083   6.736 -0.3247 -0.2741 -0.2482
  874YOPE   NH311959   0.175  18.298   5.436 -0.1199  0.0841  0.2873
  874YOPE   PO411960   0.173  18.076   5.764  0.3838 -0.2131  0.0330
  874YOPE   GL111961   0.087  17.931   6.247  0.3380 -0.3218  0.1832
  874YOPE   GL211962  -0.198  18.183   6.249 -0.0230  0.0048 -0.2913
  874YOPE   C1A11963   0.180  18.057   6.651 -0.1042 -0.2233  0.3157
  874YOPE   D2A11964   0.207  18.127   7.091  0.2900 -0.0897  0.0892
  874YOPE   C3A11965   0.183  18.191   7.552  0.0878  0.1951 -0.0651
  874YOPE   C4A11966   0.381  18.247   7.946 -0.0428  0.1872 -0.2622
  874YOPE   C1B11967   0.053  18.470   6.496  0.2807 -0.0745 -0.0064
  874YOPE   C2B11968   0.175  18.619   6.825  0.0330 -0.2091  0.0378
  874YOPE   D3B11969   0.046  18.697   7.191 -0.0290  0.0966 -0.2041
  874YOPE   C4B11970  -0.110  18.953   7.568 -0.0707  0.2224 -0.0959
  875YOPE   NH311971   7.006  16.068   5.814  0.1786  0.2890  0.2593
  875YOPE   PO411972   7.171  16.494   5.749  0.2832  0.1570 -0.0662
  875YOPE   GL111973   7.260  16.442   6.110  0.1041 -0.0272 -0.3315
  875YOPE   GL211974   7.640  16.423   6.231  0.3259 -0.1459 -0.0172
  875YOPE   C1A11975   7.161  16.612   6.434  0.0213  0.1273  0.2716
  875YOPE   D2A11976   7.167  16.640   6.889 -0.0593  0.3168  0.0543
  875YOPE   C3A11977   7.502  16.701   7.096 -0.2814 -0.0362  0.2698
  875YOPE   C4A11978   7.603  16.757   7.457 -0.1049 -0.3608  0.1383
  875YOPE   C1B11979   7.558  16.401   6.680  0.0692 -0.3421  0.0040
  875YOPE   C2B11980   7.652  16.244   7.075 -0.0030  0.0810 -0.2127
  875YOPE   D3B11981   7.476  16.266   7.383  0.1340  0.3681 -0.1486
  875YOPE   C4B11982   7.106  16.004   7.436  0.1479  0.3179  0.2815
  876YOPE   NH311983   5.287   4.672   5.540  0.0564 -0.0306 -0.2778
  876YOPE   PO411984   5.504   5.078   5.825 -0.2856  0.1252 -0.1211
  876YOPE   GL111985   5.330   4.733   6.028 -0.2337 -0.2146 -0.0405
  876YOPE   GL211986   5.346   4.453   6.029  0.3508  0.0987 -0.0745
  876YOPE   C1A11987   4.938   4.745   6.348 -0.3419  0.2647  0.0833
  876YOPE   D2A11988   4.764   4.692   6.731 -0.0642 -0.1126  0.0702
  876YOPE   C3A11989   4.615   4.990   7.089  0.1108  0.1269  0.0823
  876YOPE   C4A11990   4.610   5.400   7.488 -0.2099  0.0958 -0.2917
  876YOPE   C1B11991   5.186   4.308   6.502  0.2226 -0.1768  0.0349
  876YOPE   C2B11992   5.169   4.264   6.937  0.2804 -0.6256 -0.1412
  876YOPE   D3B11993   4.833   4.073   7.152  0.0465 -0.0913 -0.0218
  876YOPE   C4B11994   4.515   4.132   7.437 -0.0021 -0.2123 -0.0531
  877YOPE   NH311995  11.949  14.302   5.695 -0.2592 -0.0568 -0.2578
  877YOPE   PO411996  12.275  14.333   5.855  0.0030 -0.0317 -0.0489
  877YOPE   GL111997  12.038  14.297   6.200  0.0418 -0.0865 -0.1361
  877YOPE   GL211998  12.236  14.142   6.372  0.1535 -0.2780  0.0047
  877YOPE   C1A11999  11.767  14.536   6.484  0.0246  0.2990 -0.0744
  877YOPE   D2A12000  11.659  14.591   6.867 -0.0409  0.1484  0.4037
  877YOPE   C3A12001  12.148  14.622   7.065  0.0959 -0.1856  0.0035
  877YOPE   C4A12002  12.406  14.566   6.703 -0.2526  0.0860 -0.4261
  877YOPE   C1B12003  12.062  14.192   6.727 -0.1126  0.1269 -0.1059
  877YOPE   C2B12004  11.762  14.144   7.019 -0.1282  0.1291 -0.0876
  877YOPE   D3B12005  11.816  14.179   7.507 -0.1681  0.0531  0.0330
  877YOPE   C4B12006  11.946  14.010   7.814  0.1774 -0.1073 -0.3421
  878YOPE   NH312007   3.757  10.033   5.566  0.0087  0.0198  0.0890
  878YOPE   PO412008   4.046  10.005   5.317 -0.0511  0.0484  0.1107
  878YOPE   GL112009   4.177   9.628   5.625 -0.1629 -0.0867 -0.0238
  878YOPE   GL212010   4.322   9.637   5.824  0.1127 -0.0214 -0.1829
  878YOPE   C1A12011   3.774   9.449   5.892  0.2503  0.0820  0.1301
  878YOPE   D2A12012   3.485   9.354   6.246 -0.0047 -0.2170  0.2431
  878YOPE   C3A12013   3.570   9.526   6.651  0.3244 -0.0749  0.0670
  878YOPE   C4A12014   3.679   9.529   7.022  0.1378  0.1045 -0.1856
  878YOPE   C1B12015   4.641   9.866   6.046 -0.1511  0.0377  0.4942
  878YOPE   C2B12016   4.784   9.633   6.497 -0.1469 -0.6857 -0.3210
  878YOPE   D3B12017   4.780   9.606   6.847 -0.2431  0.0082  0.1347
  878YOPE   C4B12018   4.570   9.540   7.275  0.1500  0.1437  0.2922
  879YOPE   NH312019  10.901   0.626   5.407  0.1626  0.1243  0.0166
  879YOPE   PO412020  11.121   0.453   5.676  0.0240  0.1808  0.0208
  879YOPE   GL112021  11.262   0.058   5.937  0.4866 -0.0420 -0.1410
  879YOPE   GL212022  11.577  -0.019   6.086 -0.1554  0.0646  0.0464
  879YOPE   C1A12023  11.176  -0.136   6.343 -0.0018  0.1643 -0.0807
  879YOPE   D2A12024  11.045  -0.494   6.412 -0.1421  0.3262 -0.0575
  879YOPE   C3A12025  11.145  -0.682   6.689 -0.2168 -0.0401  0.1682
  879YOPE   C4A12026  11.105  -1.040   6.936  0.1639  0.2303  0.0213
  879YOPE   C1B12027  11.593   0.233   6.430  0.3523 -0.1056  0.1870
  879YOPE   C2B12028  11.281   0.198   6.748  0.0558 -0.1844 -0.1186
  879YOPE   D3B12029  11.002  -0.092   6.900 -0.3775 -0.2346  0.0773
  879YOPE   C4B12030  10.691  -0.207   7.054 -0.3661  0.2231  0.1379
  880YOPE   NH312031   6.128   8.316   5.464 -0.0234 -0.1571 -0.2082
  880YOPE   PO412032   6.279   8.611   5.647 -0.1017  0.0859 -0.1330
  880YOPE   GL112033   6.184   8.447   6.041 -0.1663 -0.1913 -0.1932
  880YOPE   GL212034   6.247   8.120   5.965 -0.0435  0.1497  0.1729
  880YOPE   C1A12035   5.870   8.168   6.292  0.0331  0.2838 -0.0984
  880YOPE   D2A12036   5.754   8.012   6.667  0.0529  0.0586  0.1886
  880YOPE   C3A12037   5.590   8.246   7.074  0.1119  0.3325 -0.0458
  880YOPE   C4A12038   5.254   8.438   7.237  0.0134  0.2290 -0.2558
  880YOPE   C1B12039   6.525   7.764   5.945 -0.0002 -0.2118  0.0932
  880YOPE   C2B12040   6.727   7.506   6.252  0.0816 -0.2397  0.0905
  880YOPE   D3B12041   6.923   7.281   6.516 -0.1273 -0.3305  0.3628
  880YOPE   C4B12042   7.288   6.934   6.482 -0.1144  0.1889  0.1016
  881YOPE   NH312043  18.556  18.025   5.854  0.0727  0.0744  0.3545
  881YOPE   PO412044  18.457  18.459   5.876  0.0801  0.1301 -0.0952
  881YOPE   GL112045  18.308  18.581   6.203 -0.0369  0.1046 -0.3960
  881YOPE   GL212046  18.614  18.888   6.232  0.0647 -0.1178  0.0066
  881YOPE   C1A12047  18.091  18.703   6.585  0.4069  0.0595  0.0454
  881YOPE   D2A12048  18.193  19.113   6.838 -0.3102 -0.0007  0.0411
  881YOPE   C3A12049  18.286  19.204   7.230  0.0792  0.0401  0.3936
  881YOPE   C4A12050  18.297  19.044   7.620  0.1766 -0.1075  0.0318
  881YOPE   C1B12051  18.233  19.113   6.223 -0.1187  0.5206 -0.0755
  881YOPE   C2B12052  17.849  19.169   6.264  0.3215 -0.0222  0.0943
  881YOPE   D3B12053  17.634  19.144   6.697  0.1256  0.1109 -0.1260
  881YOPE   C4B12054  17.388  19.409   7.047  0.0461  0.3522  0.5066
  882YOPE   NH312055  12.340  18.724   5.865 -0.0527 -0.0238  0.0418
  882YOPE   PO412056  12.757  18.521   6.092  0.1457 -0.2810  0.0237
  882YOPE   GL112057  12.991  18.692   6.503 -0.0003 -0.1323 -0.1393
  882YOPE   GL212058  13.036  19.111   6.387 -0.2433 -0.2435 -0.0627
  882YOPE   C1A12059  13.007  18.601   6.938 -0.2760  0.2729  0.0560
  882YOPE   D2A12060  12.866  18.477   7.298 -0.0822  0.2250  0.0117
  882YOPE   C3A12061  13.053  18.338   7.696  0.3064 -0.0193 -0.2307
  882YOPE   C4A12062  13.427  18.201   7.889 -0.0624  0.0524 -0.0679
  882YOPE   C1B12063  13.136  19.058   6.818  0.1635 -0.0638  0.2861
  882YOPE   C2B12064  13.391  19.078   7.186  0.0271  0.2501  0.0063
  882YOPE   D3B12065  13.731  19.230   7.416 -0.3264 -0.0173 -0.1584
  882YOPE   C4B12066  14.040  19.469   7.457  0.0084  0.2028  0.0701
  883YOPE   NH312067   8.949  17.091   5.932  0.3107 -0.4154  0.1618
  883YOPE   PO412068   8.503  16.950   5.754 -0.0143  0.3383  0.2061
  883YOPE   GL112069   8.430  17.063   6.160 -0.2900  0.1378 -0.0708
  883YOPE   GL212070   8.341  17.345   6.105 -0.2494 -0.3470  0.0552
  883YOPE   C1A12071   8.412  17.035   6.630  0.0061  0.0202  0.0361
  883YOPE   D2A12072   8.390  16.821   6.923 -0.1284 -0.2329 -0.0125
  883YOPE   C3A12073   8.429  16.924   7.221 -0.3887  0.1045 -0.1448
  883YOPE   C4A12074   8.497  16.826   7.606 -0.2479  0.2280  0.0369
  883YOPE   C1B12075   8.484  17.560   6.473  0.1385 -0.1184  0.0612
  883YOPE   C2B12076   8.508  17.418   7.057 -0.2843  0.0962  0.1754
  883YOPE   D3B12077   8.451  17.416   7.481 -0.0200 -0.2797 -0.0244
  883YOPE   C4B12078   8.640  17.259   7.861  0.0278  0.0924 -0.4652
  884YOPE   NH312079  16.475   5.418   5.747 -0.1022  0.2732 -0.1486
  884YOPE   PO412080  16.029   5.498   5.873 -0.0304 -0.4527  0.0761
  884YOPE   GL112081  16.001   5.242   6.184  0.3469 -0.4349  0.2922
  884YOPE   GL212082  15.614   5.098   6.127 -0.1280 -0.1182  0.1881
  884YOPE   C1A12083  15.879   5.125   6.616  0.1358 -0.2341  0.0529
  884YOPE   D2A12084  15.924   4.997   7.055 -0.0503 -0.0665  0.2297
  884YOPE   C3A12085  16.230   4.977   7.404  0.0033 -0.0572  0.3098
  884YOPE   C4A12086  16.576   4.904   7.621 -0.0173 -0.2548  0.0697
  884YOPE   C1B12087  15.485   4.869   6.382  0.2179  0.0353  0.0323
  884YOPE   C2B12088  15.654   4.658   6.781  0.0723  0.1608  0.0975
  884YOPE   D3B12089  15.691   4.568   7.219  0.3245  0.2443  0.1240
  884YOPE   C4B12090  15.767   4.333   7.571 -0.0524 -0.0541 -0.0441
  885YOPE   NH312091  15.162  18.752   5.020  0.0127  0.1135  0.3877
  885YOPE   PO412092  15.192  19.011   5.355  0.2292 -0.0147  0.1168
  885YOPE   GL112093  15.080  18.897   5.803 -0.2992  0.2897 -0.1255
  885YOPE   GL212094  14.783  19.062   5.877 -0.0143  0.1784 -0.0805
  885YOPE   C1A12095  15.045  19.117   6.265 -0.0429 -0.0210 -0.2977
  885YOPE   D2A12096  14.877  18.949   6.638  0.0076  0.1579 -0.1110
  885YOPE   C3A12097  14.924  19.034   7.123  0.1068 -0.2401  0.2377
  885YOPE   C4A12098  14.631  18.949   7.520 -0.0500 -0.5277  0.0940
  885YOPE   C1B12099  14.387  19.143   6.179 -0.0022 -0.2391  0.0470
  885YOPE   C2B12100  14.292  19.013   6.591 -0.2249 -0.2394  0.3040
  885YOPE   D3B12101  14.528  18.700   6.816 -0.4810  0.3975 -0.1500
  885YOPE   C4B12102  14.847  18.555   7.010 -0.0664  0.1811  0.0201
  886YOPE   NH312103   0.748  17.258   5.819  0.0573 -0.3556  0.1265
  886YOPE   PO412104   0.939  16.851   5.744  0.0973 -0.1198  0.2798
  886YOPE   GL112105   0.983  16.920   6.132 -0.2896 -0.0908  0.2144
  886YOPE   GL212106   1.174  17.098   6.475 -0.2746  0.1185 -0.1386
  886YOPE   C1A12107   0.864  16.516   6.384  0.0282  0.0956 -0.2411
  886YOPE   D2A12108   0.678  16.183   6.718  0.4538  0.0663  0.0355
  886YOPE   C3A12109   0.275  16.188   6.838 -0.2937 -0.0656 -0.4956
  886YOPE   C4A12110   0.028  16.188   7.266 -0.3378  0.0499  0.1140
  886YOPE   C1B12111   1.392  16.991   6.761  0.1086 -0.1724 -0.2155
  886YOPE   C2B12112   1.333  16.831   7.170 -0.1337 -0.2069  0.3176
  886YOPE   D3B12113   1.524  16.723   7.599 -0.0352  0.1461  0.2518
  886YOPE   C4B12114   1.619  16.272   7.654 -0.3699  0.1856 -0.0871
  887YOPE   NH312115  13.141   8.757   5.307 -0.0052 -0.0504 -0.3031
  887YOPE   PO412116  12.994   9.135   5.085  0.0046  0.1665 -0.0856
  887YOPE   GL112117  13.320   9.148   5.530 -0.1107 -0.1728  0.0982
  887YOPE   GL212118  13.621   9.136   5.353 -0.0127  0.2047  0.1288
  887YOPE   C1A12119  13.265   9.040   5.882  0.0874  0.0365  0.3482
  887YOPE   D2A12120  13.557   8.915   6.133 -0.1250  0.0433 -0.0754
  887YOPE   C3A12121  13.429   8.841   6.521 -0.0175  0.0851  0.2466
  887YOPE   C4A12122  13.476   8.552   6.912 -0.4288 -0.0197 -0.0184
  887YOPE   C1B12123  13.759   9.178   5.742  0.2885  0.2093  0.1351
  887YOPE   C2B12124  13.817   9.389   6.113  0.2643 -0.0311  0.5280
  887YOPE   D3B12125  13.918   9.254   6.586  0.1516  0.0909 -0.1730
  887YOPE   C4B12126  13.882   9.000   6.986 -0.3268  0.1268 -0.1665
  888YOPE   NH312127   2.451   0.405   5.728  0.1886 -0.0521 -0.2381
  888YOPE   PO412128   2.802   0.708   5.884  0.2089 -0.2920  0.0775
  888YOPE   GL112129   2.940   0.733   6.289 -0.2164 -0.3430  0.2629
  888YOPE   GL212130   3.241   0.588   6.326  0.1655  0.2507 -0.0849
  888YOPE   C1A12131   2.976   1.014   6.641 -0.3848 -0.1393  0.0227
  888YOPE   D2A12132   3.075   1.244   6.917 -0.5284 -0.0341 -0.3335
  888YOPE   C3A12133   3.044   1.148   7.332 -0.2044  0.0596  0.0035
  888YOPE   C4A12134   3.006   1.219   7.797  0.1481 -0.2240 -0.1460
  888YOPE   C1B12135   3.536   0.835   6.511 -0.0447  0.1490 -0.2224
  888YOPE   C2B12136   3.521   1.017   6.880  0.0359  0.2486  0.0267
  888YOPE   D3B12137   3.591   1.094   7.279 -0.1272  0.0462 -0.1071
  888YOPE   C4B12138   3.932   1.307   7.397 -0.1359  0.0237 -0.1862
  889YOPE   NH312139  18.877   3.732   5.733  0.0451  0.3365 -0.2679
  889YOPE   PO412140  19.286   3.638   5.901 -0.2458  0.3992  0.1226
  889YOPE   GL112141  19.500   3.927   6.169  0.2194  0.0528  0.1169
  889YOPE   GL212142  19.839   4.126   6.123  0.0110 -0.1192  0.0551
  889YOPE   C1A12143  19.377   3.977   6.614  0.1793 -0.2509 -0.2791
  889YOPE   D2A12144  19.618   3.805   6.941  0.5712  0.1244  0.1607
  889YOPE   C3A12145  19.548   3.464   7.316 -0.0014  0.0747  0.4290
  889YOPE   C4A12146  19.558   3.031   7.456  0.1855 -0.5149 -0.1449
  889YOPE   C1B12147  19.671   4.405   6.503  0.1293 -0.0412  0.0605
  889YOPE   C2B12148  19.665   4.463   6.852  0.1988 -0.2563  0.0901
  889YOPE   D3B12149  19.651   4.233   7.202 -0.1544  0.0303  0.0632
  889YOPE   C4B12150  19.882   3.815   7.397 -0.1747  0.1984  0.0493
  890YOPE   NH312151  12.496  17.127   5.691 -0.1723 -0.0296  0.1062
  890YOPE   PO412152  12.186  16.897   5.449 -0.0538  0.3256 -0.1782
  890YOPE   GL112153  12.085  16.715   5.839  0.1657  0.0914 -0.1691
  890YOPE   GL212154  11.784  16.605   5.948  0.1289 -0.0732 -0.0968
  890YOPE   C1A12155  11.982  16.950   6.293 -0.0788 -0.0063  0.1317
  890YOPE   D2A12156  11.945  16.981   6.704  0.0531 -0.3053 -0.2448
  890YOPE   C3A12157  11.490  17.026   6.896  0.1234 -0.0608 -0.1692
  890YOPE   C4A12158  11.037  16.935   6.993 -0.2879 -0.0603 -0.1662
  890YOPE   C1B12159  11.585  16.612   6.426 -0.2300  0.1785  0.2029
  890YOPE   C2B12160  11.219  16.576   6.495  0.2126 -0.0544  0.0950
  890YOPE   D3B12161  11.036  16.481   6.847  0.1226  0.2528  0.0526
  890YOPE   C4B12162  10.614  16.684   7.065  0.2936 -0.5877 -0.1189
  891YOPE   NH312163   3.098   3.568   5.251 -0.0525 -0.1781 -0.2364
  891YOPE   PO412164   3.464   3.310   5.253  0.2162 -0.3336  0.1369
  891YOPE   GL112165   3.341   3.261   5.638  0.0847 -0.2437 -0.0421
  891YOPE   GL212166   3.004   3.198   5.588  0.1253  0.2965 -0.2103
  891YOPE   C1A12167   3.275   3.089   6.012 -0.0978 -0.3968  0.0877
  891YOPE   D2A12168   3.288   2.809   6.362 -0.1289 -0.0973  0.0947
  891YOPE   C3A12169   3.178   2.898   6.809 -0.1201 -0.1566 -0.2056
  891YOPE   C4A12170   2.995   3.132   7.176 -0.0532 -0.1203  0.2287
  891YOPE   C1B12171   2.771   3.320   5.987  0.1608  0.1919 -0.3378
  891YOPE   C2B12172   2.745   3.173   6.377  0.4215  0.0789  0.2225
  891YOPE   D3B12173   2.583   3.121   6.784 -0.1120  0.1088  0.2188
  891YOPE   C4B12174   2.530   3.082   7.281  0.4190  0.1206 -0.1043
  892YOPE   NH312175  11.161  18.045   6.050 -0.1097  0.0701 -0.0525
  892YOPE   PO412176  11.439  18.096   5.731 -0.3148 -0.0924  0.0542
  892YOPE   GL112177  11.696  17.983   6.160  0.1884  0.1414 -0.2005
  892YOPE   GL212178  11.529  17.961   6.462 -0.0487 -0.1198 -0.0084
  892YOPE   C1A12179  12.028  17.847   6.567  0.2103 -0.1521  0.3860
  892YOPE   D2A12180  12.237  17.774   6.981 -0.2329  0.0422  0.0168
  892YOPE   C3A12181  12.226  17.633   7.444  0.0833 -0.1851  0.0868
  892YOPE   C4A12182  12.070  17.380   7.729  0.2704  0.0226 -0.3464
  892YOPE   C1B12183  11.570  18.048   6.792  0.3833 -0.2170  0.1692
  892YOPE   C2B12184  11.529  18.230   7.290  0.1007 -0.0651  0.0598
  892YOPE   D3B12185  11.896  18.544   7.406  0.0087  0.0592  0.0301
  892YOPE   C4B12186  12.254  18.804   7.553 -0.2995  0.0172 -0.1603
  893YOPE   NH312187   5.227   1.720   5.431 -0.2332  0.1890  0.2290
  893YOPE   PO412188   5.501   1.491   5.485  0.1235  0.0569 -0.0629
  893YOPE   GL112189   5.532   1.195   5.851  0.0635  0.0133  0.1045
  893YOPE   GL212190   5.824   0.992   5.803 -0.1719 -0.1029 -0.0776
  893YOPE   C1A12191   5.434   1.185   6.221  0.0937 -0.0343 -0.0844
  893YOPE   D2A12192   5.342   1.188   6.712 -0.0123 -0.2342 -0.2880
  893YOPE   C3A12193   5.297   1.598   6.884 -0.0067  0.1057  0.2916
  893YOPE   C4A12194   5.502   1.973   6.910 -0.2959 -0.0331  0.0594
  893YOPE   C1B12195   5.601   0.733   6.106 -0.0466 -0.2005  0.0461
  893YOPE   C2B12196   5.726   0.813   6.578  0.0866 -0.0949  0.3361
  893YOPE   D3B12197   5.935   0.771   6.912  0.2336  0.3060  0.1118
  893YOPE   C4B12198   5.864   0.551   7.340  0.0096  0.0605  0.1397
  894YOPE   NH312199  16.878   2.782   5.477 -0.0181  0.1521 -0.2367
  894YOPE   PO412200  17.121   2.488   5.608 -0.0280  0.1082  0.2381
  894YOPE   GL112201  17.177   2.170   5.908  0.3092  0.2134  0.1253
  894YOPE   GL212202  17.344   1.795   5.826 -0.1481 -0.1984  0.1636
  894YOPE   C1A12203  17.307   2.073   6.339  0.0708 -0.3184  0.0775
  894YOPE   D2A12204  17.336   2.004   6.796  0.0131  0.2585 -0.0453
  894YOPE   C3A12205  17.186   2.408   6.961  0.1438  0.1318  0.2637
  894YOPE   C4A12206  16.861   2.449   7.282  0.2182  0.2150 -0.0653
  894YOPE   C1B12207  17.013   1.754   6.171  0.1152 -0.1353 -0.0565
  894YOPE   C2B12208  17.018   1.621   6.689 -0.2025  0.0510  0.2934
  894YOPE   D3B12209  17.115   1.528   7.141  0.0312 -0.1392  0.0646
  894YOPE   C4B12210  16.988   1.228   7.450 -0.2123  0.2028  0.0490
  895YOPE   NH312211  15.830  11.434   5.006  0.2119 -0.3192 -0.1955
  895YOPE   PO412212  15.588  11.386   5.496 -0.1500  0.1152 -0.1357
  895YOPE   GL112213  15.432  11.295   5.948  0.2255  0.2666  0.0438
  895YOPE   GL212214  15.007  11.355   5.994 -0.3399  0.0368 -0.1388
  895YOPE   C1A12215  15.575  10.945   6.265 -0.1875  0.2014  0.1678
  895YOPE   D2A12216  15.614  10.740   6.546  0.0236 -0.0144  0.0170
  895YOPE   C3A12217  15.503  10.830   6.949 -0.2273  0.2451  0.2523
  895YOPE   C4A12218  15.571  10.642   7.398  0.2076  0.0992 -0.0227
  895YOPE   C1B12219  15.208  11.648   6.241 -0.1451 -0.2113  0.1078
  895YOPE   C2B12220  15.436  11.989   6.592  0.0425  0.0381 -0.2223
  895YOPE   D3B12221  15.735  12.324   6.671  0.1095 -0.0623 -0.0746
  895YOPE   C4B12222  15.670  12.631   6.954  0.1499 -0.1930  0.1339
  896YOPE   NH312223  16.628   1.858   5.137 -0.0038  0.0427  0.0964
  896YOPE   PO412224  16.898   2.015   5.542 -0.0790  0.0136 -0.1617
  896YOPE   GL112225  16.603   1.923   5.885  0.0941  0.1462 -0.1070
  896YOPE   GL212226  16.652   2.095   6.170 -0.0633 -0.4663 -0.2481
  896YOPE   C1A12227  16.534   1.633   6.118  0.1747  0.2933  0.2705
  896YOPE   D2A12228  16.588   1.434   6.459  0.1045 -0.2691 -0.2449
  896YOPE   C3A12229  16.529   1.527   6.884  0.1445  0.1712 -0.2335
  896YOPE   C4A12230  16.408   1.156   7.121 -0.0797  0.0378 -0.1901
  896YOPE   C1B12231  16.899   2.149   6.564 -0.0890 -0.3582 -0.3372
  896YOPE   C2B12232  16.814   2.027   6.978  0.4135 -0.2689 -0.2576
  896YOPE   D3B12233  16.316   1.927   7.079  0.2194  0.0098 -0.1553
  896YOPE   C4B12234  16.111   1.984   7.432  0.1835  0.0806  0.1219
  897YOPE   NH312235   8.111  12.639   5.746  0.0399 -0.0671 -0.0631
  897YOPE   PO412236   8.257  13.050   5.717  0.1623 -0.1654 -0.2026
  897YOPE   GL112237   8.186  12.963   6.125  0.0929 -0.1365 -0.0137
  897YOPE   GL212238   8.243  13.195   6.278  0.0396  0.1255 -0.1961
  897YOPE   C1A12239   8.066  12.867   6.546  0.1492  0.0834 -0.0053
  897YOPE   D2A12240   7.912  12.835   6.999  0.2998  0.3065 -0.0745
  897YOPE   C3A12241   7.903  12.895   7.404  0.3490 -0.2099  0.0179
  897YOPE   C4A12242   8.030  13.067   7.760 -0.0174 -0.0299 -0.1576
  897YOPE   C1B12243   8.572  13.137   6.609  0.1221 -0.1160  0.0264
  897YOPE   C2B12244   8.865  12.899   6.863 -0.0235 -0.2430 -0.2881
  897YOPE   D3B12245   9.235  12.716   6.964 -0.3230  0.0468  0.0238
  897YOPE   C4B12246   9.569  12.481   6.808  0.0295  0.1337  0.0124
  898YOPE   NH312247   5.263  11.447   5.867  0.0380  0.1110  0.0612
  898YOPE   PO412248   5.034  11.127   5.795 -0.1766 -0.4301 -0.1010
  898YOPE   GL112249   4.756  11.179   6.057 -0.1599 -0.1041  0.1904
  898YOPE   GL212250   4.815  11.501   6.161 -0.1195  0.0366  0.1469
  898YOPE   C1A12251   4.878  11.140   6.576  0.1068  0.0829  0.0986
  898YOPE   D2A12252   5.089  11.011   6.976  0.0966 -0.1145 -0.2393
  898YOPE   C3A12253   5.092  11.366   7.407  0.2100  0.2490  0.1454
  898YOPE   C4A12254   5.006  11.437   7.803 -0.1856  0.1623  0.1129
  898YOPE   C1B12255   4.591  11.511   6.433  0.2881 -0.0328  0.0119
  898YOPE   C2B12256   4.195  11.380   6.796  0.1136 -0.2070  0.1225
  898YOPE   D3B12257   4.160  11.147   7.117 -0.2673  0.0761 -0.1572
  898YOPE   C4B12258   3.992  11.161   7.541 -0.3722 -0.1075  0.2063
  899YOPE   NH312259   1.381  16.511   5.830 -0.3296 -0.2878  0.0281
  899YOPE   PO412260   1.771  16.805   5.827  0.3547 -0.0273  0.1689
  899YOPE   GL112261   1.631  16.830   6.203 -0.1285 -0.0751 -0.1095
  899YOPE   GL212262   1.383  16.655   6.307 -0.2868  0.0893  0.0074
  899YOPE   C1A12263   1.717  16.657   6.737  0.0307 -0.1510 -0.1548
  899YOPE   D2A12264   1.669  16.398   7.116 -0.0929  0.0981  0.1482
  899YOPE   C3A12265   1.769  16.004   7.137  0.2570 -0.2587 -0.2315
  899YOPE   C4A12266   2.070  15.994   7.487 -0.2234 -0.0794 -0.1609
  899YOPE   C1B12267   1.481  16.291   6.565  0.0545 -0.2600  0.5440
  899YOPE   C2B12268   1.786  15.908   6.659 -0.2537  0.0993  0.2068
  899YOPE   D3B12269   2.127  15.851   6.886 -0.2779  0.4697 -0.2040
  899YOPE   C4B12270   2.381  15.747   7.225 -0.1843  0.3802  0.1599
  900YOPE   NH312271   3.373  13.758   5.437 -0.2108  0.0890  0.2280
  900YOPE   PO412272   3.409  13.227   5.284 -0.2075 -0.0538 -0.0993
  900YOPE   GL112273   3.119  13.283   5.746  0.1291 -0.3181  0.0910
  900YOPE   GL212274   3.005  12.986   5.958 -0.3171  0.0174  0.4426
  900YOPE   C1A12275   2.912  13.405   6.168 -0.1407  0.3045 -0.4732
  900YOPE   D2A12276   2.907  13.272   6.625 -0.1051  0.0709 -0.0721
  900YOPE   C3A12277   2.801  13.245   7.107  0.2163 -0.3668 -0.1231
  900YOPE   C4A12278   2.703  13.633   7.382 -0.1300  0.1729 -0.0592
  900YOPE   C1B12279   2.875  12.697   6.241  0.0358 -0.4286 -0.4094
  900YOPE   C2B12280   2.684  12.682   6.663 -0.2559  0.1339 -0.0836
  900YOPE   D3B12281   2.563  12.756   7.004  0.0705 -0.1006 -0.0297
  900YOPE   C4B12282   2.541  12.909   7.482  0.1768 -0.0004 -0.2654
  901YOPE   NH312283  18.019   6.876   5.743  0.0721 -0.2968 -0.2107
  901YOPE   PO412284  18.411   7.085   5.814 -0.1625  0.0822  0.0413
  901YOPE   GL112285  18.475   7.035   6.184  0.0088  0.0337  0.2458
  901YOPE   GL212286  18.753   6.832   6.146 -0.3152  0.0499 -0.0194
  901YOPE   C1A12287  18.393   7.109   6.602 -0.3889  0.0169  0.2001
  901YOPE   D2A12288  17.981   7.002   6.831  0.1798 -0.0074  0.1583
  901YOPE   C3A12289  18.045   6.913   7.277  0.3201 -0.0553 -0.1175
  901YOPE   C4A12290  18.004   6.794   7.733  0.2424 -0.0341 -0.0355
  901YOPE   C1B12291  18.941   6.774   6.469 -0.2347  0.1231  0.0311
  901YOPE   C2B12292  18.870   6.835   6.850 -0.1432 -0.2096  0.1122
  901YOPE   D3B12293  18.991   6.580   7.172 -0.1973  0.0362 -0.2483
  901YOPE   C4B12294  19.180   6.522   7.499 -0.0999  0.1846  0.1765
  902YOPE   NH312295  11.021  15.972   5.792  0.1454  0.0376 -0.2344
  902YOPE   PO412296  11.487  16.173   5.752  0.2707 -0.4144 -0.1924
  902YOPE   GL112297  11.368  16.233   6.201  0.3868 -0.2155 -0.0090
  902YOPE   GL212298  11.156  16.010   6.274  0.2450  0.2373  0.2010
  902YOPE   C1A12299  11.579  16.142   6.590  0.3288  0.0663  0.2451
  902YOPE   D2A12300  11.673  15.898   7.001  0.0787 -0.0110 -0.1119
  902YOPE   C3A12301  11.993  15.681   7.337 -0.2469 -0.1367  0.0511
  902YOPE   C4A12302  12.507  15.432   7.492  0.2038 -0.2288  0.0881
  902YOPE   C1B12303  11.129  16.022   6.766 -0.0891  0.0214 -0.0370
  902YOPE   C2B12304  11.223  16.187   7.175  0.0461 -0.2511 -0.0027
  902YOPE   D3B12305  10.993  16.513   7.385 -0.4570 -0.1952 -0.2054
  902YOPE   C4B12306  10.780  16.919   7.435 -0.0757  0.1478 -0.1910
  903YOPE   NH312307  12.387  13.733   6.057 -0.2053  0.0494 -0.0460
  903YOPE   PO412308  12.836  13.504   6.144 -0.1856  0.0035  0.1913
  903YOPE   GL112309  12.532  13.608   6.550  0.2046  0.2053 -0.1536
  903YOPE   GL212310  12.239  13.654   6.577 -0.2732 -0.1457 -0.2207
  903YOPE   C1A12311  12.363  13.212   6.854  0.1350 -0.2183 -0.0606
  903YOPE   D2A12312  12.220  12.856   7.135 -0.0009  0.3840 -0.0850
  903YOPE   C3A12313  12.354  12.455   6.998 -0.1240 -0.1323 -0.2680
  903YOPE   C4A12314  12.523  12.129   6.799 -0.2708  0.1673  0.0138
  903YOPE   C1B12315  12.223  13.817   6.988  0.1536 -0.2088 -0.3288
  903YOPE   C2B12316  11.734  13.702   7.288  0.1278 -0.3149  0.0385
  903YOPE   D3B12317  11.517  13.396   7.617 -0.0578 -0.1230 -0.1404
  903YOPE   C4B12318  11.106  13.357   7.661 -0.1808 -0.1562  0.2276
  904YOPE   NH312319   3.754   5.060   5.699 -0.2177 -0.1126  0.1560
  904YOPE   PO412320   3.363   5.319   5.911 -0.1232 -0.2755 -0.1404
  904YOPE   GL112321   3.493   4.965   6.138 -0.1075 -0.3015  0.1312
  904YOPE   GL212322   3.423   4.681   6.033 -0.1764 -0.1474  0.0683
  904YOPE   C1A12323   3.389   4.937   6.567 -0.2468  0.1215 -0.1286
  904YOPE   D2A12324   3.320   4.933   6.947 -0.2150 -0.2426  0.1045
  904YOPE   C3A12325   3.690   4.904   7.306  0.0034  0.0088  0.0483
  904YOPE   C4A12326   3.493   4.664   7.594 -0.5236 -0.2179 -0.2777
  904YOPE   C1B12327   3.104   4.544   6.200  0.1261  0.0313  0.0804
  904YOPE   C2B12328   2.813   4.723   6.578 -0.3110 -0.0815 -0.0582
  904YOPE   D3B12329   2.704   4.766   6.935 -0.0512 -0.2571 -0.1116
  904YOPE   C4B12330   2.954   4.761   7.181  0.0738 -0.1645  0.1217
  905YOPE   NH312331  11.272   9.291   5.354 -0.0972 -0.1957 -0.2795
  905YOPE   PO412332  11.665   9.007   5.380  0.1463 -0.0481  0.4428
  905YOPE   GL112333  11.471   8.934   5.722 -0.1737 -0.0398 -0.1250
  905YOPE   GL212334  11.414   9.182   5.890 -0.4118 -0.0056  0.0944
  905YOPE   C1A12335  11.432   8.669   6.153  0.1843  0.1147  0.3487
  905YOPE   D2A12336  11.165   8.346   6.253  0.3848 -0.3320  0.1562
  905YOPE   C3A12337  11.261   8.135   6.648 -0.0487  0.3101 -0.0237
  905YOPE   C4A12338  11.298   8.039   7.074  0.0443  0.0803 -0.0897
  905YOPE   C1B12339  11.322   9.134   6.367  0.2115  0.0045 -0.1581
  905YOPE   C2B12340  11.250   9.127   6.771  0.0774  0.3413 -0.4486
  905YOPE   D3B12341  11.254   8.895   7.224 -0.3881  0.0525 -0.1137
  905YOPE   C4B12342  11.430   8.422   7.377  0.2330 -0.0835 -0.0778
  906YOPE   NH312343  13.540   4.409   5.462  0.1292  0.0104  0.2232
  906YOPE   PO412344  13.438   4.085   5.802  0.2331  0.1663  0.0357
  906YOPE   GL112345  13.363   4.117   6.279 -0.0595  0.0116  0.0884
  906YOPE   GL212346  13.054   4.222   6.399  0.1656  0.0307 -0.0103
  906YOPE   C1A12347  13.346   4.290   6.788 -0.0779 -0.0842  0.2058
  906YOPE   D2A12348  13.359   4.623   7.052  0.2465 -0.4074 -0.0238
  906YOPE   C3A12349  13.323   5.139   7.149 -0.0098  0.1134  0.0277
  906YOPE   C4A12350  13.086   5.423   7.024 -0.4160  0.0620 -0.5815
  906YOPE   C1B12351  13.401   4.620   6.367  0.0405  0.1628  0.1121
  906YOPE   C2B12352  13.813   4.456   6.349  0.0283  0.0421  0.1042
  906YOPE   D3B12353  14.135   4.659   6.341  0.0562 -0.0127 -0.3044
  906YOPE   C4B12354  14.440   4.870   6.363 -0.2237  0.0193  0.1254
  907YOPE   NH312355   4.494  15.118   5.330 -0.0254  0.1351 -0.0731
  907YOPE   PO412356   4.469  15.259   5.702  0.4840 -0.0654  0.1947
  907YOPE   GL112357   4.566  15.409   5.952  0.3206  0.2855  0.2368
  907YOPE   GL212358   4.466  15.665   6.050  0.1036 -0.0432 -0.1057
  907YOPE   C1A12359   4.726  15.460   6.355 -0.1797 -0.0713 -0.0659
  907YOPE   D2A12360   4.505  15.196   6.625  0.4421 -0.2208  0.1234
  907YOPE   C3A12361   4.382  15.159   6.984  0.2636 -0.2920 -0.4649
  907YOPE   C4A12362   4.233  15.100   7.415  0.1419  0.1861 -0.1458
  907YOPE   C1B12363   4.014  15.819   6.103  0.1463 -0.0949  0.0728
  907YOPE   C2B12364   3.851  16.106   6.454  0.0144 -0.2109 -0.3256
  907YOPE   D3B12365   3.606  15.908   6.706 -0.3494  0.2027  0.1732
  907YOPE   C4B12366   3.257  15.906   7.086 -0.2757  0.1738 -0.0236
  908YOPE   NH312367  17.624  16.613   5.735 -0.0532  0.2022 -0.0367
  908YOPE   PO412368  17.981  16.392   5.720 -0.2973  0.1718 -0.1612
  908YOPE   GL112369  17.757  16.087   5.938 -0.1798 -0.1024  0.0811
  908YOPE   GL212370  17.492  16.154   5.869 -0.1178  0.1810  0.1053
  908YOPE   C1A12371  17.720  15.768   6.271  0.1263 -0.0945  0.0734
  908YOPE   D2A12372  17.661  15.581   6.569  0.1664  0.0564  0.1493
  908YOPE   C3A12373  17.605  15.682   6.896  0.2204 -0.0055  0.0003
  908YOPE   C4A12374  17.643  16.060   7.025  0.5072 -0.0065 -0.1143
  908YOPE   C1B12375  17.458  16.259   6.330 -0.2639  0.0063 -0.3563
  908YOPE   C2B12376  17.744  16.285   6.593  0.2645  0.3234  0.0530
  908YOPE   D3B12377  18.011  16.323   6.947  0.1646  0.1246  0.0863
  908YOPE   C4B12378  18.418  16.177   6.934  0.1521 -0.0695  0.0171
  909YOPE   NH312379  16.561  12.873   5.503  0.0636  0.0850  0.3021
  909YOPE   PO412380  16.981  13.102   5.549  0.2949  0.1439 -0.0531
  909YOPE   GL112381  17.005  12.921   5.889  0.0546  0.4259  0.2233
  909YOPE   GL212382  17.167  12.909   6.023  0.0909 -0.0200  0.2434
  909YOPE   C1A12383  16.664  12.700   6.106 -0.3438  0.2692  0.0031
  909YOPE   D2A12384  16.256  12.542   6.308 -0.1134  0.1175 -0.0697
  909YOPE   C3A12385  16.149  12.564   6.732  0.5253 -0.2035 -0.3346
  909YOPE   C4A12386  16.069  12.810   7.204  0.0316 -0.1386  0.1593
  909YOPE   C1B12387  17.173  12.927   6.419 -0.1519 -0.0368  0.0358
  909YOPE   C2B12388  16.926  13.091   6.680 -0.0158 -0.3945  0.1495
  909YOPE   D3B12389  17.032  13.183   7.071 -0.0611  0.0894  0.1375
  909YOPE   C4B12390  17.125  13.641   7.246 -0.0955 -0.1873 -0.0399
  910YOPE   NH312391   0.656  17.832   5.872 -0.0573  0.1712 -0.0984
  910YOPE   PO412392   0.929  17.650   5.616  0.2904 -0.0089  0.0853
  910YOPE   GL112393   0.979  17.586   6.178  0.0121 -0.1891  0.1314
  910YOPE   GL212394   0.784  17.388   6.339  0.2586 -0.0497  0.1306
  910YOPE   C1A12395   1.199  17.537   6.538 -0.4380 -0.0078 -0.1084
  910YOPE   D2A12396   1.272  17.401   7.017  0.3039  0.0443  0.1197
  910YOPE   C3A12397   1.440  17.319   7.369  0.0399 -0.0609  0.1602
  910YOPE   C4A12398   1.431  17.209   7.777  0.1867  0.0828  0.1680
  910YOPE   C1B12399   0.845  17.405   6.829  0.0184  0.0817 -0.1152
  910YOPE   C2B12400   0.743  17.232   7.172 -0.2325 -0.2131 -0.1384
  910YOPE   D3B12401   1.034  17.019   7.579  0.0699 -0.0994 -0.1397
  910YOPE   C4B12402   1.100  16.806   7.961  0.1475  0.0834 -0.3039
  911YOPE   NH312403   7.703  18.305   5.749  0.3817  0.0317  0.5393
  911YOPE   PO412404   7.947  18.069   5.720  0.0850  0.0480 -0.0064
  911YOPE   GL112405   7.908  18.102   6.146  0.3016  0.2726 -0.1863
  911YOPE   GL212406   7.625  18.101   6.319  0.0536  0.3031  0.0844
  911YOPE   C1A12407   8.139  18.498   6.353 -0.0832 -0.1032  0.0763
  911YOPE   D2A12408   8.208  18.935   6.409 -0.2451 -0.1440  0.1046
  911YOPE   C3A12409   8.072  19.041   6.744 -0.2876  0.0828  0.1372
  911YOPE   C4A12410   7.925  19.273   7.054 -0.0207 -0.0491  0.0758
  911YOPE   C1B12411   7.678  17.942   6.694 -0.0816 -0.0738 -0.4257
  911YOPE   C2B12412   7.754  18.055   7.124 -0.0211 -0.3519 -0.0548
  911YOPE   D3B12413   7.916  18.145   7.550  0.4685  0.0622 -0.1983
  911YOPE   C4B12414   7.942  18.415   7.871 -0.0466  0.0613 -0.0825
  912YOPE   NH312415  18.860   5.862   5.604 -0.0526 -0.1094  0.1915
  912YOPE   PO412416  19.187   6.166   5.706 -0.0269  0.1285 -0.0054
  912YOPE   GL112417  19.535   5.950   5.919 -0.1882 -0.0668  0.0882
  912YOPE   GL212418  19.665   5.695   5.834 -0.0273  0.2958 -0.0247
  912YOPE   C1A12419  19.703   5.901   6.292 -0.2492 -0.0729  0.2802
  912YOPE   D2A12420  19.951   6.011   6.683  0.0962  0.0039  0.1118
  912YOPE   C3A12421  20.334   6.296   6.569  0.0612 -0.1001 -0.2470
  912YOPE   C4A12422  20.394   6.714   6.713 -0.2773 -0.0535  0.2446
  912YOPE   C1B12423  19.962   5.492   6.134  0.0376  0.1041 -0.0339
  912YOPE   C2B12424  19.877   5.199   6.425 -0.0985  0.0807  0.4064
  912YOPE   D3B12425  19.996   4.856   6.761  0.0405 -0.0733 -0.1544
  912YOPE   C4B12426  20.051   4.697   7.214 -0.0004 -0.2707  0.0350
  913YOPE   NH312427   2.985   8.132   5.442  0.1733  0.0575  0.1488
  913YOPE   PO412428   2.750   8.579   5.224  0.4217 -0.3678  0.0940
  913YOPE   GL112429   2.730   8.516   5.678  0.1506 -0.0341  0.0742
  913YOPE   GL212430   2.994   8.729   5.745  0.0900  0.0967 -0.0891
  913YOPE   C1A12431   2.835   8.306   6.087 -0.3951 -0.1957 -0.0279
  913YOPE   D2A12432   3.062   8.378   6.509 -0.1798 -0.3643  0.4699
  913YOPE   C3A12433   3.138   8.651   6.807 -0.1128 -0.1989 -0.0171
  913YOPE   C4A12434   3.313   8.732   7.204 -0.1498  0.1583  0.1695
  913YOPE   C1B12435   2.904   8.798   6.190 -0.0465  0.1005 -0.1039
  913YOPE   C2B12436   2.709   8.759   6.670 -0.0516 -0.0694  0.3493
  913YOPE   D3B12437   2.757   8.929   7.070  0.1971 -0.4389  0.0022
  913YOPE   C4B12438   2.508   9.193   7.230  0.2430 -0.0883 -0.2768
  914YOPE   NH312439  14.624   5.511   5.675 -0.1992  0.0008  0.5486
  914YOPE   PO412440  14.954   5.543   5.807  0.1118  0.2704  0.1910
  914YOPE   GL112441  15.199   5.643   6.123 -0.1718 -0.2996 -0.0198
  914YOPE   GL212442  15.534   5.681   6.174  0.0063  0.2490 -0.1101
  914YOPE   C1A12443  15.193   5.851   6.510  0.0726 -0.3585 -0.1475
  914YOPE   D2A12444  15.607   5.804   6.753  0.0022  0.1209  0.4254
  914YOPE   C3A12445  15.849   5.927   7.036 -0.1583 -0.1005  0.0263
  914YOPE   C4A12446  16.042   5.801   7.454  0.1058 -0.1611 -0.1107
  914YOPE   C1B12447  15.424   5.383   6.501 -0.3058 -0.3866  0.0274
  914YOPE   C2B12448  15.511   5.362   6.891  0.0512 -0.0021 -0.0039
  914YOPE   D3B12449  15.653   5.556   7.312  0.1703 -0.3273 -0.2340
  914YOPE   C4B12450  15.605   5.980   7.620 -0.1391  0.3033 -0.0962
  915YOPE   NH312451   7.394  11.676   5.420  0.0959  0.1543  0.0050
  915YOPE   PO412452   7.763  11.604   5.725 -0.2354  0.2748 -0.1845
  915YOPE   GL112453   7.899  11.732   6.088  0.1454  0.2884 -0.0028
  915YOPE   GL212454   8.166  11.535   6.192  0.0003 -0.1724  0.1347
  915YOPE   C1A12455   7.845  11.653   6.530 -0.2738 -0.1707  0.1125
  915YOPE   D2A12456   8.051  11.768   6.898  0.1539  0.1309  0.1154
  915YOPE   C3A12457   7.768  11.758   7.203  0.1480 -0.0731  0.1893
  915YOPE   C4A12458   7.513  11.737   7.607 -0.1327 -0.1435  0.1061
  915YOPE   C1B12459   8.384  11.961   6.467  0.0126  0.0769 -0.2571
  915YOPE   C2B12460   8.426  12.225   6.800 -0.2522  0.2349  0.2610
  915YOPE   D3B12461   8.316  12.181   7.159  0.1388  0.3119  0.2656
  915YOPE   C4B12462   8.268  11.746   7.345 -0.1106 -0.3487  0.2326
  916YOPE   NH312463   8.937  13.670   5.510  0.2065  0.3481 -0.2049
  916YOPE   PO412464   9.068  13.675   5.982 -0.2108 -0.1025 -0.0199
  916YOPE   GL112465   8.930  13.703   6.359  0.1841 -0.0512  0.3539
  916YOPE   GL212466   9.234  13.614   6.400  0.2557  0.0417 -0.2835
  916YOPE   C1A12467   8.897  13.579   6.738  0.0003 -0.2338  0.0158
  916YOPE   D2A12468   8.709  13.436   7.072  0.1881 -0.1779  0.0921
  916YOPE   C3A12469   8.781  13.399   7.373  0.3265 -0.1326  0.1990
  916YOPE   C4A12470   8.497  13.282   7.717 -0.0859  0.2775 -0.0034
  916YOPE   C1B12471   9.437  13.395   6.822 -0.0735 -0.2700  0.0384
  916YOPE   C2B12472   9.205  13.258   7.077  0.0457  0.2244 -0.0325
  916YOPE   D3B12473   9.310  13.356   7.486 -0.2501 -0.1130  0.1627
  916YOPE   C4B12474   9.628  13.273   7.742 -0.1719  0.1274  0.3437
  917YOPE   NH312475   5.177   7.241   4.857 -0.0659 -0.1858  0.2916
  917YOPE   PO412476   5.309   7.465   5.208 -0.3023  0.2149  0.0975
  917YOPE   GL112477   5.468   7.547   5.633  0.2300  0.4720  0.0297
  917YOPE   GL212478   5.437   7.866   5.721 -0.1818  0.2406  0.1875
  917YOPE   C1A12479   5.527   7.251   5.967 -0.2513  0.1410 -0.1193
  917YOPE   D2A12480   5.542   7.029   6.289  0.0484  0.3524  0.0372
  917YOPE   C3A12481   5.352   7.331   6.521  0.0408  0.2490  0.2362
  917YOPE   C4A12482   5.383   7.695   6.764  0.2001 -0.0278 -0.2968
  917YOPE   C1B12483   5.536   7.711   6.164 -0.0746  0.1862  0.0755
  917YOPE   C2B12484   5.811   7.507   6.508 -0.0183 -0.1430  0.0328
  917YOPE   D3B12485   6.029   7.138   6.551 -0.3277  0.2289 -0.1109
  917YOPE   C4B12486   6.247   6.759   6.514 -0.1683  0.1544  0.2317
  918YOPE   NH312487   7.112  10.527   6.015  0.1503  0.2343  0.3302
  918YOPE   PO412488   7.506  10.292   5.752  0.0469 -0.1739  0.0826
  918YOPE   GL112489   7.643  10.151   6.182 -0.2338 -0.1817  0.1265
  918YOPE   GL212490   7.941  10.296   6.321 -0.1642 -0.2953  0.1858
  918YOPE   C1A12491   7.492   9.813   6.499  0.3512  0.1872 -0.1720
  918YOPE   D2A12492   7.449   9.705   6.848 -0.0953  0.0757 -0.1292
  918YOPE   C3A12493   7.388   9.331   6.922 -0.2847  0.1568 -0.0363
  918YOPE   C4A12494   7.427   9.053   7.257  0.1309 -0.2279  0.1259
  918YOPE   C1B12495   7.608  10.297   6.622 -0.2314  0.1967 -0.1494
  918YOPE   C2B12496   7.261  10.504   6.924  0.1157 -0.2489  0.1096
  918YOPE   D3B12497   7.063  10.877   6.958  0.0460  0.0772 -0.0995
  918YOPE   C4B12498   7.183  11.126   7.300  0.0264 -0.0958  0.4730
  919YOPE   NH312499   8.353  11.828   5.844 -0.0687  0.3766  0.1955
  919YOPE   PO412500   8.264  11.429   5.633  0.0754  0.3597 -0.1514
  919YOPE   GL112501   8.460  11.253   5.962 -0.3520  0.0714  0.0766
  919YOPE   GL212502   8.346  11.046   6.196  0.4229 -0.1796 -0.2540
  919YOPE   C1A12503   8.686  11.505   6.300 -0.0974 -0.0079 -0.1455
  919YOPE   D2A12504   9.015  11.672   6.615  0.1387 -0.0321  0.3058
  919YOPE   C3A12505   9.301  11.977   6.735 -0.1191  0.1113  0.0610
  919YOPE   C4A12506   9.293  12.173   7.131  0.2902 -0.1881 -0.2449
  919YOPE   C1B12507   8.674  11.077   6.466  0.1329  0.4206 -0.4331
  919YOPE   C2B12508   8.721  11.181   6.874 -0.2639  0.0429  0.1222
  919YOPE   D3B12509   9.089  11.290   7.079 -0.0415  0.1310  0.0893
  919YOPE   C4B12510   9.376  11.570   7.099 -0.3012  0.1791  0.2385
  920YOPE   NH312511   7.685   3.488   5.612  0.2724 -0.0586  0.1264
  920YOPE   PO412512   7.377   3.725   5.406  0.1725 -0.2005  0.0920
  920YOPE   GL112513   7.457   3.932   5.799  0.1830  0.2266  0.2287
  920YOPE   GL212514   7.870   3.887   5.925  0.1605 -0.2698  0.2030
  920YOPE   C1A12515   7.432   3.761   6.233  0.2357 -0.4734 -0.5123
  920YOPE   D2A12516   7.477   3.755   6.657 -0.1751 -0.2237  0.1996
  920YOPE   C3A12517   7.211   3.397   6.935 -0.2311  0.0759  0.0757
  920YOPE   C4A12518   7.142   2.914   6.835 -0.1037  0.0725 -0.2867
  920YOPE   C1B12519   8.014   3.795   6.364 -0.1295 -0.2224 -0.0645
  920YOPE   C2B12520   7.934   3.815   6.834  0.4499 -0.0073  0.0873
  920YOPE   D3B12521   8.062   4.000   7.296 -0.1491  0.2699 -0.2383
  920YOPE   C4B12522   7.799   4.014   7.614 -0.2706 -0.1958 -0.1841
  921YOPE   NH312523  15.218  17.548   5.444 -0.2547  0.0671 -0.4666
  921YOPE   PO412524  15.114  17.180   5.625  0.2854  0.0126 -0.1690
  921YOPE   GL112525  15.155  17.425   5.985 -0.1289  0.5182  0.2725
  921YOPE   GL212526  14.972  17.717   5.876 -0.1538  0.0134 -0.0605
  921YOPE   C1A12527  15.037  17.218   6.408  0.0747  0.1418 -0.1055
  921YOPE   D2A12528  14.750  17.260   6.711  0.1790 -0.0635 -0.2161
  921YOPE   C3A12529  14.827  17.657   7.012  0.2075 -0.2699  0.1158
  921YOPE   C4A12530  14.925  17.690   7.383  0.0883  0.4437 -0.4383
  921YOPE   C1B12531  15.110  18.033   6.194  0.2550 -0.5833  0.2203
  921YOPE   C2B12532  15.196  18.153   6.631  0.2118  0.1166  0.1345
  921YOPE   D3B12533  15.427  17.991   6.983 -0.3928 -0.0679  0.0331
  921YOPE   C4B12534  15.410  17.735   7.381 -0.0893  0.0955  0.1716
  922YOPE   NH312535   1.560  18.280   5.847  0.1439 -0.2515  0.0860
  922YOPE   PO412536   1.911  18.370   5.771 -0.0708 -0.1267  0.1287
  922YOPE   GL112537   2.074  18.123   6.054  0.1662  0.3669 -0.0776
  922YOPE   GL212538   2.305  17.969   5.919 -0.0473 -0.1597  0.1636
  922YOPE   C1A12539   1.988  18.073   6.428 -0.3654  0.1231  0.1497
  922YOPE   D2A12540   1.937  18.243   6.755 -0.0827  0.3284  0.0170
  922YOPE   C3A12541   2.225  18.194   6.981 -0.0663  0.0474  0.0106
  922YOPE   C4A12542   2.570  18.149   7.317 -0.0825 -0.0850 -0.1712
  922YOPE   C1B12543   2.478  18.028   6.405  0.0081  0.0971  0.0299
  922YOPE   C2B12544   2.726  18.012   6.826  0.1463 -0.0972  0.1262
  922YOPE   D3B12545   2.804  17.717   7.190  0.2303  0.3320  0.1188
  922YOPE   C4B12546   3.009  17.659   7.567 -0.3962 -0.2640  0.0621
  923YOPE   NH312547   6.942   3.761   5.675  0.2751  0.1880  0.0292
  923YOPE   PO412548   6.676   4.094   5.664 -0.4059  0.0167 -0.1550
  923YOPE   GL112549   6.560   4.288   6.076 -0.0437 -0.1208  0.3429
  923YOPE   GL212550   6.558   4.501   5.942 -0.0799  0.2070  0.0159
  923YOPE   C1A12551   6.513   4.054   6.443 -0.0379  0.3730  0.2164
  923YOPE   D2A12552   6.539   4.072   6.951 -0.0583 -0.2031 -0.3106
  923YOPE   C3A12553   6.562   4.185   7.419 -0.2450 -0.1288  0.2522
  923YOPE   C4A12554   6.774   4.522   7.608 -0.0610 -0.3412 -0.0972
  923YOPE   C1B12555   6.648   4.685   6.278  0.0148  0.5661 -0.2026
  923YOPE   C2B12556   6.701   4.476   6.665 -0.0425  0.0673 -0.0735
  923YOPE   D3B12557   6.894   4.356   7.130 -0.0971  0.0808 -0.0130
  923YOPE   C4B12558   7.237   4.474   7.298  0.1160  0.3589 -0.0095
  924YOPE   NH312559   2.565  17.808   5.162 -0.0226 -0.2045  0.0017
  924YOPE   PO412560   2.282  17.593   5.467 -0.3518 -0.2424 -0.0493
  924YOPE   GL112561   2.354  17.443   5.829 -0.2168 -0.0394  0.1114
  924YOPE   GL212562   2.185  17.132   5.874 -0.3434 -0.1974  0.0559
  924YOPE   C1A12563   2.647  17.578   6.257 -0.2282 -0.1639 -0.0766
  924YOPE   D2A12564   2.753  17.538   6.715  0.0353 -0.0999 -0.2585
  924YOPE   C3A12565   2.667  17.114   6.902 -0.2849  0.0925  0.2167
  924YOPE   C4A12566   2.710  16.659   6.932  0.2402  0.1157 -0.2495
  924YOPE   C1B12567   2.269  17.122   6.310 -0.0784 -0.1101 -0.3723
  924YOPE   C2B12568   2.227  16.990   6.734 -0.2780 -0.0095  0.1248
  924YOPE   D3B12569   2.311  16.995   7.163  0.2384  0.1577 -0.0237
  924YOPE   C4B12570   2.479  17.089   7.548 -0.1008 -0.1530 -0.1187
  925YOPE   NH312571   5.082  15.104   5.538  0.0860 -0.2402 -0.1362
  925YOPE   PO412572   5.211  15.532   5.645  0.1908 -0.3057  0.0501
  925YOPE   GL112573   5.239  15.370   6.013 -0.1750 -0.2251  0.2076
  925YOPE   GL212574   4.989  15.183   6.099  0.0038  0.4692  0.0524
  925YOPE   C1A12575   5.254  15.436   6.497  0.1678 -0.0072  0.1978
  925YOPE   D2A12576   4.933  15.441   6.832 -0.0786 -0.1002  0.0311
  925YOPE   C3A12577   4.819  15.503   7.249  0.2336 -0.0013  0.1730
  925YOPE   C4A12578   4.705  15.851   7.515 -0.1549 -0.2259 -0.1221
  925YOPE   C1B12579   4.989  15.034   6.529  0.1170 -0.4442  0.0201
  925YOPE   C2B12580   4.866  14.975   7.034 -0.0092 -0.2741 -0.2110
  925YOPE   D3B12581   5.176  15.138   7.328  0.2786  0.2764 -0.0631
  925YOPE   C4B12582   5.546  15.269   7.495 -0.1754  0.3161 -0.1044
  926YOPE   NH312583   8.151   5.723   5.217 -0.0614 -0.2630 -0.1138
  926YOPE   PO412584   8.437   5.648   5.190 -0.4157 -0.0966 -0.0192
  926YOPE   GL112585   8.634   5.867   5.570  0.1879 -0.2393  0.1782
  926YOPE   GL212586   8.977   5.969   5.626  0.1938 -0.0132  0.0191
  926YOPE   C1A12587   8.512   5.868   5.897 -0.3352  0.0245 -0.0227
  926YOPE   D2A12588   8.440   5.904   6.332  0.0804  0.3901  0.2568
  926YOPE   C3A12589   8.143   5.782   6.571  0.2366 -0.0427 -0.1519
  926YOPE   C4A12590   8.052   5.709   6.963 -0.1299  0.0961  0.0348
  926YOPE   C1B12591   9.244   6.162   5.943  0.1761  0.1327  0.0968
  926YOPE   C2B12592   9.315   6.460   6.385 -0.0264 -0.2675  0.0976
  926YOPE   D3B12593   9.503   6.220   6.754  0.0045  0.1602 -0.4754
  926YOPE   C4B12594   9.714   6.105   7.230  0.3234 -0.1028  0.4427
  927YOPE   NH312595   5.051   3.648   5.412 -0.2585 -0.2869 -0.0383
  927YOPE   PO412596   4.951   3.271   5.592 -0.0115  0.0823  0.4089
  927YOPE   GL112597   5.100   3.259   6.033  0.0731 -0.2481  0.0218
  927YOPE   GL212598   5.253   3.352   6.230 -0.1622 -0.6119  0.0059
  927YOPE   C1A12599   4.916   2.996   6.454 -0.1085  0.0740 -0.1733
  927YOPE   D2A12600   4.519   2.804   6.719  0.1117 -0.1365  0.2968
  927YOPE   C3A12601   4.497   2.334   6.751 -0.1669  0.0355  0.1677
  927YOPE   C4A12602   4.332   2.040   6.931 -0.1768  0.1897 -0.4543
  927YOPE   C1B12603   5.143   3.366   6.623 -0.2430  0.1335  0.0776
  927YOPE   C2B12604   5.192   3.332   7.087 -0.0342 -0.1642 -0.0752
  927YOPE   D3B12605   5.226   3.471   7.462  0.1691  0.0944 -0.0404
  927YOPE   C4B12606   4.973   3.737   7.576  0.4159 -0.3756  0.1380
  928YOPE   NH312607  17.506  10.293   5.486 -0.0315 -0.1090  0.1633
  928YOPE   PO412608  17.944  10.044   5.379 -0.0989 -0.3150 -0.1524
  928YOPE   GL112609  17.791  10.002   5.802 -0.3990  0.5004  0.3516
  928YOPE   GL212610  17.761  10.393   5.931 -0.0361  0.0684  0.0925
  928YOPE   C1A12611  17.957  10.039   6.261  0.1065  0.0186  0.2051
  928YOPE   D2A12612  18.071   9.767   6.608 -0.1708  0.0858 -0.3391
  928YOPE   C3A12613  18.036   9.887   6.996 -0.5319  0.1532 -0.0164
  928YOPE   C4A12614  18.030   9.716   7.367 -0.1155  0.2665 -0.1464
  928YOPE   C1B12615  17.478  10.153   6.140  0.1401 -0.0389 -0.1193
  928YOPE   C2B12616  17.516  10.004   6.596 -0.1637 -0.3774  0.2445
  928YOPE   D3B12617  17.576   9.770   6.880 -0.3803  0.0707 -0.1046
  928YOPE   C4B12618  17.570   9.653   7.284 -0.0446 -0.0105  0.0512
  929YOPE   NH312619  12.962  17.535   5.788 -0.1531 -0.2047 -0.2155
  929YOPE   PO412620  13.435  17.609   5.709 -0.1127  0.0612 -0.1222
  929YOPE   GL112621  13.267  17.606   6.144 -0.0678  0.2393 -0.0624
  929YOPE   GL212622  13.249  17.369   6.165  0.4711  0.2142  0.0713
  929YOPE   C1A12623  13.329  17.473   6.607  0.0278 -0.2130 -0.3104
  929YOPE   D2A12624  13.204  17.657   6.980  0.1714 -0.0068 -0.0607
  929YOPE   C3A12625  13.623  17.746   7.187 -0.3841 -0.2233  0.1124
  929YOPE   C4A12626  13.960  17.961   7.386  0.3089 -0.1285 -0.0038
  929YOPE   C1B12627  13.707  17.713   6.317  0.3593 -0.3678  0.2486
  929YOPE   C2B12628  13.806  17.552   6.748  0.1406  0.1321 -0.1745
  929YOPE   D3B12629  14.118  17.523   7.090  0.1550 -0.2147  0.1724
  929YOPE   C4B12630  14.410  17.717   7.301 -0.0321 -0.0405 -0.0363
  930YOPE   NH312631   4.501  10.134   5.494  0.2013 -0.0310 -0.0428
  930YOPE   PO412632   4.221  10.350   5.668  0.3950  0.1929 -0.0392
  930YOPE   GL112633   4.293  10.683   6.004 -0.2266  0.1285 -0.0984
  930YOPE   GL212634   4.028  10.787   6.130  0.1885  0.0747  0.1653
  930YOPE   C1A12635   4.458  10.574   6.414  0.1796  0.2145 -0.2755
  930YOPE   D2A12636   4.677  10.720   6.763 -0.0558  0.2189  0.1084
  930YOPE   C3A12637   4.579  10.904   7.107  0.3951  0.0570  0.0514
  930YOPE   C4A12638   4.672  11.259   7.114  0.0413 -0.1895 -0.1464
  930YOPE   C1B12639   3.700  10.870   6.397  0.0884  0.0832  0.2379
  930YOPE   C2B12640   3.534  10.913   6.855  0.0015 -0.1010 -0.1813
  930YOPE   D3B12641   3.314  10.673   7.166  0.0847 -0.0106  0.2385
  930YOPE   C4B12642   2.994  10.917   7.255  0.1415  0.1245  0.2052
  931YOPE   NH312643   5.208   5.460   5.648  0.0867  0.0775  0.0900
  931YOPE   PO412644   5.507   5.695   5.635  0.0805 -0.0942  0.0964
  931YOPE   GL112645   5.745   5.970   5.871 -0.1017  0.0508 -0.1957
  931YOPE   GL212646   5.975   6.138   5.888  0.0826  0.3545 -0.0134
  931YOPE   C1A12647   5.558   6.045   6.331 -0.0230  0.2822 -0.0406
  931YOPE   D2A12648   5.660   5.945   6.784  0.1267 -0.0371  0.1823
  931YOPE   C3A12649   6.008   5.923   6.952 -0.1684 -0.2894  0.2566
  931YOPE   C4A12650   6.123   6.058   7.370  0.0227 -0.1684  0.0410
  931YOPE   C1B12651   6.121   6.119   6.265 -0.0822  0.0161  0.0879
  931YOPE   C2B12652   6.123   6.254   6.586  0.0520  0.3747  0.1807
  931YOPE   D3B12653   6.078   6.490   6.944  0.1296  0.2275 -0.1916
  931YOPE   C4B12654   6.241   6.718   7.296 -0.0834  0.1733 -0.4306
  932YOPE   NH312655   8.132  13.592   5.866  0.4238  0.3004  0.0038
  932YOPE   PO412656   8.540  13.713   5.903  0.3697  0.2523 -0.1918
  932YOPE   GL112657   8.431  13.644   6.310  0.0746  0.3074 -0.2959
  932YOPE   GL212658   8.005  13.715   6.375 -0.2337  0.1365  0.1163
  932YOPE   C1A12659   8.367  13.778   6.813  0.1643 -0.0885 -0.1194
  932YOPE   D2A12660   7.975  13.968   7.143 -0.4339 -0.1617  0.1360
  932YOPE   C3A12661   7.574  13.909   7.311 -0.0175 -0.2095 -0.0266
  932YOPE   C4A12662   7.097  14.048   7.320  0.3831  0.3126 -0.0253
  932YOPE   C1B12663   8.050  13.405   6.673 -0.3106 -0.0565 -0.0552
  932YOPE   C2B12664   8.185  13.233   7.009  0.0936  0.4251 -0.1976
  932YOPE   D3B12665   8.106  13.420   7.478  0.0808 -0.0502  0.2246
  932YOPE   C4B12666   7.929  13.638   7.551 -0.1432  0.2700 -0.3205
  933YOPE   NH312667   4.744  10.702   5.721  0.0194 -0.0107  0.0128
  933YOPE   PO412668   4.900  10.376   5.315 -0.0547 -0.1828  0.1820
  933YOPE   GL112669   4.898  10.226   5.804 -0.0055  0.1237  0.0295
  933YOPE   GL212670   5.186  10.392   5.940 -0.2289 -0.0628  0.1783
  933YOPE   C1A12671   4.797  10.278   6.289  0.2365 -0.1339  0.1870
  933YOPE   D2A12672   4.698  10.214   6.760  0.1916 -0.3139  0.3452
  933YOPE   C3A12673   4.685  10.437   7.227  0.1338 -0.1127  0.0124
  933YOPE   C4A12674   4.779  10.698   7.566  0.1634 -0.4592  0.0326
  933YOPE   C1B12675   5.306  10.403   6.374 -0.1686 -0.5346  0.2236
  933YOPE   C2B12676   5.125  10.495   6.695  0.1031  0.3120 -0.3406
  933YOPE   D3B12677   5.196  10.339   7.101 -0.1165 -0.1029 -0.0508
  933YOPE   C4B12678   5.416  10.098   7.259 -0.0456  0.2284  0.0277
  934YOPE   NH312679  14.364   8.794   5.328  0.0409  0.0466  0.1266
  934YOPE   PO412680  14.549   8.290   5.580 -0.3079 -0.1719  0.1224
  934YOPE   GL112681  14.524   8.275   5.978 -0.4305  0.1803  0.1087
  934YOPE   GL212682  14.683   8.010   6.187  0.1458 -0.0753 -0.4496
  934YOPE   C1A12683  14.207   8.502   6.146  0.0791  0.2451  0.1614
  934YOPE   D2A12684  13.798   8.501   6.323 -0.0776  0.3586  0.1864
  934YOPE   C3A12685  13.543   8.043   6.354 -0.1042  0.3108  0.1408
  934YOPE   C4A12686  13.347   7.658   6.280 -0.3151  0.4278 -0.3418
  934YOPE   C1B12687  14.893   8.166   6.540 -0.1590 -0.0038 -0.0304
  934YOPE   C2B12688  15.201   8.310   6.820  0.0507  0.0343 -0.4686
  934YOPE   D3B12689  15.317   8.569   7.165  0.1145  0.1493  0.1735
  934YOPE   C4B12690  15.211   8.833   7.471  0.0516 -0.1485  0.1818
  935YOPE   NH312691   2.096   9.901   5.639 -0.0416 -0.0397 -0.1784
  935YOPE   PO412692   2.522   9.782   5.681 -0.0145 -0.1596  0.1353
  935YOPE   GL112693   2.318   9.598   6.037 -0.0204 -0.0958  0.0389
  935YOPE   GL212694   1.903   9.380   5.937 -0.0593 -0.0070  0.5446
  935YOPE   C1A12695   2.395   9.705   6.437  0.3340 -0.1608  0.1192
  935YOPE   D2A12696   2.379   9.618   6.894  0.0137 -0.0137  0.0142
  935YOPE   C3A12697   2.317   9.920   7.216  0.1528 -0.0697 -0.0902
  935YOPE   C4A12698   2.523  10.095   7.578 -0.1378  0.2294  0.0059
  935YOPE   C1B12699   1.926   9.490   6.233  0.2008 -0.2593 -0.2172
  935YOPE   C2B12700   1.917   9.652   6.627 -0.2676 -0.1430  0.0207
  935YOPE   D3B12701   1.836   9.915   6.959  0.2925  0.0551 -0.0138
  935YOPE   C4B12702   1.816   9.995   7.337  0.1896 -0.3090 -0.1792
  936YOPE   NH312703  18.449  17.216   5.766 -0.0170 -0.0828 -0.0066
  936YOPE   PO412704  18.857  17.605   5.862  0.2511 -0.0192 -0.1008
  936YOPE   GL112705  18.587  17.700   6.250  0.1244 -0.0512  0.2178
  936YOPE   GL212706  18.412  17.426   6.244  0.1648 -0.0482 -0.4336
  936YOPE   C1A12707  18.381  17.827   6.643  0.1120  0.0298 -0.4182
  936YOPE   D2A12708  18.583  18.168   6.859 -0.3898 -0.0871 -0.0042
  936YOPE   C3A12709  18.696  18.291   7.277  0.0726  0.1183 -0.0645
  936YOPE   C4A12710  18.679  18.418   7.683 -0.0855 -0.0605 -0.0876
  936YOPE   C1B12711  18.605  17.218   6.679  0.2383 -0.2287  0.0998
  936YOPE   C2B12712  18.620  17.017   7.122  0.5129  0.0836  0.1508
  936YOPE   D3B12713  18.770  17.114   7.502 -0.1274  0.1677  0.0838
  936YOPE   C4B12714  18.791  17.310   7.952  0.0361  0.2284 -0.1257
  937YOPE   NH312715   8.396   2.157   5.655  0.2551 -0.1654 -0.2107
  937YOPE   PO412716   8.767   2.196   5.859 -0.1673  0.2753  0.0923
  937YOPE   GL112717   8.894   2.539   6.163  0.0181  0.0341  0.0205
  937YOPE   GL212718   9.013   2.888   6.010 -0.0988 -0.0342  0.0128
  937YOPE   C1A12719   8.942   2.733   6.575  0.1227 -0.2519 -0.0428
  937YOPE   D2A12720   9.106   2.779   7.000  0.4342 -0.0519  0.0498
  937YOPE   C3A12721   9.148   3.163   7.257  0.2103 -0.0198 -0.1445
  937YOPE   C4A12722   8.966   3.617   7.342  0.2692 -0.5933 -0.3482
  937YOPE   C1B12723   9.299   3.043   6.254 -0.0579  0.1150  0.1631
  937YOPE   C2B12724   9.462   3.434   6.389  0.0896  0.2359  0.2529
  937YOPE   D3B12725   9.418   3.717   6.592 -0.0917  0.0611 -0.1595
  937YOPE   C4B12726   9.096   3.900   6.852 -0.0206  0.1866 -0.0718
  938YOPE   NH312727   0.570   0.741   5.538  0.2734  0.1957  0.1719
  938YOPE   PO412728   0.179   1.037   5.316 -0.1503  0.3371  0.1495
  938YOPE   GL112729   0.117   1.101   5.811  0.2632 -0.0408 -0.0721
  938YOPE   GL212730  -0.166   0.859   5.920  0.1166  0.2225  0.1933
  938YOPE   C1A12731   0.185   1.062   6.282  0.0362 -0.0131  0.0329
  938YOPE   D2A12732   0.342   1.010   6.764  0.1619 -0.5282  0.3107
  938YOPE   C3A12733   0.059   0.711   6.931  0.1778 -0.0466  0.0979
  938YOPE   C4A12734  -0.202   0.246   7.103 -0.3022 -0.0932  0.1103
  938YOPE   C1B12735  -0.437   0.717   6.222  0.0181  0.1922  0.2474
  938YOPE   C2B12736  -0.720   0.612   6.495 -0.1425 -0.3810 -0.0381
  938YOPE   D3B12737  -1.008   0.647   6.781  0.0414 -0.3752  0.2781
  938YOPE   C4B12738  -1.134   0.841   7.148  0.2090  0.0208  0.0448
  939YOPE   NH312739   4.456  17.537   5.047 -0.0666  0.0299 -0.0618
  939YOPE   PO412740   4.585  17.446   5.446 -0.0622  0.2089 -0.0151
  939YOPE   GL112741   4.617  17.122   5.823  0.0067  0.0420 -0.1848
  939YOPE   GL212742   4.822  17.123   6.076  0.1214 -0.1580 -0.2454
  939YOPE   C1A12743   4.263  16.832   6.071 -0.4955  0.0287 -0.2500
  939YOPE   D2A12744   4.188  16.545   6.358  0.0043 -0.2785 -0.1276
  939YOPE   C3A12745   4.131  16.771   6.655  0.1310 -0.0326  0.1947
  939YOPE   C4A12746   4.102  16.931   7.071 -0.0008  0.0343 -0.3054
  939YOPE   C1B12747   4.573  16.914   6.465 -0.1225  0.0376  0.1035
  939YOPE   C2B12748   4.442  17.111   6.846 -0.0134 -0.0910  0.0124
  939YOPE   D3B12749   4.267  17.358   7.185  0.4325  0.1234 -0.2070
  939YOPE   C4B12750   4.112  17.168   7.575  0.2445 -0.2989  0.1523
  940YOPE   NH312751  17.293  12.033   5.616  0.0501  0.1347 -0.2659
  940YOPE   PO412752  16.948  11.859   5.512 -0.1453 -0.0385  0.0901
  940YOPE   GL112753  17.038  11.596   5.879  0.1602 -0.0722 -0.0770
  940YOPE   GL212754  17.310  11.563   5.915  0.2726 -0.3834  0.1114
  940YOPE   C1A12755  17.037  11.699   6.323  0.1496 -0.1020  0.3088
  940YOPE   D2A12756  17.090  11.668   6.673 -0.1402 -0.2422  0.0234
  940YOPE   C3A12757  16.740  11.699   7.040  0.2433  0.0501  0.3602
  940YOPE   C4A12758  16.494  11.882   7.245 -0.0315  0.0475  0.0233
  940YOPE   C1B12759  17.420  11.376   6.323  0.1417 -0.2484 -0.3152
  940YOPE   C2B12760  17.549  11.055   6.619  0.0779  0.3509 -0.0916
  940YOPE   D3B12761  17.848  10.757   6.766 -0.0513  0.0751 -0.3495
  940YOPE   C4B12762  18.110  10.792   7.265  0.1327 -0.1643 -0.2873
  941YOPE   NH312763  14.162  10.746   5.332  0.2672  0.0654 -0.2283
  941YOPE   PO412764  13.817  10.505   5.387  0.1269  0.0568  0.1184
  941YOPE   GL112765  13.656  10.592   5.694  0.0919  0.2711  0.2290
  941YOPE   GL212766  13.872  10.796   5.827  0.2226  0.1052 -0.0156
  941YOPE   C1A12767  13.578  10.677   6.243  0.1348 -0.2690 -0.3412
  941YOPE   D2A12768  13.583  10.523   6.656 -0.0617  0.1462 -0.0176
  941YOPE   C3A12769  13.856  10.305   6.871 -0.0758  0.0737 -0.1144
  941YOPE   C4A12770  14.012   9.899   6.840  0.1765  0.2599 -0.2532
  941YOPE   C1B12771  13.920  11.008   6.194 -0.3296  0.1190 -0.0060
  941YOPE   C2B12772  13.911  10.909   6.675  0.0214 -0.0129  0.4445
  941YOPE   D3B12773  13.987  11.184   7.022 -0.2132 -0.4212  0.2643
  941YOPE   C4B12774  13.922  11.592   7.067  0.4800 -0.1397 -0.2828
  942POPC   NC312775   7.759   1.308   5.602 -0.2831  0.0128 -0.1673
  942POPC   PO412776   7.551   1.569   5.865  0.1765 -0.2533  0.0692
  942POPC   GL112777   7.486   1.272   6.156 -0.0940  0.0112 -0.1303
  942POPC   GL212778   7.198   1.263   6.191 -0.1642 -0.1341  0.1921
  942POPC   C1A12779   7.452   1.203   6.591 -0.2648 -0.0786  0.0147
  942POPC   D2A12780   7.317   1.440   6.926  0.0205 -0.0649  0.2545
  942POPC   C3A12781   6.854   1.228   7.138 -0.0920 -0.3252  0.0078
  942POPC   C4A12782   6.814   0.860   7.281 -0.1587 -0.0355 -0.0377
  942POPC   C1B12783   7.242   1.659   6.469 -0.1050  0.3607  0.0138
  942POPC   C2B12784   7.004   1.896   6.849 -0.4663 -0.2697 -0.2687
  942POPC   C3B12785   7.165   2.035   7.245  0.0948 -0.2845  0.1549
  942POPC   C4B12786   7.229   1.967   7.688 -0.0362  0.0020 -0.1516
  943POPC   NC312787  16.391  18.615   5.551  0.0480 -0.0850 -0.0405
  943POPC   PO412788  16.859  18.460   5.704 -0.0247  0.1261  0.1548
  943POPC   GL112789  16.946  18.508   6.118  0.3731 -0.0181 -0.3735
  943POPC   GL212790  16.954  18.816   6.161  0.1196  0.1730  0.2109
  943POPC   C1A12791  17.165  18.418   6.491  0.0245  0.1161  0.1579
  943POPC   D2A12792  17.493  18.461   6.760  0.3142 -0.2085 -0.2197
  943POPC   C3A12793  17.443  18.311   7.119 -0.1784 -0.1877 -0.0240
  943POPC   C4A12794  17.375  18.200   7.636 -0.4566  0.1893 -0.0836
  943POPC   C1B12795  17.198  18.920   6.490  0.1777 -0.2853 -0.2509
  943POPC   C2B12796  17.190  18.970   6.896 -0.0754 -0.0531  0.0482
  943POPC   C3B12797  16.828  19.190   7.191  0.3269 -0.0978 -0.0827
  943POPC   C4B12798  16.498  19.354   7.526  0.1516 -0.0874 -0.1869
  944POPC   NC312799  12.807  10.838   5.408  0.1754  0.1646  0.2734
  944POPC   PO412800  12.448  10.782   5.181 -0.1135  0.0364  0.0765
  944POPC   GL112801  12.345  10.745   5.636 -0.1512 -0.1180  0.0219
  944POPC   GL212802  12.370  10.405   5.671 -0.0917  0.0735  0.0241
  944POPC   C1A12803  12.073  10.525   6.066  0.2509 -0.1845 -0.0263
  944POPC   D2A12804  11.861  10.456   6.431  0.3269  0.0729  0.2885
  944POPC   C3A12805  11.546  10.103   6.497  0.0024  0.1318  0.1064
  944POPC   C4A12806  11.260  10.127   6.836  0.4338 -0.1464  0.4542
  944POPC   C1B12807  12.528  10.362   6.105 -0.0686 -0.1017 -0.0297
  944POPC   C2B12808  12.736  10.227   6.401 -0.0633  0.2004 -0.1999
  944POPC   C3B12809  12.825   9.899   6.835 -0.0208 -0.2311  0.0888
  944POPC   C4B12810  13.200   9.891   7.135 -0.2610 -0.0858  0.2111
  945POPC   NC312811  13.035  15.080   5.527  0.0439 -0.0855 -0.2695
  945POPC   PO412812  13.465  15.358   5.508  0.1239  0.0010  0.5379
  945POPC   GL112813  13.475  15.450   5.896  0.1224  0.0057 -0.0004
  945POPC   GL212814  13.230  15.560   6.063 -0.0353  0.0667  0.3711
  945POPC   C1A12815  13.644  15.310   6.235  0.3172 -0.0587  0.0178
  945POPC   D2A12816  13.715  15.309   6.703 -0.0949 -0.3318  0.0969
  945POPC   C3A12817  13.956  15.069   6.806  0.0460  0.0739  0.0324
  945POPC   C4A12818  14.258  14.872   7.114  0.0283 -0.2193  0.1593
  945POPC   C1B12819  13.299  15.526   6.490  0.5346 -0.1142  0.0193
  945POPC   C2B12820  13.340  15.499   6.881 -0.0597  0.1591  0.2705
  945POPC   C3B12821  13.653  15.551   7.267 -0.0896  0.1449  0.0343
  945POPC   C4B12822  13.997  15.355   7.426  0.1459  0.1488 -0.0371
  946POPC   NC312823   4.881   9.408   5.124 -0.0413 -0.3242 -0.1809
  946POPC   PO412824   5.080   9.101   5.325 -0.0747  0.4677  0.0578
  946POPC   GL112825   4.964   9.136   5.766 -0.0213  0.2775 -0.3113
  946POPC   GL212826   4.633   9.229   5.898  0.1127  0.2528 -0.0584
  946POPC   C1A12827   4.883   8.719   6.166  0.2197  0.0378 -0.1468
  946POPC   D2A12828   4.906   8.717   6.614  0.0221  0.5602 -0.0014
  946POPC   C3A12829   4.737   9.067   6.989 -0.0283 -0.1697 -0.0325
  946POPC   C4A12830   4.363   9.088   7.193  0.0953 -0.0260 -0.0349
  946POPC   C1B12831   4.586   9.157   6.265 -0.2638  0.1225 -0.1878
  946POPC   C2B12832   4.453   9.241   6.630 -0.4087 -0.1660  0.1074
  946POPC   C3B12833   4.240   9.598   6.792 -0.1061 -0.1985  0.1195
  946POPC   C4B12834   3.976   9.950   6.865  0.1919  0.1794  0.1127
  947POPC   NC312835  14.707  18.123   5.403 -0.0135  0.1311 -0.1878
  947POPC   PO412836  14.420  17.877   5.231 -0.2089 -0.0654  0.1034
  947POPC   GL112837  14.346  17.734   5.677  0.2881  0.1707  0.0050
  947POPC   GL212838  14.403  17.899   5.993 -0.0521 -0.1921 -0.0604
  947POPC   C1A12839  14.074  17.509   6.065  0.0419 -0.0021  0.1167
  947POPC   D2A12840  13.808  17.215   6.206  0.0329  0.0480  0.0285
  947POPC   C3A12841  13.668  17.084   6.632  0.4936  0.1926  0.4140
  947POPC   C4A12842  13.587  17.055   7.004  0.2657 -0.2467  0.3669
  947POPC   C1B12843  14.206  17.995   6.384  0.4047 -0.3078  0.2297
  947POPC   C2B12844  13.803  18.122   6.592 -0.1908 -0.0550  0.1061
  947POPC   C3B12845  13.289  18.109   6.667 -0.0929 -0.0143 -0.2010
  947POPC   C4B12846  12.915  18.081   6.847 -0.0702 -0.3835 -0.1002
  948POPC   NC312847   9.714  14.087   5.804 -0.0161  0.0726  0.3000
  948POPC   PO412848   9.272  14.071   5.789  0.1304 -0.0306 -0.1111
  948POPC   GL112849   9.209  14.136   6.266  0.1030  0.1941 -0.2642
  948POPC   GL212850   9.049  14.358   6.442  0.0594 -0.1137 -0.2049
  948POPC   C1A12851   9.256  13.914   6.788  0.1922 -0.1485 -0.0722
  948POPC   D2A12852   9.170  13.782   7.203 -0.0329  0.0684 -0.1801
  948POPC   C3A12853   8.978  13.995   7.481  0.3122  0.1438 -0.4119
  948POPC   C4A12854   8.717  14.086   7.894 -0.0467 -0.2595  0.0833
  948POPC   C1B12855   8.758  14.302   6.708  0.0682  0.0308 -0.1609
  948POPC   C2B12856   8.587  14.139   7.105  0.1799 -0.0681  0.0444
  948POPC   C3B12857   8.490  13.770   7.340  0.0163 -0.2008  0.0141
  948POPC   C4B12858   8.358  13.762   7.787  0.1726 -0.1996 -0.2144
  949POPC   NC312859   7.985   2.949   5.954  0.3599 -0.0144 -0.0981
  949POPC   PO412860   7.855   2.530   5.749  0.0411  0.0690  0.0056
  949POPC   GL112861   7.939   2.190   5.993 -0.0131  0.0984  0.0674
  949POPC   GL212862   8.281   2.082   6.109 -0.4681  0.1564  0.2065
  949POPC   C1A12863   7.942   2.093   6.466  0.3538  0.1006 -0.3570
  949POPC   D2A12864   7.868   2.407   6.654 -0.0116 -0.1503  0.2454
  949POPC   C3A12865   7.960   2.493   7.122  0.1694  0.3073  0.2500
  949POPC   C4A12866   8.056   2.569   7.531 -0.0627  0.3999  0.1985
  949POPC   C1B12867   8.441   2.376   6.413  0.0749 -0.1535  0.0574
  949POPC   C2B12868   8.372   2.598   6.877  0.2387  0.3371 -0.0766
  949POPC   C3B12869   8.640   2.712   7.173 -0.2565 -0.0077  0.3168
  949POPC   C4B12870   8.876   2.814   7.505  0.2792 -0.2200  0.2907
  950POPC   NC312871  12.736  18.007   5.086 -0.0961 -0.0013 -0.2681
  950POPC   PO412872  12.561  17.665   5.487 -0.3997 -0.0522 -0.0440
  950POPC   GL112873  12.448  17.745   5.863  0.0595 -0.1052  0.1839
  950POPC   GL212874  12.212  17.488   5.942 -0.2262  0.0464  0.1868
  950POPC   C1A12875  12.453  17.759   6.345 -0.0074 -0.0729 -0.0034
  950POPC   D2A12876  12.524  18.239   6.582  0.2067 -0.0102 -0.1538
  950POPC   C3A12877  12.447  18.316   6.985 -0.1510  0.2168  0.0104
  950POPC   C4A12878  12.661  17.971   7.245 -0.0738  0.0113  0.0464
  950POPC   C1B12879  12.262  17.365   6.454 -0.0956  0.2703  0.3870
  950POPC   C2B12880  12.321  17.265   6.824  0.2153  0.1211 -0.1695
  950POPC   C3B12881  12.057  17.200   7.220  0.1176 -0.0217  0.2096
  950POPC   C4B12882  11.773  17.087   7.485 -0.1915 -0.2173 -0.1609
  951POPC   NC312883  10.604   5.735   4.663  0.0264 -0.1628  0.3124
  951POPC   PO412884  10.534   5.631   5.104 -0.1761  0.0938 -0.0832
  951POPC   GL112885  10.371   5.501   5.558 -0.0574 -0.2316  0.0762
  951POPC   GL212886   9.909   5.485   5.680  0.2603  0.1382  0.0821
  951POPC   C1A12887  10.375   5.319   6.021 -0.1770 -0.0710 -0.4213
  951POPC   D2A12888  10.243   5.117   6.361 -0.1426  0.0956 -0.0805
  951POPC   C3A12889  10.389   5.345   6.696  0.0547  0.0133  0.2038
  951POPC   C4A12890  10.647   5.263   6.920 -0.1343 -0.1377 -0.3330
  951POPC   C1B12891  10.091   5.688   5.919 -0.0641  0.0289  0.1310
  951POPC   C2B12892  10.297   5.874   6.293  0.0469  0.2092  0.0415
  951POPC   C3B12893   9.950   6.095   6.526  0.1777 -0.1352  0.2281
  951POPC   C4B12894   9.958   6.488   6.687 -0.0336 -0.2053 -0.0632
  952POPC   NC312895  17.742  14.793   5.294 -0.0531  0.2910 -0.0953
  952POPC   PO412896  17.387  14.708   5.406  0.1142  0.0745  0.1023
  952POPC   GL112897  17.298  14.865   5.770  0.1758  0.4259 -0.0708
  952POPC   GL212898  17.170  14.522   5.863 -0.0791 -0.0458  0.0649
  952POPC   C1A12899  17.198  14.785   6.241 -0.0585  0.2928 -0.0458
  952POPC   D2A12900  17.236  14.499   6.597 -0.0626 -0.1405  0.2164
  952POPC   C3A12901  17.013  14.652   6.942  0.0662  0.0941 -0.0093
  952POPC   C4A12902  16.715  14.519   7.261 -0.0310 -0.0816  0.0083
  952POPC   C1B12903  17.116  14.179   6.265  0.0134 -0.1411  0.0529
  952POPC   C2B12904  17.206  14.041   6.755  0.1867  0.2082 -0.2478
  952POPC   C3B12905  17.357  13.673   6.821 -0.2090  0.2137  0.1303
  952POPC   C4B12906  17.434  13.277   6.843 -0.0421  0.2171  0.0524
  953POPC   NC312907  16.459   1.625   5.511 -0.2120  0.1829  0.3287
  953POPC   PO412908  16.120   1.882   5.127  0.0043  0.4324  0.0624
  953POPC   GL112909  16.190   1.994   5.636 -0.0204  0.1327 -0.0391
  953POPC   GL212910  15.977   2.305   5.716  0.3056  0.3185  0.0220
  953POPC   C1A12911  15.989   1.836   6.089  0.3299  0.2095  0.0374
  953POPC   D2A12912  15.974   1.456   6.384 -0.1461  0.1327 -0.0790
  953POPC   C3A12913  15.872   1.557   6.860  0.1399  0.1739  0.0189
  953POPC   C4A12914  16.029   1.524   7.242  0.1538 -0.0784  0.2098
  953POPC   C1B12915  15.925   2.693   5.886 -0.0932  0.2201  0.1004
  953POPC   C2B12916  16.137   3.124   5.981 -0.1388 -0.1356 -0.0175
  953POPC   C3B12917  16.078   3.552   5.915  0.1962  0.0721  0.3183
  953POPC   C4B12918  16.005   3.930   6.162  0.1437 -0.2710  0.2285
  954POPC   NC312919   5.698  17.396   5.759 -0.0919 -0.2186  0.0728
  954POPC   PO412920   5.517  17.761   5.748  0.1386  0.1540  0.1277
  954POPC   GL112921   5.265  17.902   6.091  0.0690 -0.2147 -0.0655
  954POPC   GL212922   5.604  18.108   6.162 -0.0119 -0.0601 -0.2779
  954POPC   C1A12923   5.275  18.003   6.545 -0.0283 -0.0530  0.0666
  954POPC   D2A12924   5.114  18.059   6.910  0.0048 -0.1357  0.1828
  954POPC   C3A12925   5.037  18.470   7.058 -0.0470  0.1073 -0.1722
  954POPC   C4A12926   4.645  18.685   7.146  0.1004 -0.1903  0.1446
  954POPC   C1B12927   5.761  18.191   6.595  0.0416 -0.1541 -0.1272
  954POPC   C2B12928   5.607  18.133   6.953  0.1192 -0.3008 -0.0225
  954POPC   C3B12929   5.708  17.971   7.292 -0.1257 -0.1605  0.2109
  954POPC   C4B12930   5.923  17.685   7.502 -0.3169 -0.2042 -0.4717
  955POPC   NC312931  17.198  16.304   5.140 -0.0103 -0.1528  0.2315
  955POPC   PO412932  17.140  16.598   5.552 -0.0941 -0.2160  0.1348
  955POPC   GL112933  17.136  16.579   6.029  0.2544  0.0059 -0.0298
  955POPC   GL212934  17.052  16.932   6.208  0.1909  0.0172  0.0998
  955POPC   C1A12935  16.946  16.362   6.280 -0.0761 -0.0769 -0.0521
  955POPC   D2A12936  16.891  16.361   6.685  0.2650 -0.2045 -0.1763
  955POPC   C3A12937  16.743  16.091   7.054 -0.2313 -0.0899 -0.1959
  955POPC   C4A12938  16.416  15.830   7.315  0.2744  0.2426  0.1038
  955POPC   C1B12939  17.221  16.734   6.533  0.1266 -0.0354 -0.3129
  955POPC   C2B12940  17.369  16.470   6.885 -0.1719  0.1872  0.0476
  955POPC   C3B12941  17.677  16.534   7.215  0.2038 -0.1171 -0.1168
  955POPC   C4B12942  17.766  16.788   7.542  0.0496 -0.1968  0.0614
  956POPC   NC312943   7.846   9.433   5.358  0.0168  0.0883 -0.1810
  956POPC   PO412944   7.548   9.294   5.666  0.0664 -0.3892  0.1000
  956POPC   GL112945   7.647   9.042   5.913 -0.0495  0.3470  0.1465
  956POPC   GL212946   7.518   8.727   6.012 -0.0025 -0.0246  0.1396
  956POPC   C1A12947   7.958   8.853   6.228 -0.0721 -0.0638 -0.1880
  956POPC   D2A12948   8.314   8.784   6.720  0.2139 -0.2428 -0.0388
  956POPC   C3A12949   8.269   8.921   7.115  0.0543 -0.1874 -0.2809
  956POPC   C4A12950   8.384   8.759   7.490  0.1467  0.1599 -0.0627
  956POPC   C1B12951   7.531   8.710   6.478  0.0958 -0.0119 -0.0884
  956POPC   C2B12952   7.400   8.685   6.898  0.0334  0.0164  0.2310
  956POPC   C3B12953   7.131   8.587   7.343 -0.1262 -0.1647 -0.0926
  956POPC   C4B12954   6.981   8.941   7.555  0.0801  0.2951  0.0275
  957POPC   NC312955   6.712  11.117   5.501 -0.2164 -0.4462 -0.1935
  957POPC   PO412956   6.677  10.700   5.713  0.2434  0.1751 -0.2101
  957POPC   GL112957   6.657  10.644   6.277  0.0563 -0.0312  0.3392
  957POPC   GL212958   6.858  10.345   6.372  0.0496  0.0201  0.1182
  957POPC   C1A12959   6.754  10.545   6.773  0.1088 -0.2161 -0.0273
  957POPC   D2A12960   6.816  10.580   7.227 -0.1834 -0.3636  0.1084
  957POPC   C3A12961   6.952  10.917   7.634  0.1979  0.2963 -0.2519
  957POPC   C4A12962   6.960  11.188   7.984  0.3191  0.0395  0.1900
  957POPC   C1B12963   7.090  10.037   6.621  0.0113  0.0621 -0.0042
  957POPC   C2B12964   7.153  10.013   7.064 -0.1000  0.0424  0.4195
  957POPC   C3B12965   7.064  10.252   7.491  0.4188  0.0513  0.2023
  957POPC   C4B12966   7.230  10.388   7.824 -0.1032 -0.1445 -0.1154
  958POPC   NC312967  13.483   6.680   5.249 -0.0759 -0.1019 -0.1346
  958POPC   PO412968  13.620   6.457   5.701 -0.1172  0.0233  0.2904
  958POPC   GL112969  14.031   6.504   5.897 -0.0656  0.0079  0.0830
  958POPC   GL212970  14.333   6.531   5.915 -0.3106 -0.3029  0.0881
  958POPC   C1A12971  14.007   6.476   6.342  0.3176  0.1038  0.0039
  958POPC   D2A12972  14.019   6.658   6.759 -0.1109 -0.1861  0.0497
  958POPC   C3A12973  13.862   6.379   7.063 -0.1861  0.3364  0.1677
  958POPC   C4A12974  13.917   6.238   7.403  0.3686 -0.4092 -0.0869
  958POPC   C1B12975  14.523   6.420   6.278  0.2597  0.2225  0.0766
  958POPC   C2B12976  14.571   6.615   6.681 -0.0755 -0.1045 -0.2554
  958POPC   C3B12977  14.469   6.819   7.154  0.0876  0.0527 -0.1397
  958POPC   C4B12978  14.461   6.600   7.549  0.1198 -0.1318 -0.0587
  959POPC   NC312979   0.791  13.143   5.599 -0.0077  0.3480  0.0255
  959POPC   PO412980   0.483  12.720   5.502  0.2102 -0.1878  0.3216
  959POPC   GL112981   0.692  12.806   5.958 -0.0341 -0.1501 -0.4206
  959POPC   GL212982   1.023  13.038   6.074  0.0822  0.0244  0.1578
  959POPC   C1A12983   0.661  12.774   6.475 -0.1640  0.1340 -0.1339
  959POPC   D2A12984   0.870  12.639   6.899 -0.1717 -0.1973 -0.1455
  959POPC   C3A12985   0.863  12.933   7.295  0.0300 -0.1853  0.0139
  959POPC   C4A12986   0.921  13.226   7.696 -0.0610 -0.1741 -0.1682
  959POPC   C1B12987   0.932  13.188   6.450 -0.0231  0.1996  0.0561
  959POPC   C2B12988   0.807  13.148   6.855  0.1766 -0.0306 -0.1327
  959POPC   C3B12989   0.960  13.404   7.217  0.1643  0.1351  0.1371
  959POPC   C4B12990   1.408  13.548   7.351 -0.2702  0.0359 -0.1121
  960POPC   NC312991  14.944   2.799   5.359 -0.0436  0.0328  0.0890
  960POPC   PO412992  15.208   2.543   5.386  0.1298  0.3702 -0.0569
  960POPC   GL112993  15.398   2.655   5.701 -0.0882 -0.4045 -0.1770
  960POPC   GL212994  14.966   2.700   5.862  0.1671 -0.0346  0.2589
  960POPC   C1A12995  15.528   2.487   5.986 -0.0153 -0.1776 -0.4038
  960POPC   D2A12996  15.498   1.994   6.213 -0.0102  0.1849  0.1741
  960POPC   C3A12997  15.766   1.911   6.511 -0.0369  0.1717  0.0021
  960POPC   C4A12998  16.225   2.026   6.559 -0.1639  0.0251  0.0252
  960POPC   C1B12999  15.186   2.635   6.285  0.0907  0.1134 -0.0598
  960POPC   C2B13000  15.513   2.701   6.527  0.1012 -0.0494  0.1699
  960POPC   C3B13001  15.614   2.754   6.905  0.0946 -0.2162 -0.0001
  960POPC   C4B13002  15.948   2.724   7.217 -0.2315 -0.1285 -0.0472
  961POPC   NC313003   7.422   8.461   5.405  0.0914  0.2545  0.1220
  961POPC   PO413004   7.034   8.295   5.388 -0.0962 -0.0604 -0.0744
  961POPC   GL113005   7.047   8.481   5.838 -0.0546  0.0547  0.0257
  961POPC   GL213006   6.755   8.276   5.942 -0.0247 -0.3060  0.0172
  961POPC   C1A13007   7.169   8.382   6.296  0.0365  0.2227 -0.3406
  961POPC   D2A13008   7.401   8.263   6.647  0.0857  0.1514 -0.2491
  961POPC   C3A13009   7.045   8.281   6.938  0.2945  0.0704 -0.3543
  961POPC   C4A13010   6.744   8.059   7.086 -0.2214  0.0861  0.0518
  961POPC   C1B13011   6.679   8.092   6.351  0.2148  0.0759 -0.2545
  961POPC   C2B13012   6.652   7.693   6.693  0.0352  0.0420  0.0194
  961POPC   C3B13013   6.811   7.589   6.978 -0.0525  0.2433 -0.1529
  961POPC   C4B13014   7.126   7.461   7.413 -0.0773  0.0577 -0.1992
  962POPC   NC313015  14.843  10.665   5.243 -0.1445  0.0713 -0.2363
  962POPC   PO413016  14.559  10.882   5.560 -0.2326 -0.4549  0.0837
  962POPC   GL113017  14.484  10.876   5.962  0.3602 -0.1808 -0.2640
  962POPC   GL213018  14.357  11.162   6.057  0.2109 -0.1789 -0.1302
  962POPC   C1A13019  14.455  10.677   6.344  0.2230 -0.2893  0.0760
  962POPC   D2A13020  14.341  10.705   6.726  0.5193  0.1822 -0.1805
  962POPC   C3A13021  14.604  10.656   7.051  0.0168 -0.0104  0.2904
  962POPC   C4A13022  14.524  10.505   7.458  0.1802  0.2106  0.0265
  962POPC   C1B13023  14.668  11.335   6.370 -0.0083 -0.3951 -0.0190
  962POPC   C2B13024  14.843  11.446   6.686 -0.0358 -0.1487  0.0132
  962POPC   C3B13025  15.154  11.573   6.991 -0.1186 -0.4430 -0.0163
  962POPC   C4B13026  15.359  11.674   7.450  0.0447 -0.4476 -0.1653
  963POPC   NC313027  15.275   8.156   5.429  0.1463 -0.4007  0.0677
  963POPC   PO413028  15.316   8.658   5.513  0.2509  0.1905  0.0760
  963POPC   GL113029  15.082   8.772   5.853 -0.0806 -0.3383 -0.3435
  963POPC   GL213030  14.986   8.408   5.825  0.0352  0.0222  0.4540
  963POPC   C1A13031  15.369   8.887   6.280 -0.1990 -0.1146 -0.0046
  963POPC   D2A13032  15.818   9.074   6.604 -0.1774  0.0434 -0.0377
  963POPC   C3A13033  16.114   8.787   6.866 -0.0122  0.1261 -0.3460
  963POPC   C4A13034  16.292   8.464   7.170 -0.1264  0.2104 -0.1613
  963POPC   C1B13035  15.254   8.329   6.256  0.0351 -0.3049  0.0476
  963POPC   C2B13036  15.610   8.161   6.462  0.2554 -0.1927  0.0894
  963POPC   C3B13037  15.828   7.858   6.618 -0.1053 -0.1144 -0.1127
  963POPC   C4B13038  16.081   7.610   6.859 -0.1170  0.0669  0.0261
  964POPC   NC313039   2.828  14.878   5.475  0.1505 -0.1081  0.4003
  964POPC   PO413040   2.570  15.105   5.147 -0.1117  0.0595  0.2827
  964POPC   GL113041   2.490  15.298   5.562 -0.0333 -0.2869 -0.3618
  964POPC   GL213042   2.505  15.660   5.619 -0.0800  0.1216  0.0430
  964POPC   C1A13043   2.488  15.295   6.027 -0.1501  0.0875 -0.1866
  964POPC   D2A13044   2.567  15.218   6.469 -0.0407 -0.0360  0.1930
  964POPC   C3A13045   2.230  14.959   6.543 -0.0910 -0.0748  0.0755
  964POPC   C4A13046   1.919  14.629   6.640 -0.0095  0.2107 -0.1300
  964POPC   C1B13047   2.687  15.866   6.080 -0.1948 -0.4908 -0.2435
  964POPC   C2B13048   2.555  16.137   6.461  0.5059 -0.0962  0.2421
  964POPC   C3B13049   2.710  16.113   6.907 -0.0621 -0.0443 -0.3832
  964POPC   C4B13050   3.015  16.265   7.328 -0.0626  0.2510 -0.0688
  965POPC   NC313051   0.385   5.037   5.716 -0.2962  0.0330  0.1532
  965POPC   PO413052   0.378   5.514   5.585 -0.0424 -0.0263  0.3132
  965POPC   GL113053   0.298   5.569   6.005  0.2531  0.0572  0.2073
  965POPC   GL213054   0.463   5.368   6.132 -0.0868  0.0253  0.1813
  965POPC   C1A13055   0.154   5.779   6.339 -0.1157 -0.3505  0.2113
  965POPC   D2A13056   0.095   5.792   6.786 -0.0074 -0.2270  0.1344
  965POPC   C3A13057   0.176   5.471   7.074  0.0478 -0.0003  0.0467
  965POPC   C4A13058   0.241   5.094   7.314  0.0523 -0.0445  0.1613
  965POPC   C1B13059   0.528   5.484   6.531  0.1948  0.0472  0.2148
  965POPC   C2B13060   0.658   5.632   6.877 -0.1689 -0.1884 -0.1326
  965POPC   C3B13061   0.739   5.881   7.129 -0.4043 -0.3858  0.2171
  965POPC   C4B13062   0.763   5.952   7.596 -0.0303 -0.3809 -0.1026
  966POPC   NC313063  15.149   3.113   4.931 -0.0450  0.2285  0.2792
  966POPC   PO413064  14.809   3.322   5.176  0.1106  0.1590  0.0642
  966POPC   GL113065  14.888   3.230   5.570 -0.1646 -0.1669  0.0225
  966POPC   GL213066  14.626   3.338   5.792  0.4482  0.0823 -0.0086
  966POPC   C1A13067  15.040   3.174   6.045 -0.2699  0.1446  0.4548
  966POPC   D2A13068  14.997   3.160   6.476 -0.0884  0.1524 -0.0024
  966POPC   C3A13069  15.411   3.194   6.642 -0.2145  0.2908  0.1644
  966POPC   C4A13070  15.696   3.358   6.881  0.0271  0.1350  0.0093
  966POPC   C1B13071  14.564   3.375   6.206 -0.3891 -0.3997  0.0085
  966POPC   C2B13072  14.318   3.242   6.504  0.3468  0.3560 -0.2311
  966POPC   C3B13073  14.091   3.091   6.975  0.2716  0.1881  0.2181
  966POPC   C4B13074  13.934   2.733   7.252  0.2260 -0.0443  0.1351
  967POPC   NC313075  11.756   2.628   5.174  0.2694 -0.0673  0.1367
  967POPC   PO413076  11.598   3.009   5.078 -0.0349 -0.0462 -0.1352
  967POPC   GL113077  11.436   3.008   5.503  0.1183  0.2062 -0.0569
  967POPC   GL213078  11.083   2.847   5.656  0.0798  0.1162 -0.0870
  967POPC   C1A13079  11.548   2.966   5.964  0.0485 -0.3105  0.1127
  967POPC   D2A13080  11.584   2.936   6.375  0.3226 -0.1087  0.2539
  967POPC   C3A13081  11.431   3.134   6.722  0.0868 -0.0642 -0.1194
  967POPC   C4A13082  11.658   3.426   6.938 -0.0881 -0.0390  0.3048
  967POPC   C1B13083  10.772   2.890   6.020 -0.1205 -0.0734 -0.1964
  967POPC   C2B13084  10.813   2.826   6.456 -0.1085  0.0546  0.1895
  967POPC   C3B13085  10.852   3.086   6.920  0.0146  0.1044  0.1907
  967POPC   C4B13086  10.499   3.259   7.007  0.0369  0.1324 -0.4943
  968POPC   NC313087   9.846  12.358   5.630 -0.3323  0.0885  0.2847
  968POPC   PO413088   9.469  12.326   5.826 -0.2025 -0.0145  0.0026
  968POPC   GL113089   9.541  12.234   6.240  0.0456  0.2609  0.1695
  968POPC   GL213090   9.588  11.876   6.222  0.5063  0.2082  0.2517
  968POPC   C1A13091   9.840  12.150   6.549  0.1551 -0.3970 -0.1661
  968POPC   D2A13092   9.833  11.847   6.817 -0.1136 -0.0830  0.0411
  968POPC   C3A13093   9.776  11.803   7.333 -0.0487  0.1053  0.1189
  968POPC   C4A13094  10.029  11.864   7.722 -0.0689 -0.2742 -0.0004
  968POPC   C1B13095   9.611  11.556   6.529  0.0528 -0.3036  0.1402
  968POPC   C2B13096   9.764  11.236   6.546  0.0570  0.0712  0.1130
  968POPC   C3B13097   9.976  10.847   6.696 -0.0334 -0.1107 -0.0126
  968POPC   C4B13098   9.875  10.502   6.990  0.0123  0.0770  0.1222
  969POPC   NC313099  15.643  12.847   5.706 -0.2726 -0.0494  0.1550
  969POPC   PO413100  15.288  12.687   5.546 -0.4549  0.3196  0.0238
  969POPC   GL113101  15.396  12.551   5.977 -0.0546 -0.2234 -0.0093
  969POPC   GL213102  15.815  12.485   6.148 -0.1486  0.2129 -0.3226
  969POPC   C1A13103  15.307  12.630   6.387  0.0311 -0.0873 -0.3433
  969POPC   D2A13104  15.182  12.441   6.842  0.2153  0.3634  0.0760
  969POPC   C3A13105  15.286  12.527   7.286 -0.5175 -0.0645  0.1608
  969POPC   C4A13106  15.258  12.879   7.453 -0.0620 -0.4903  0.0061
  969POPC   C1B13107  15.820  12.826   6.417  0.1355  0.3332  0.1326
  969POPC   C2B13108  15.975  13.141   6.712  0.1832 -0.0843  0.0921
  969POPC   C3B13109  16.154  13.507   7.022 -0.0903  0.0945 -0.0336
  969POPC   C4B13110  16.187  13.483   7.451 -0.1926 -0.0294  0.2694
  970POPC   NC313111  18.486   2.372   5.782 -0.0705  0.4162 -0.0352
  970POPC   PO413112  18.926   2.191   5.859  0.0774 -0.2670  0.1665
  970POPC   GL113113  18.795   2.545   6.150 -0.2512  0.0133  0.1895
  970POPC   GL213114  18.603   2.366   6.279 -0.0110  0.3914  0.1291
  970POPC   C1A13115  18.690   2.763   6.510 -0.3792  0.1881 -0.0986
  970POPC   D2A13116  18.325   2.831   6.761  0.3556 -0.1439 -0.0786
  970POPC   C3A13117  18.434   2.961   7.083 -0.2213  0.0746 -0.3393
  970POPC   C4A13118  18.556   2.921   7.516 -0.3294 -0.0202  0.2555
  970POPC   C1B13119  18.527   2.347   6.815 -0.3321 -0.3524  0.2568
  970POPC   C2B13120  18.237   2.445   7.155 -0.1481  0.1166 -0.2862
  970POPC   C3B13121  17.940   2.821   7.042 -0.3257  0.3560  0.2379
  970POPC   C4B13122  17.657   3.153   6.913  0.0372  0.0192 -0.2284
  971POPC   NC313123  10.835   5.328   5.429 -0.1386  0.0307  0.1814
  971POPC   PO413124  11.251   5.240   5.434 -0.0584 -0.0514 -0.3214
  971POPC   GL113125  11.263   5.423   5.799 -0.1784  0.2290  0.1196
  971POPC   GL213126  11.587   5.663   5.689  0.3721 -0.2078 -0.1968
  971POPC   C1A13127  11.228   5.821   6.090  0.0331 -0.2041  0.1436
  971POPC   D2A13128  11.427   6.220   6.207  0.1181  0.0893  0.3390
  971POPC   C3A13129  11.662   6.234   6.638  0.1843  0.0295 -0.1426
  971POPC   C4A13130  11.789   6.616   6.823 -0.0892  0.0760 -0.0823
  971POPC   C1B13131  11.809   5.702   6.135  0.0462  0.1226 -0.4515
  971POPC   C2B13132  11.655   5.730   6.504  0.0648  0.0207 -0.1274
  971POPC   C3B13133  11.279   5.923   6.581  0.0389 -0.2018  0.0526
  971POPC   C4B13134  10.971   6.038   6.924  0.2661 -0.1502 -0.1565
  972POPC   NC313135  11.503  12.297   5.289  0.0861 -0.1666 -0.1154
  972POPC   PO413136  11.646  12.156   5.770 -0.2420  0.2132 -0.0070
  972POPC   GL113137  11.685  12.082   6.185  0.0765  0.2317 -0.0600
  972POPC   GL213138  11.854  11.748   6.292 -0.0955  0.1359 -0.0276
  972POPC   C1A13139  11.466  12.111   6.601  0.0608 -0.0780 -0.1536
  972POPC   D2A13140  11.394  12.368   6.831 -0.4195 -0.1939  0.1454
  972POPC   C3A13141  11.320  12.403   7.258  0.0225  0.2846  0.3972
  972POPC   C4A13142  11.212  12.678   7.605 -0.3007  0.0244  0.1160
  972POPC   C1B13143  11.859  11.596   6.706 -0.2179 -0.2045 -0.1566
  972POPC   C2B13144  12.097  11.225   6.949  0.1703  0.1575  0.1593
  972POPC   C3B13145  12.209  10.948   7.338 -0.4588 -0.0870  0.2020
  972POPC   C4B13146  12.098  10.630   7.563  0.2068  0.4175 -0.1982
  973POPC   NC313147   0.531   9.084   5.451  0.0062 -0.0867 -0.0633
  973POPC   PO413148   0.334   8.723   5.406  0.3005  0.1763 -0.1520
  973POPC   GL113149   0.100   8.800   5.864 -0.0770  0.0217 -0.1452
  973POPC   GL213150   0.184   9.046   5.894  0.1241 -0.1263 -0.1026
  973POPC   C1A13151  -0.071   8.650   6.222  0.0292  0.1790 -0.1403
  973POPC   D2A13152  -0.211   8.643   6.662  0.1612 -0.1059 -0.3264
  973POPC   C3A13153   0.046   8.559   6.955 -0.0145  0.1674  0.0917
  973POPC   C4A13154   0.391   8.592   7.176 -0.0157 -0.4212 -0.1602
  973POPC   C1B13155   0.441   9.315   6.259  0.3371 -0.1525  0.2370
  973POPC   C2B13156   0.464   9.402   6.586 -0.1371  0.2752 -0.1779
  973POPC   C3B13157   0.552   9.604   6.926  0.0290 -0.0550 -0.2308
  973POPC   C4B13158   0.910   9.903   7.047  0.0696  0.0733 -0.1693
  974POPC   NC313159  13.673  16.896   5.320  0.1237 -0.1191 -0.0724
  974POPC   PO413160  14.113  16.820   5.363  0.1134  0.2385 -0.0199
  974POPC   GL113161  13.883  16.784   5.747 -0.1805 -0.0356 -0.1080
  974POPC   GL213162  13.810  16.462   5.941 -0.1406 -0.0050  0.2858
  974POPC   C1A13163  13.852  16.711   6.320  0.1033 -0.2569  0.1560
  974POPC   D2A13164  14.005  16.744   6.808  0.1209  0.2406  0.2302
  974POPC   C3A13165  13.759  16.536   7.200  0.3783 -0.1485  0.1657
  974POPC   C4A13166  13.505  16.766   7.408  0.1073  0.0594 -0.1301
  974POPC   C1B13167  13.972  16.192   6.180  0.1726 -0.1757  0.0732
  974POPC   C2B13168  14.112  16.016   6.523 -0.1825  0.0612 -0.1584
  974POPC   C3B13169  14.248  15.677   6.785 -0.4284 -0.0946 -0.1318
  974POPC   C4B13170  14.454  15.555   7.086 -0.3137 -0.0402 -0.0699
  975POPC   NC313171   9.983   2.246   5.286  0.2224 -0.0831  0.1835
  975POPC   PO413172   9.696   2.421   5.217  0.2253  0.1952  0.0610
  975POPC   GL113173   9.659   2.382   5.633 -0.1160  0.2868 -0.0690
  975POPC   GL213174   9.245   2.367   5.745 -0.2140  0.1204  0.2434
  975POPC   C1A13175   9.903   2.412   5.975  0.3114 -0.0785  0.0155
  975POPC   D2A13176   9.923   2.653   6.327  0.0746  0.1221 -0.0049
  975POPC   C3A13177   9.811   2.568   6.728  0.0735  0.1260  0.0928
  975POPC   C4A13178   9.644   2.607   7.241 -0.3703 -0.0409  0.1280
  975POPC   C1B13179   9.399   2.399   6.138 -0.1819  0.4440  0.1849
  975POPC   C2B13180   9.366   2.536   6.567  0.1267 -0.0999  0.3033
  975POPC   C3B13181   9.281   2.334   6.976 -0.1632 -0.2778 -0.0546
  975POPC   C4B13182   9.191   1.882   7.222 -0.2763  0.2108  0.3038
  976POPC   NC313183   9.276  18.315   5.668  0.3291  0.0227 -0.0960
  976POPC   PO413184   9.588  18.617   5.681 -0.0299  0.0126 -0.1605
  976POPC   GL113185   9.450  18.645   6.093 -0.4667  0.2746  0.0054
  976POPC   GL213186   9.195  18.717   6.037  0.1003  0.1890  0.0666
  976POPC   C1A13187   9.698  18.716   6.408  0.1501  0.3444  0.1088
  976POPC   D2A13188   9.707  18.665   6.857  0.0924 -0.0131 -0.4756
  976POPC   C3A13189   9.463  18.257   6.991 -0.0470 -0.0545  0.1229
  976POPC   C4A13190   9.324  18.004   7.325  0.0663 -0.0911  0.2932
  976POPC   C1B13191   9.053  18.715   6.400  0.3911 -0.1739 -0.1660
  976POPC   C2B13192   9.192  18.637   6.803 -0.0904  0.0835  0.0651
  976POPC   C3B13193   9.151  18.961   7.208 -0.3098  0.0343 -0.0015
  976POPC   C4B13194   9.438  19.037   7.528 -0.0981 -0.2157 -0.1590
  977POPC   NC313195  11.441  11.241   5.651  0.1630  0.1614 -0.1024
  977POPC   PO413196  11.523  11.651   5.806 -0.2823  0.0233 -0.0649
  977POPC   GL113197  11.244  11.950   5.976 -0.1398 -0.1476  0.2384
  977POPC   GL213198  11.295  11.822   6.254  0.0724  0.1000  0.2241
  977POPC   C1A13199  10.845  12.024   6.053 -0.0757 -0.1209 -0.0719
  977POPC   D2A13200  10.388  11.786   6.090  0.3373 -0.1300 -0.0729
  977POPC   C3A13201  10.202  11.677   6.458 -0.0870  0.2555 -0.3213
  977POPC   C4A13202  10.258  11.342   6.820  0.0536  0.3406 -0.0421
  977POPC   C1B13203  11.242  11.685   6.597  0.1467  0.0365 -0.4013
  977POPC   C2B13204  11.304  11.511   6.901  0.0455  0.1127  0.1909
  977POPC   C3B13205  11.715  11.379   7.153 -0.0508  0.0807  0.4172
  977POPC   C4B13206  11.876  11.478   7.531  0.0439  0.3200 -0.1421
  978POPC   NC313207   3.972  10.487   5.208  0.1754  0.0290  0.1267
  978POPC   PO413208   3.602  10.500   5.568  0.1601 -0.3411  0.0349
  978POPC   GL113209   3.789  10.333   6.022 -0.1664  0.2956  0.2868
  978POPC   GL213210   4.012  10.004   5.983 -0.0756 -0.3434  0.2668
  978POPC   C1A13211   3.819  10.375   6.423  0.1044 -0.0029  0.0557
  978POPC   D2A13212   3.664  10.430   6.862 -0.0232 -0.0739  0.0947
  978POPC   C3A13213   3.744  10.400   7.248 -0.1859 -0.1681  0.2229
  978POPC   C4A13214   3.937  10.750   7.330 -0.0748 -0.0217  0.0689
  978POPC   C1B13215   3.769   9.924   6.282  0.1701 -0.1617 -0.0409
  978POPC   C2B13216   3.510   9.994   6.644 -0.0073  0.1253 -0.2861
  978POPC   C3B13217   3.162   9.710   6.879 -0.1266  0.0090 -0.1949
  978POPC   C4B13218   2.846   9.672   7.170  0.2365 -0.0189 -0.2562
  979POPC   NC313219   9.237   3.758   4.898  0.1014 -0.2876  0.2200
  979POPC   PO413220   9.153   4.129   5.112  0.0147  0.3087 -0.5605
  979POPC   GL113221   9.098   4.313   5.505 -0.1469  0.2201  0.1765
  979POPC   GL213222   9.379   4.221   5.595  0.3380 -0.0627 -0.0487
  979POPC   C1A13223   8.736   4.434   5.816  0.0018  0.1507  0.2917
  979POPC   D2A13224   8.564   4.495   6.211 -0.3999 -0.1842 -0.1581
  979POPC   C3A13225   8.139   4.430   6.349  0.3756 -0.0360 -0.1438
  979POPC   C4A13226   7.746   4.236   6.223  0.1273 -0.0460  0.1995
  979POPC   C1B13227   9.490   4.467   5.987 -0.0522  0.1786 -0.0937
  979POPC   C2B13228   9.275   4.611   6.305 -0.0987 -0.0930  0.0077
  979POPC   C3B13229   9.063   4.926   6.513 -0.1232  0.0644 -0.0584
  979POPC   C4B13230   9.188   5.310   6.700  0.1527  0.1387 -0.2208
  980POPC   NC313231   9.292   6.110   5.245  0.0843  0.0748 -0.1909
  980POPC   PO413232   9.006   6.374   5.290 -0.1177 -0.1590  0.0869
  980POPC   GL113233   8.711   6.475   5.543  0.0035  0.2922  0.1942
  980POPC   GL213234   8.590   6.737   5.725 -0.1978  0.1260  0.0029
  980POPC   C1A13235   8.702   6.290   6.069  0.1672  0.0196  0.1767
  980POPC   D2A13236   8.797   6.306   6.399 -0.0624 -0.2290 -0.0971
  980POPC   C3A13237   8.550   6.216   6.806  0.1369  0.0323 -0.0942
  980POPC   C4A13238   8.298   6.152   7.038  0.0997 -0.0978  0.4254
  980POPC   C1B13239   8.983   6.671   5.956  0.3152  0.1277 -0.0228
  980POPC   C2B13240   9.357   6.827   5.966  0.3250  0.1027 -0.1480
  980POPC   C3B13241   9.690   6.901   5.710 -0.0890 -0.1586  0.2703
  980POPC   C4B13242  10.010   7.047   5.468  0.1540  0.0599 -0.3890
  981POPC   NC313243   5.034  18.282   4.988 -0.0580  0.0861  0.1782
  981POPC   PO413244   4.892  18.423   5.436 -0.0165 -0.3188 -0.0788
  981POPC   GL113245   4.757  18.503   5.815  0.0551  0.4523  0.1751
  981POPC   GL213246   4.818  18.102   6.026  0.1782  0.0248 -0.0145
  981POPC   C1A13247   4.760  18.651   6.203 -0.2163 -0.1151  0.0213
  981POPC   D2A13248   4.990  19.047   6.369 -0.0267  0.3636 -0.1771
  981POPC   C3A13249   5.058  18.936   6.912 -0.2671 -0.0821  0.3085
  981POPC   C4A13250   5.092  18.873   7.375  0.1615 -0.0880 -0.0086
  981POPC   C1B13251   4.816  18.195   6.434  0.1447  0.0718  0.2521
  981POPC   C2B13252   4.607  18.121   6.843 -0.2190  0.1587 -0.0104
  981POPC   C3B13253   4.714  18.114   7.246  0.0168 -0.0460 -0.0342
  981POPC   C4B13254   4.455  17.990   7.570  0.0884  0.2252 -0.3049
  982YOPC   NC313255  16.718   7.786   5.512  0.0730 -0.3124 -0.2485
  982YOPC   PO413256  16.915   7.618   5.944  0.0688  0.2183 -0.3966
  982YOPC   GL113257  16.806   7.965   6.255  0.0390  0.0024  0.1759
  982YOPC   GL213258  16.730   8.285   6.078 -0.0865  0.1767 -0.1988
  982YOPC   C1A13259  16.875   7.948   6.712 -0.1276  0.1686  0.2770
  982YOPC   D2A13260  16.948   8.066   7.133 -0.1175  0.0586 -0.0375
  982YOPC   C3A13261  17.295   7.821   7.352  0.0759  0.0724  0.1740
  982YOPC   C4A13262  17.266   7.528   7.686 -0.0451  0.1871 -0.2005
  982YOPC   C1B13263  16.701   8.540   6.421 -0.0623 -0.1518  0.1179
  982YOPC   C2B13264  16.599   8.321   6.801 -0.0036 -0.2740 -0.0148
  982YOPC   D3B13265  16.802   8.542   7.179 -0.1515  0.3640  0.2204
  982YOPC   C4B13266  17.010   8.743   7.483  0.0476  0.1073 -0.0929
  983YOPC   NC313267   5.693  12.846   5.689 -0.0938  0.0197 -0.0037
  983YOPC   PO413268   6.137  12.567   5.526 -0.3820 -0.1634 -0.2894
  983YOPC   GL113269   6.181  12.767   6.002 -0.0621  0.0690 -0.0872
  983YOPC   GL213270   5.845  12.750   6.136 -0.2159  0.2836  0.3588
  983YOPC   C1A13271   6.133  13.100   6.318 -0.1760 -0.0794 -0.1242
  983YOPC   D2A13272   6.563  13.136   6.596  0.1092  0.2075 -0.1687
  983YOPC   C3A13273   6.573  13.128   7.001 -0.4047 -0.3340  0.1377
  983YOPC   C4A13274   6.902  13.105   7.287  0.0700 -0.1734 -0.0949
  983YOPC   C1B13275   5.849  12.364   6.529 -0.1623 -0.4000  0.0100
  983YOPC   C2B13276   6.053  12.187   6.923 -0.0690  0.1697  0.0720
  983YOPC   D3B13277   6.013  12.346   7.369 -0.2613  0.2151  0.1800
  983YOPC   C4B13278   5.714  12.655   7.566  0.0342  0.0136 -0.3163
  984YOPC   NC313279  13.948  18.169   5.173 -0.1270  0.1826 -0.1977
  984YOPC   PO413280  13.813  18.464   5.487 -0.2111  0.2059 -0.1636
  984YOPC   GL113281  13.681  18.610   5.927  0.0327  0.2420 -0.0397
  984YOPC   GL213282  13.782  18.389   6.032  0.3131  0.0017  0.1624
  984YOPC   C1A13283  13.481  18.619   6.403 -0.2695  0.1453 -0.0475
  984YOPC   D2A13284  13.538  18.646   6.832  0.0326 -0.1875  0.0325
  984YOPC   C3A13285  13.347  18.278   7.104 -0.0218  0.4893 -0.2348
  984YOPC   C4A13286  13.198  17.998   7.389  0.0074  0.0385 -0.2721
  984YOPC   C1B13287  13.365  18.215   6.195  0.0695  0.1246  0.1442
  984YOPC   C2B13288  12.907  17.973   6.240 -0.0121  0.2933  0.0610
  984YOPC   D3B13289  12.928  17.739   6.469  0.2470  0.2201 -0.2895
  984YOPC   C4B13290  12.684  17.674   6.818 -0.3297 -0.0058 -0.0613
  985YOPC   NC313291  11.422   7.374   5.212  0.1671  0.2636  0.0958
  985YOPC   PO413292  11.449   6.936   5.335 -0.2791 -0.0012 -0.1432
  985YOPC   GL113293  11.214   6.705   5.745  0.0043  0.0322 -0.2712
  985YOPC   GL213294  11.317   6.693   6.022 -0.1678 -0.1541 -0.0285
  985YOPC   C1A13295  10.889   6.365   5.958  0.1237 -0.1494 -0.0864
  985YOPC   D2A13296  10.820   6.373   6.486 -0.0251 -0.2648 -0.0159
  985YOPC   C3A13297  10.457   6.266   6.698  0.0126  0.0130  0.2362
  985YOPC   C4A13298  10.271   6.407   7.084  0.4783  0.1971  0.1627
  985YOPC   C1B13299  11.403   6.644   6.456 -0.3956  0.0972  0.2352
  985YOPC   C2B13300  11.293   6.651   6.905 -0.1986 -0.2081  0.4166
  985YOPC   D3B13301  11.196   6.334   7.261  0.0658  0.1468 -0.2280
  985YOPC   C4B13302  11.134   5.952   7.481 -0.0004 -0.1555 -0.0478
  986YOPC   NC313303  12.895   7.385   4.931  0.0759  0.2521  0.1101
  986YOPC   PO413304  12.593   7.783   5.103  0.1846 -0.1362  0.2654
  986YOPC   GL113305  12.663   7.507   5.522 -0.0724 -0.1355  0.2846
  986YOPC   GL213306  12.762   7.232   5.751  0.0932  0.2125  0.2783
  986YOPC   C1A13307  12.630   7.685   5.963 -0.1057  0.0495  0.0090
  986YOPC   D2A13308  12.867   7.470   6.424 -0.3350 -0.1741  0.0300
  986YOPC   C3A13309  13.134   7.756   6.741  0.0343  0.1999  0.1479
  986YOPC   C4A13310  13.524   7.987   6.869  0.1119 -0.0056  0.0750
  986YOPC   C1B13311  12.600   7.214   6.121  0.2177  0.4065 -0.3257
  986YOPC   C2B13312  12.367   7.395   6.390 -0.1562  0.1228 -0.2492
  986YOPC   D3B13313  12.569   7.401   6.790  0.1879  0.0035 -0.0236
  986YOPC   C4B13314  12.834   7.386   7.131 -0.1230  0.0715 -0.2100
  987YOPC   NC313315  10.423   9.881   5.255 -0.0566  0.1483  0.3091
  987YOPC   PO413316  10.840  10.057   5.407  0.3054 -0.1221 -0.1432
  987YOPC   GL113317  10.901   9.764   5.781  0.1458 -0.3914  0.1951
  987YOPC   GL213318  11.155   9.833   5.738  0.1946 -0.0894 -0.1053
  987YOPC   C1A13319  11.035   9.496   6.134  0.0438 -0.1622  0.0276
  987YOPC   D2A13320  10.827   9.219   6.513  0.0776 -0.0766 -0.0571
  987YOPC   C3A13321  10.866   9.354   7.055  0.1277  0.1625 -0.0290
  987YOPC   C4A13322  10.783   9.214   7.434  0.1667 -0.3028 -0.0104
  987YOPC   C1B13323  11.402   9.826   6.104  0.1501  0.1811  0.0341
  987YOPC   C2B13324  11.571   9.587   6.255  0.0474  0.1538 -0.1473
  987YOPC   D3B13325  11.589   9.621   6.580 -0.2155 -0.0691 -0.1988
  987YOPC   C4B13326  11.753   9.859   6.931 -0.2038 -0.1130 -0.3726
  988YOPC   NC313327  11.125  11.059   5.220  0.0357 -0.0409 -0.3666
  988YOPC   PO413328  11.103  10.853   5.591  0.0138  0.0205  0.5765
  988YOPC   GL113329  11.108  10.653   5.954 -0.0237  0.0158 -0.0409
  988YOPC   GL213330  10.922  10.236   5.977 -0.2690 -0.3560 -0.0644
  988YOPC   C1A13331  11.018  10.516   6.419 -0.1977  0.1322  0.3492
  988YOPC   D2A13332  10.931  10.535   6.916  0.2404 -0.0440  0.1684
  988YOPC   C3A13333  11.294  10.497   7.243 -0.1402  0.2501 -0.2039
  988YOPC   C4A13334  11.419  10.545   7.659 -0.4884 -0.1262  0.1232
  988YOPC   C1B13335  11.048  10.003   6.337 -0.1014 -0.0716 -0.0838
  988YOPC   C2B13336  11.079   9.640   6.626 -0.1426  0.0134  0.0506
  988YOPC   D3B13337  11.263   9.679   7.005  0.1776 -0.1172 -0.1655
  988YOPC   C4B13338  11.295  10.024   7.351 -0.1950  0.3248 -0.1303
  989YOPC   NC313339   3.983  13.050   5.508 -0.2592  0.3724 -0.2566
  989YOPC   PO413340   4.312  13.216   5.674 -0.1686  0.0674  0.2758
  989YOPC   GL113341   4.431  13.134   6.111  0.0271  0.0320  0.1975
  989YOPC   GL213342   4.736  12.963   6.234  0.1538 -0.1218  0.2388
  989YOPC   C1A13343   4.422  13.149   6.524 -0.2229  0.0039 -0.0230
  989YOPC   D2A13344   4.280  12.863   6.896  0.1214 -0.0952 -0.0144
  989YOPC   C3A13345   4.108  13.137   7.223 -0.0812  0.0303  0.1673
  989YOPC   C4A13346   4.052  13.105   7.718 -0.0953  0.1977 -0.0405
  989YOPC   C1B13347   4.854  12.643   6.456 -0.3205  0.0815  0.2472
  989YOPC   C2B13348   4.798  12.617   6.842  0.0879 -0.0200 -0.1630
  989YOPC   D3B13349   4.406  12.484   7.157  0.2637 -0.2404  0.0663
  989YOPC   C4B13350   4.069  12.584   7.312  0.2040 -0.0007  0.2226
  990YOPC   NC313351   3.067   7.111   5.375 -0.1845  0.0786 -0.2031
  990YOPC   PO413352   3.007   7.558   5.494 -0.1619 -0.1416 -0.0079
  990YOPC   GL113353   3.139   7.787   5.728 -0.0884  0.2987 -0.1010
  990YOPC   GL213354   2.840   7.862   5.902  0.3688 -0.0289 -0.0961
  990YOPC   C1A13355   3.423   7.813   5.975  0.3899 -0.0389 -0.4110
  990YOPC   D2A13356   3.505   7.650   6.453 -0.0148  0.1727 -0.1693
  990YOPC   C3A13357   3.388   7.693   6.892  0.0326  0.2130  0.3026
  990YOPC   C4A13358   3.504   7.577   7.241  0.0937  0.2105 -0.4022
  990YOPC   C1B13359   3.111   7.911   6.298  0.2065 -0.0965  0.0188
  990YOPC   C2B13360   3.000   7.868   6.635 -0.2432 -0.0823 -0.1257
  990YOPC   D3B13361   2.563   7.705   6.874  0.0914  0.1258 -0.0495
  990YOPC   C4B13362   2.175   7.552   7.180  0.0750 -0.1567  0.1247
  991YOPC   NC313363  17.436  11.615   5.446 -0.1286 -0.1658  0.0508
  991YOPC   PO413364  17.811  11.824   5.529 -0.1495  0.0263 -0.0418
  991YOPC   GL113365  17.596  11.973   5.981 -0.1871  0.0474 -0.1995
  991YOPC   GL213366  17.393  11.998   6.186  0.3345 -0.3871  0.0427
  991YOPC   C1A13367  17.797  12.192   6.286  0.2064 -0.0995 -0.2475
  991YOPC   D2A13368  17.820  12.371   6.765  0.0192 -0.0737  0.3384
  991YOPC   C3A13369  18.126  12.173   6.880  0.2973  0.2466  0.4174
  991YOPC   C4A13370  18.522  12.061   6.800 -0.1890 -0.0256 -0.2863
  991YOPC   C1B13371  17.582  11.939   6.634 -0.0704  0.1161 -0.1455
  991YOPC   C2B13372  17.573  11.546   6.820  0.1370 -0.0988  0.3959
  991YOPC   D3B13373  17.313  11.325   7.161  0.0016  0.4437  0.0285
  991YOPC   C4B13374  17.100  10.976   7.302 -0.3016 -0.1639 -0.0421
  992YOPC   NC313375   6.919   9.739   5.745 -0.1389  0.0148  0.0231
  992YOPC   PO413376   6.510   9.516   5.638  0.1473 -0.0133  0.2984
  992YOPC   GL113377   6.477   9.661   6.073  0.2788  0.1924  0.2431
  992YOPC   GL213378   6.175   9.716   6.174 -0.0564  0.0723 -0.1707
  992YOPC   C1A13379   6.624   9.838   6.424 -0.2709  0.0898  0.0634
  992YOPC   D2A13380   6.611  10.029   6.845 -0.1695  0.0606 -0.0385
  992YOPC   C3A13381   6.521   9.802   7.240 -0.2077 -0.0461 -0.0437
  992YOPC   C4A13382   6.243   9.798   7.600 -0.1150  0.1706  0.1273
  992YOPC   C1B13383   6.049   9.431   6.460  0.0593  0.2381  0.3675
  992YOPC   C2B13384   5.748   9.689   6.740  0.0096  0.4936 -0.0806
  992YOPC   D3B13385   5.375   9.452   6.964 -0.1305  0.0113 -0.0011
  992YOPC   C4B13386   5.105   9.359   7.358  0.2096  0.0849  0.0194
  993YOPC   NC313387  18.767  16.073   5.787  0.2519  0.2905 -0.0950
  993YOPC   PO413388  18.569  15.790   5.668 -0.4961  0.0694  0.2579
  993YOPC   GL113389  18.632  15.701   6.090 -0.1115  0.3614 -0.2079
  993YOPC   GL213390  18.908  15.748   6.172 -0.0559  0.1547  0.2551
  993YOPC   C1A13391  18.511  15.458   6.511 -0.1979 -0.0399 -0.0613
  993YOPC   D2A13392  18.429  15.008   6.635  0.1535  0.1381  0.0835
  993YOPC   C3A13393  18.481  14.853   7.059 -0.0679 -0.1288  0.3124
  993YOPC   C4A13394  18.301  14.822   7.461  0.1097  0.2267 -0.3269
  993YOPC   C1B13395  19.199  16.028   6.400 -0.3937  0.2272 -0.0771
  993YOPC   C2B13396  19.216  16.436   6.313  0.1386 -0.0394 -0.4732
  993YOPC   D3B13397  19.240  16.650   6.692 -0.1508  0.0032  0.2814
  993YOPC   C4B13398  19.062  16.828   7.097 -0.0107 -0.2036 -0.1468
  994YOPC   NC313399   1.207   4.883   5.513 -0.1324 -0.2013  0.3326
  994YOPC   PO413400   1.554   5.279   5.446 -0.1637 -0.1775 -0.2024
  994YOPC   GL113401   1.324   5.421   5.713 -0.3527  0.1360 -0.0223
  994YOPC   GL213402   1.367   5.772   5.792 -0.4026 -0.2116 -0.4183
  994YOPC   C1A13403   1.563   5.520   6.188 -0.0940  0.0026 -0.2730
  994YOPC   D2A13404   1.297   5.580   6.582 -0.1967  0.1471  0.0592
  994YOPC   C3A13405   1.499   5.438   6.977  0.3627  0.0252  0.3812
  994YOPC   C4A13406   1.497   5.554   7.421  0.2381  0.1175 -0.3464
  994YOPC   C1B13407   1.340   5.966   6.182 -0.6114 -0.2000  0.2806
  994YOPC   C2B13408   1.835   6.022   6.446 -0.0829 -0.0249 -0.2766
  994YOPC   D3B13409   1.637   5.922   6.837 -0.1814 -0.0830  0.0412
  994YOPC   C4B13410   1.736   6.027   7.274  0.0689 -0.3285 -0.0020
  995YOPC   NC313411  18.099  10.523   5.308  0.1788 -0.1897  0.1246
  995YOPC   PO413412  18.321  10.920   5.208  0.1346  0.0206 -0.0715
  995YOPC   GL113413  18.240  11.062   5.604 -0.0765  0.2308 -0.0552
  995YOPC   GL213414  18.255  11.362   5.684  0.2001  0.2952 -0.1254
  995YOPC   C1A13415  18.175  10.901   5.929 -0.2720 -0.4796 -0.2399
  995YOPC   D2A13416  18.006  11.018   6.330  0.2298  0.0999 -0.1985
  995YOPC   C3A13417  17.978  11.277   6.609 -0.2093  0.0089 -0.2962
  995YOPC   C4A13418  17.874  11.186   7.068  0.2535  0.4513 -0.0398
  995YOPC   C1B13419  18.342  11.382   6.104 -0.0405  0.5884 -0.0671
  995YOPC   C2B13420  18.508  11.029   6.396 -0.0397 -0.0613  0.0112
  995YOPC   D3B13421  18.373  11.053   6.848 -0.1191 -0.3598 -0.0993
  995YOPC   C4B13422  18.611  10.669   7.105 -0.0727 -0.4293 -0.2492
  996YOPC   NC313423  17.982   4.288   5.452  0.0250  0.0258 -0.1880
  996YOPC   PO413424  17.702   4.153   5.162  0.1610  0.1777  0.1035
  996YOPC   GL113425  17.481   4.075   5.603 -0.1340 -0.1668  0.1692
  996YOPC   GL213426  17.097   4.033   5.705 -0.0241 -0.0461 -0.0339
  996YOPC   C1A13427  17.546   4.151   6.041 -0.2016  0.0026  0.1038
  996YOPC   D2A13428  17.682   4.084   6.449  0.1410  0.0559  0.0809
  996YOPC   C3A13429  17.467   4.062   6.749  0.2380  0.0234 -0.3876
  996YOPC   C4A13430  17.261   3.970   7.101  0.2995 -0.0434  0.3179
  996YOPC   C1B13431  17.112   3.669   5.977  0.2463 -0.2409  0.2268
  996YOPC   C2B13432  16.986   3.189   6.203  0.3098 -0.1808 -0.5297
  996YOPC   D3B13433  16.736   3.292   6.664  0.0883 -0.1629  0.3729
  996YOPC   C4B13434  16.415   3.408   6.848 -0.0710  0.0780 -0.2879
  997YOPC   NC313435   9.382   2.029   5.436  0.4035 -0.0888  0.1162
  997YOPC   PO413436   9.694   1.867   5.219 -0.0333 -0.0145 -0.0430
  997YOPC   GL113437   9.862   1.546   5.505 -0.3424  0.1284 -0.3236
  997YOPC   GL213438  10.193   1.350   5.564  0.0451 -0.2588 -0.2818
  997YOPC   C1A13439   9.867   1.434   5.996 -0.1535  0.2861 -0.4177
  997YOPC   D2A13440   9.597   1.520   6.328  0.0711  0.1047 -0.0732
  997YOPC   C3A13441   9.383   1.795   6.237 -0.3483 -0.1167 -0.2574
  997YOPC   C4A13442   9.102   2.144   6.495 -0.3439 -0.2926 -0.0371
  997YOPC   C1B13443  10.332   1.222   5.876  0.0070 -0.2009 -0.3765
  997YOPC   C2B13444  10.601   1.106   6.276  0.2663  0.2642  0.2637
  997YOPC   D3B13445  10.492   1.278   6.693 -0.2628  0.1627  0.1769
  997YOPC   C4B13446  10.390   1.501   7.147  0.0599 -0.2773  0.0145
  998YOPC   NC313447   6.312  15.545   5.212  0.1067 -0.2343  0.2742
  998YOPC   PO413448   6.631  15.799   5.393  0.0491 -0.3057 -0.1659
  998YOPC   GL113449   6.643  15.526   5.734  0.2474  0.2041 -0.0530
  998YOPC   GL213450   6.808  15.679   6.031 -0.1773  0.1063 -0.0567
  998YOPC   C1A13451   6.610  15.200   5.903  0.1609 -0.0343  0.1611
  998YOPC   D2A13452   6.494  14.845   6.230  0.1767  0.0491 -0.0419
  998YOPC   C3A13453   6.482  14.453   6.393 -0.1397  0.2456  0.2620
  998YOPC   C4A13454   6.298  14.376   6.739 -0.4193  0.1116 -0.0309
  998YOPC   C1B13455   7.002  15.205   6.238  0.2698  0.0518 -0.2400
  998YOPC   C2B13456   7.098  15.260   6.795 -0.1999  0.2577 -0.1514
  998YOPC   D3B13457   7.182  14.907   6.911 -0.2576  0.0503  0.0575
  998YOPC   C4B13458   7.032  14.500   6.956  0.3601  0.0554 -0.3144
  999YOPC   NC313459  12.927   4.113   5.718  0.0788  0.0330 -0.1245
  999YOPC   PO413460  13.110   4.516   5.697  0.3666  0.0286 -0.0850
  999YOPC   GL113461  13.044   4.696   5.969  0.1885  0.0736 -0.0166
  999YOPC   GL213462  12.802   4.971   5.941 -0.0148 -0.2029  0.0962
  999YOPC   C1A13463  12.873   4.677   6.360  0.1431 -0.0150 -0.0077
  999YOPC   D2A13464  12.839   4.521   6.909  0.2913 -0.0092 -0.1396
  999YOPC   C3A13465  12.756   4.111   6.870  0.2096  0.0879 -0.2122
  999YOPC   C4A13466  12.547   3.776   6.744 -0.2363 -0.1225 -0.2546
  999YOPC   C1B13467  13.088   5.385   5.961  0.1301  0.0044  0.2389
  999YOPC   C2B13468  13.301   5.615   6.185 -0.2866  0.1721 -0.1685
  999YOPC   D3B13469  13.244   6.035   6.186 -0.2625  0.1455  0.0033
  999YOPC   C4B13470  13.032   6.272   5.859 -0.0092 -0.0914 -0.0615
 1000YOPC   NC313471   6.739  16.816   5.552  0.0865  0.2609  0.0184
 1000YOPC   PO413472   6.617  16.509   5.747 -0.1069  0.2986  0.1576
 1000YOPC   GL113473   6.710  16.496   6.109 -0.1009  0.4261  0.0236
 1000YOPC   GL213474   6.715  16.171   6.223  0.1337  0.1993 -0.4539
 1000YOPC   C1A13475   6.746  16.878   6.424 -0.2876  0.0414  0.1134
 1000YOPC   D2A13476   6.510  17.308   6.490 -0.0411 -0.1277 -0.0302
 1000YOPC   C3A13477   6.439  17.335   6.951 -0.1391 -0.0233  0.2934
 1000YOPC   C4A13478   6.369  17.577   7.320  0.2727 -0.1137 -0.1096
 1000YOPC   C1B13479   6.321  16.228   6.364 -0.1741  0.0609 -0.1052
 1000YOPC   C2B13480   6.071  16.180   6.797 -0.1513 -0.2081  0.5364
 1000YOPC   D3B13481   6.200  16.367   7.156 -0.0435 -0.1676 -0.0791
 1000YOPC   C4B13482   6.660  16.639   7.182 -0.0728 -0.0373  0.1917
 1001YOPC   NC313483  10.650  10.514   5.463 -0.0897  0.2049 -0.1546
 1001YOPC   PO413484  10.272  10.305   5.482 -0.0022  0.4339 -0.0205
 1001YOPC   GL113485  10.371  10.300   5.877 -0.0001  0.0434  0.2633
 1001YOPC   GL213486  10.148  10.511   5.952 -0.2133 -0.2085  0.1519
 1001YOPC   C1A13487  10.583   9.969   6.156 -0.4451 -0.1666  0.0750
 1001YOPC   D2A13488  10.639   9.646   6.347  0.1983  0.2147  0.4043
 1001YOPC   C3A13489  10.566   9.674   6.807 -0.1233 -0.1296 -0.1727
 1001YOPC   C4A13490  10.450   9.765   7.259  0.2795 -0.2049 -0.0489
 1001YOPC   C1B13491   9.905  10.855   6.143 -0.1011  0.1813  0.0236
 1001YOPC   C2B13492   9.558  10.785   6.315  0.0452  0.3292 -0.0827
 1001YOPC   D3B13493   9.504  10.487   6.623 -0.0832 -0.1020  0.0650
 1001YOPC   C4B13494   9.570  10.143   6.953  0.1333 -0.0379 -0.0718
 1002YOPC   NC313495  10.899  15.286   5.303 -0.2807  0.0569 -0.2373
 1002YOPC   PO413496  10.768  15.520   5.766 -0.1963  0.2201  0.3728
 1002YOPC   GL113497  10.821  15.622   6.249 -0.2132  0.0691  0.1555
 1002YOPC   GL213498  10.516  15.787   6.248  0.2242  0.0766 -0.1745
 1002YOPC   C1A13499  10.770  15.768   6.626  0.0005 -0.0115 -0.0229
 1002YOPC   D2A13500  10.790  15.736   7.128 -0.1223 -0.4374  0.1312
 1002YOPC   C3A13501  11.037  15.544   7.392 -0.3805 -0.0598 -0.2321
 1002YOPC   C4A13502  11.131  15.366   7.714 -0.1342  0.0834  0.1487
 1002YOPC   C1B13503  10.297  15.587   6.563 -0.3779 -0.0573 -0.3647
 1002YOPC   C2B13504  10.232  15.536   7.037  0.0784 -0.1255 -0.0970
 1002YOPC   D3B13505  10.497  15.344   7.453  0.4056 -0.3851 -0.4422
 1002YOPC   C4B13506  10.688  15.405   7.933  0.0713  0.1402  0.1216
 1003YOPC   NC313507   5.664  16.704   5.856  0.1987 -0.0589  0.2477
 1003YOPC   PO413508   5.427  17.015   5.890  0.2564  0.0336  0.0016
 1003YOPC   GL113509   5.567  17.222   6.282 -0.3539  0.1990  0.0559
 1003YOPC   GL213510   5.335  17.469   6.332  0.0111  0.2210 -0.1179
 1003YOPC   C1A13511   5.624  17.163   6.711  0.5273  0.2333 -0.0554
 1003YOPC   D2A13512   5.857  17.217   7.084 -0.3688 -0.4046 -0.0591
 1003YOPC   C3A13513   5.543  17.380   7.498  0.3594  0.1924  0.2070
 1003YOPC   C4A13514   5.246  17.238   7.805  0.2814  0.2530  0.1237
 1003YOPC   C1B13515   5.512  17.627   6.671 -0.0545  0.0884  0.2176
 1003YOPC   C2B13516   5.264  17.521   6.890  0.1049  0.3602 -0.1433
 1003YOPC   D3B13517   5.227  17.752   7.315 -0.5929  0.0110 -0.1309
 1003YOPC   C4B13518   5.246  18.103   7.437  0.1876 -0.2921 -0.1592
 1004YOPC   NC313519  18.215   3.239   5.648 -0.0098 -0.0200  0.2114
 1004YOPC   PO413520  18.262   2.826   5.630 -0.0784 -0.0190  0.2951
 1004YOPC   GL113521  18.336   2.915   6.053  0.2482 -0.1179 -0.3003
 1004YOPC   GL213522  18.620   3.106   6.175 -0.0283  0.0573  0.0345
 1004YOPC   C1A13523  18.003   2.869   6.393 -0.2574  0.1252 -0.0039
 1004YOPC   D2A13524  17.564   2.825   6.588 -0.1527  0.2269  0.1236
 1004YOPC   C3A13525  17.376   2.834   7.040  0.0582 -0.2930  0.1789
 1004YOPC   C4A13526  17.106   2.876   7.350  0.3086 -0.2047 -0.0180
 1004YOPC   C1B13527  18.531   3.232   6.584  0.1843  0.3759 -0.1289
 1004YOPC   C2B13528  18.104   3.268   6.814 -0.2157  0.2047 -0.1243
 1004YOPC   D3B13529  17.971   3.221   7.280  0.2249  0.1816 -0.1892
 1004YOPC   C4B13530  17.508   3.221   7.438  0.2211 -0.0247 -0.3588
 1005YOPC   NC313531  10.187  15.475   5.894 -0.4166 -0.0010  0.0262
 1005YOPC   PO413532  10.012  15.972   5.806  0.3510  0.1877  0.2615
 1005YOPC   GL113533   9.964  15.845   6.252  0.0817  0.2005  0.3071
 1005YOPC   GL213534   9.886  15.431   6.397 -0.0573  0.0104 -0.2814
 1005YOPC   C1A13535   9.681  15.825   6.628  0.1207 -0.3438  0.2050
 1005YOPC   D2A13536   9.408  15.640   6.870  0.2387  0.2615  0.0872
 1005YOPC   C3A13537   9.394  15.177   6.967  0.1691 -0.2913  0.0630
 1005YOPC   C4A13538   9.310  14.835   7.122 -0.0440  0.1830  0.0227
 1005YOPC   C1B13539   9.850  15.345   6.807 -0.2024  0.0530  0.2786
 1005YOPC   C2B13540   9.837  15.102   7.216  0.0783  0.1086 -0.0297
 1005YOPC   D3B13541   9.426  15.147   7.484 -0.4441  0.2464 -0.2128
 1005YOPC   C4B13542   9.000  15.010   7.424 -0.1489  0.1422 -0.5094
 1006YOPC   NC313543   6.418  17.680   5.389 -0.2539  0.1239 -0.2262
 1006YOPC   PO413544   6.046  17.770   5.648 -0.1279 -0.0058  0.0890
 1006YOPC   GL113545   6.078  18.090   6.015  0.2888  0.1378 -0.1943
 1006YOPC   GL213546   6.010  18.411   6.018  0.0539  0.1198 -0.0059
 1006YOPC   C1A13547   6.223  18.269   6.479 -0.2869  0.2649 -0.0355
 1006YOPC   D2A13548   6.180  18.089   6.957 -0.1528 -0.0760  0.2318
 1006YOPC   C3A13549   5.962  17.696   6.885 -0.1163 -0.1281 -0.1533
 1006YOPC   C4A13550   6.028  17.359   6.527  0.3306 -0.0085 -0.2945
 1006YOPC   C1B13551   5.799  18.704   6.123 -0.0355 -0.0778  0.1399
 1006YOPC   C2B13552   5.901  18.799   6.587  0.1288  0.0230 -0.1754
 1006YOPC   D3B13553   6.004  18.652   6.928  0.0389 -0.2340  0.2618
 1006YOPC   C4B13554   6.047  18.507   7.298 -0.1444 -0.2166 -0.1752
 1007YOPC   NC313555  18.731  16.864   5.570 -0.2888  0.1050  0.1750
 1007YOPC   PO413556  18.945  16.633   5.946  0.1460 -0.0706 -0.1214
 1007YOPC   GL113557  18.724  16.486   6.259 -0.1219 -0.1170 -0.1567
 1007YOPC   GL213558  18.695  16.713   6.505  0.3354  0.4230  0.2976
 1007YOPC   C1A13559  18.639  16.110   6.510 -0.4670 -0.3125 -0.0432
 1007YOPC   D2A13560  18.771  15.827   6.839  0.0917 -0.2819 -0.3385
 1007YOPC   C3A13561  18.733  15.397   6.955  0.0671  0.2015  0.0725
 1007YOPC   C4A13562  19.014  15.064   6.886  0.0828  0.1647  0.1168
 1007YOPC   C1B13563  18.805  16.461   6.845  0.3489 -0.0051 -0.1513
 1007YOPC   C2B13564  18.658  16.526   7.209  0.1494 -0.1992  0.0186
 1007YOPC   D3B13565  18.269  16.222   7.385  0.0430  0.3765 -0.1175
 1007YOPC   C4B13566  17.880  16.198   7.545 -0.1984 -0.0040 -0.3228
 1008YOPC   NC313567  17.242   7.870   5.547 -0.0485  0.0845  0.3596
 1008YOPC   PO413568  17.435   8.325   5.485  0.1944  0.0655  0.3053
 1008YOPC   GL113569  17.310   8.192   5.965  0.1228  0.0230 -0.0433
 1008YOPC   GL213570  17.311   7.815   6.113 -0.1475  0.0854 -0.0428
 1008YOPC   C1A13571  17.288   8.151   6.498  0.0122  0.3001  0.0860
 1008YOPC   D2A13572  17.370   7.871   6.834  0.0206  0.1760  0.0707
 1008YOPC   C3A13573  17.035   7.562   6.974 -0.2541 -0.1200  0.1868
 1008YOPC   C4A13574  16.792   7.614   7.386 -0.0721 -0.1303 -0.0841
 1008YOPC   C1B13575  17.700   7.731   6.423  0.0430 -0.1810  0.0435
 1008YOPC   C2B13576  17.980   7.508   6.575  0.1112 -0.0689  0.1914
 1008YOPC   D3B13577  18.191   7.474   6.927 -0.0912  0.0653  0.0008
 1008YOPC   C4B13578  18.653   7.305   6.956  0.1931  0.0645 -0.0297
 1009YOPC   NC313579   7.747  13.923   5.887  0.2639 -0.2541  0.2604
 1009YOPC   PO413580   7.610  13.450   5.823 -0.4176  0.2554  0.1815
 1009YOPC   GL113581   7.497  13.678   6.229  0.4218 -0.0735  0.2663
 1009YOPC   GL213582   7.335  13.953   6.204  0.0746  0.3687 -0.1220
 1009YOPC   C1A13583   7.586  13.796   6.672  0.2692  0.0233 -0.1137
 1009YOPC   D2A13584   7.329  13.832   6.925  0.3857  0.2961  0.2291
 1009YOPC   C3A13585   6.989  13.572   7.189  0.0639 -0.0773  0.0102
 1009YOPC   C4A13586   6.529  13.570   7.384 -0.1334  0.1544  0.0160
 1009YOPC   C1B13587   7.147  14.196   6.555  0.1314 -0.0833 -0.0011
 1009YOPC   C2B13588   6.838  14.035   6.842  0.0515  0.0877  0.0119
 1009YOPC   D3B13589   6.599  14.233   7.218 -0.1618 -0.0078 -0.2905
 1009YOPC   C4B13590   6.786  14.341   7.596  0.1923 -0.3910  0.1102
 1010YOPC   NC313591  18.673  12.008   5.844  0.3045 -0.1057  0.0101
 1010YOPC   PO413592  18.443  12.374   5.661 -0.1468 -0.0736  0.2599
 1010YOPC   GL113593  18.052  12.593   5.863 -0.0508 -0.0617  0.0271
 1010YOPC   GL213594  18.212  12.886   5.885  0.5605 -0.0323 -0.1663
 1010YOPC   C1A13595  18.155  12.561   6.360  0.1113  0.0059 -0.1982
 1010YOPC   D2A13596  18.468  12.559   6.732  0.0797  0.1601 -0.0381
 1010YOPC   C3A13597  18.474  12.470   7.209  0.0202 -0.1931  0.0668
 1010YOPC   C4A13598  18.408  12.493   7.626  0.1722  0.0146 -0.1044
 1010YOPC   C1B13599  17.918  13.030   6.178 -0.0622  0.2579 -0.0162
 1010YOPC   C2B13600  17.582  13.198   6.343  0.3761 -0.0235 -0.3299
 1010YOPC   D3B13601  17.742  13.655   6.188  0.1969  0.0113 -0.3729
 1010YOPC   C4B13602  17.759  14.053   5.901  0.0481 -0.1046 -0.1580
 1011YOPC   NC313603   1.902   0.988   5.783  0.1521 -0.4259 -0.0325
 1011YOPC   PO413604   1.970   0.607   5.558  0.1966  0.2533 -0.0637
 1011YOPC   GL113605   2.056   0.551   6.042  0.4254 -0.1829 -0.1175
 1011YOPC   GL213606   2.122   0.881   6.220  0.0983  0.0367 -0.2831
 1011YOPC   C1A13607   1.907   0.449   6.365 -0.1381  0.0363 -0.0479
 1011YOPC   D2A13608   2.020   0.429   6.795 -0.1840  0.2125 -0.0981
 1011YOPC   C3A13609   1.616   0.491   7.077 -0.0942  0.0012  0.1425
 1011YOPC   C4A13610   1.439   0.249   7.324  0.0714 -0.0580 -0.2859
 1011YOPC   C1B13611   2.011   0.937   6.578  0.1078  0.0243 -0.0354
 1011YOPC   C2B13612   2.127   0.849   7.055  0.3195  0.0387 -0.0665
 1011YOPC   D3B13613   2.255   0.515   7.234  0.0599  0.4976  0.0511
 1011YOPC   C4B13614   2.182   0.085   7.216  0.1435  0.0034 -0.0141
 1012YOPC   NC313615   6.456  14.664   5.283  0.3491 -0.3589  0.1796
 1012YOPC   PO413616   6.589  14.326   5.586 -0.1049 -0.2921  0.1092
 1012YOPC   GL113617   6.258  14.256   5.979  0.0679  0.2835  0.3250
 1012YOPC   GL213618   5.983  14.142   5.790  0.1513 -0.0657 -0.0074
 1012YOPC   C1A13619   5.960  14.335   6.298  0.0605 -0.0489 -0.3149
 1012YOPC   D2A13620   5.868  14.420   6.821  0.0479 -0.2941  0.0055
 1012YOPC   C3A13621   6.100  14.325   7.254 -0.2563 -0.2756 -0.0383
 1012YOPC   C4A13622   6.197  14.005   7.496  0.1677  0.1745  0.1273
 1012YOPC   C1B13623   5.823  13.858   6.190 -0.1807 -0.4015 -0.0984
 1012YOPC   C2B13624   5.842  13.592   6.581 -0.0659  0.0504  0.1166
 1012YOPC   D3B13625   6.191  13.445   6.757  0.3166 -0.3716  0.1325
 1012YOPC   C4B13626   6.561  13.587   6.805 -0.0667  0.0569 -0.0540
 1013YOPC   NC313627  12.478  16.656   5.137 -0.0890 -0.0903 -0.2467
 1013YOPC   PO413628  12.588  16.557   5.673 -0.0476 -0.0677 -0.4432
 1013YOPC   GL113629  12.594  16.722   6.071  0.1804  0.2782  0.0673
 1013YOPC   GL213630  12.908  16.639   6.193 -0.2058  0.0088  0.1149
 1013YOPC   C1A13631  12.451  16.809   6.557  0.3333  0.0890 -0.1159
 1013YOPC   D2A13632  12.470  16.804   7.009  0.2033 -0.1803 -0.2437
 1013YOPC   C3A13633  12.559  17.229   7.239  0.2667 -0.0499  0.0541
 1013YOPC   C4A13634  12.809  17.511   7.330 -0.0802 -0.0894 -0.2403
 1013YOPC   C1B13635  12.976  16.615   6.564  0.1314  0.2169  0.1450
 1013YOPC   C2B13636  12.969  16.522   6.973 -0.2090 -0.0158  0.0882
 1013YOPC   D3B13637  12.689  16.309   7.171  0.1791  0.4571  0.0013
 1013YOPC   C4B13638  12.469  16.509   7.467  0.1888 -0.1045  0.1327
 1014YOPC   NC313639   7.059   9.243   5.562 -0.1204 -0.2874 -0.1058
 1014YOPC   PO413640   7.261   8.904   5.573  0.2151  0.5643 -0.2047
 1014YOPC   GL113641   7.161   9.037   6.031  0.0053 -0.0326  0.1099
 1014YOPC   GL213642   7.126   9.398   6.024  0.1717  0.0737 -0.2776
 1014YOPC   C1A13643   7.156   9.026   6.508 -0.0512  0.0508 -0.2923
 1014YOPC   D2A13644   6.974   8.982   6.813  0.1561  0.0371 -0.1972
 1014YOPC   C3A13645   6.764   8.658   6.679  0.2782  0.2712  0.1471
 1014YOPC   C4A13646   6.673   8.790   6.300 -0.3089  0.1721  0.2508
 1014YOPC   C1B13647   7.065   9.541   6.484  0.0770 -0.2321 -0.2487
 1014YOPC   C2B13648   6.924   9.603   6.863 -0.3824 -0.2026  0.0182
 1014YOPC   D3B13649   6.904   9.386   7.123 -0.1750  0.0642 -0.0340
 1014YOPC   C4B13650   6.747   9.549   7.587 -0.1454 -0.3416 -0.0098
 1015YOPC   NC313651  12.134   0.612   5.034  0.1167  0.2321 -0.2828
 1015YOPC   PO413652  11.873   0.674   5.412  0.3051 -0.1005 -0.0336
 1015YOPC   GL113653  11.915   0.659   5.861  0.1523  0.1211  0.0750
 1015YOPC   GL213654  11.623   0.584   6.071 -0.2830  0.1228 -0.0480
 1015YOPC   C1A13655  12.132   0.874   6.251  0.2750  0.0078 -0.2696
 1015YOPC   D2A13656  12.563   0.989   6.475  0.1808  0.0959  0.0814
 1015YOPC   C3A13657  12.676   1.409   6.657  0.3686 -0.0834 -0.3229
 1015YOPC   C4A13658  12.674   1.802   6.651 -0.1335  0.1315  0.0276
 1015YOPC   C1B13659  11.736   0.655   6.511  0.2850 -0.0114  0.0391
 1015YOPC   C2B13660  11.764   0.712   6.798  0.0168  0.4248 -0.2656
 1015YOPC   D3B13661  11.823   0.326   6.965 -0.2065  0.0919 -0.1813
 1015YOPC   C4B13662  12.074  -0.033   6.891 -0.0435  0.2919 -0.0340
 1016YOPC   NC313663  12.947   0.097   5.147 -0.1457 -0.0172  0.0482
 1016YOPC   PO413664  13.044   0.300   5.389  0.1805 -0.3196  0.0293
 1016YOPC   GL113665  13.100   0.378   5.761  0.0436 -0.1782  0.1218
 1016YOPC   GL213666  13.390   0.386   5.904  0.2781  0.1092 -0.4759
 1016YOPC   C1A13667  13.067   0.627   6.144  0.1612 -0.0360  0.0443
 1016YOPC   D2A13668  13.265   0.887   6.354  0.0560  0.0819  0.1200
 1016YOPC   C3A13669  13.143   1.088   6.727  0.5037  0.3827  0.1097
 1016YOPC   C4A13670  12.902   1.027   7.138 -0.0034 -0.0742  0.2545
 1016YOPC   C1B13671  13.497   0.220   6.211 -0.1694 -0.0640 -0.0038
 1016YOPC   C2B13672  13.582   0.174   6.607 -0.1115 -0.0843  0.3776
 1016YOPC   D3B13673  13.901   0.050   6.906 -0.1984  0.1570 -0.0321
 1016YOPC   C4B13674  13.882  -0.220   7.264  0.0436 -0.1477  0.0165
 1017YOPC   NC313675   9.117   0.109   5.063  0.1337  0.0776  0.0346
 1017YOPC   PO413676   9.105   0.417   5.325 -0.1053 -0.0062  0.1636
 1017YOPC   GL113677   9.139   0.650   5.678  0.3978  0.0424  0.0076
 1017YOPC   GL213678   8.951   0.550   5.959  0.0477  0.3147 -0.1447
 1017YOPC   C1A13679   9.424   0.620   6.001  0.3743  0.3600  0.3365
 1017YOPC   D2A13680   9.852   0.417   6.366  0.1564  0.1515 -0.1312
 1017YOPC   C3A13681  10.045   0.085   6.491 -0.4874  0.2779 -0.2694
 1017YOPC   C4A13682  10.141  -0.054   6.835 -0.1664 -0.3258  0.1896
 1017YOPC   C1B13683   9.084   0.731   6.304 -0.3718  0.1338 -0.0178
 1017YOPC   C2B13684   9.205   0.830   6.738  0.4488 -0.1594  0.2444
 1017YOPC   D3B13685   9.280   1.252   6.845 -0.0083 -0.1602  0.3739
 1017YOPC   C4B13686   9.486   1.469   7.170  0.2035  0.0725 -0.0934
 1018YOPC   NC313687   9.086  15.786   5.799 -0.0022  0.1478  0.1874
 1018YOPC   PO413688   9.166  15.867   6.168  0.3570  0.1551  0.0857
 1018YOPC   GL113689   9.444  16.144   6.248  0.2040 -0.3577  0.4018
 1018YOPC   GL213690   9.337  16.196   6.633 -0.0328  0.0543  0.1152
 1018YOPC   C1A13691   9.855  16.368   6.512  0.2442 -0.2025 -0.3038
 1018YOPC   D2A13692  10.105  16.684   6.731  0.1435  0.1726 -0.0940
 1018YOPC   C3A13693  10.074  17.017   7.023  0.3936  0.1040  0.0539
 1018YOPC   C4A13694   9.943  17.153   7.495 -0.0316  0.1269 -0.0706
 1018YOPC   C1B13695   9.615  16.260   6.960  0.0813  0.1327 -0.0501
 1018YOPC   C2B13696   9.932  16.305   7.185 -0.1615 -0.0933 -0.0063
 1018YOPC   D3B13697  10.075  16.612   7.365  0.1747  0.0134 -0.0674
 1018YOPC   C4B13698  10.148  16.788   7.768 -0.3786 -0.1220 -0.2531
 1019YOPC   NC313699   3.173  17.992   5.519  0.1467  0.2044  0.4555
 1019YOPC   PO413700   2.920  18.428   5.607 -0.1837  0.0122  0.0856
 1019YOPC   GL113701   2.907  18.132   6.016  0.0847  0.0927  0.2403
 1019YOPC   GL213702   3.230  18.109   6.078 -0.0391 -0.0678 -0.1106
 1019YOPC   C1A13703   3.025  17.905   6.456 -0.4304 -0.0050  0.0272
 1019YOPC   D2A13704   3.264  17.741   6.775  0.0952 -0.1463 -0.1112
 1019YOPC   C3A13705   3.165  17.313   6.911 -0.0634  0.2010  0.0994
 1019YOPC   C4A13706   2.906  17.234   7.343  0.1211  0.3232  0.2078
 1019YOPC   C1B13707   3.427  18.087   6.492 -0.1673 -0.2593  0.2323
 1019YOPC   C2B13708   3.738  17.688   6.581  0.1573 -0.1039  0.1995
 1019YOPC   D3B13709   3.787  17.533   7.012  0.2546 -0.2636 -0.1037
 1019YOPC   C4B13710   3.872  17.602   7.443  0.2634 -0.2444  0.0794
 1020YOPC   NC313711  15.647   7.352   5.453 -0.3342  0.3473 -0.3151
 1020YOPC   PO413712  15.499   7.761   5.500  0.0330  0.1332 -0.2197
 1020YOPC   GL113713  15.329   7.858   5.963  0.3267  0.0828  0.3317
 1020YOPC   GL213714  15.128   7.712   6.062  0.3198  0.1022 -0.0930
 1020YOPC   C1A13715  15.662   7.667   6.224 -0.4133 -0.2580  0.1424
 1020YOPC   D2A13716  16.019   7.419   6.256 -0.2921 -0.5530  0.1073
 1020YOPC   C3A13717  16.082   7.155   6.565 -0.1899  0.0015 -0.0758
 1020YOPC   C4A13718  16.016   6.693   6.704 -0.0027  0.1805  0.1273
 1020YOPC   C1B13719  15.269   7.853   6.484  0.3048 -0.1125 -0.2713
 1020YOPC   C2B13720  14.990   7.818   6.862  0.0342  0.1392  0.0222
 1020YOPC   D3B13721  14.979   7.665   7.318  0.5944 -0.1670 -0.0051
 1020YOPC   C4B13722  14.819   7.505   7.749 -0.0945  0.2340  0.1948
 1021YOPC   NC313723  13.199  13.212   6.040  0.1015  0.0258 -0.0522
 1021YOPC   PO413724  13.676  13.024   6.143  0.2108 -0.1881 -0.2564
 1021YOPC   GL113725  13.604  12.940   6.532  0.2705  0.4038 -0.3223
 1021YOPC   GL213726  13.256  12.878   6.522  0.1677 -0.2552 -0.0966
 1021YOPC   C1A13727  13.508  13.138   6.927  0.1523  0.0857 -0.0850
 1021YOPC   D2A13728  13.155  13.255   7.131  0.0370  0.2728  0.0941
 1021YOPC   C3A13729  12.815  13.555   7.055  0.1202  0.0304  0.2559
 1021YOPC   C4A13730  12.411  13.407   7.314  0.0721 -0.0919 -0.1509
 1021YOPC   C1B13731  13.387  12.647   6.843 -0.2898  0.0605  0.2892
 1021YOPC   C2B13732  13.251  12.554   7.160 -0.1561 -0.0690 -0.0169
 1021YOPC   D3B13733  13.400  12.827   7.385  0.0979  0.0117  0.0598
 1021YOPC   C4B13734  13.472  13.314   7.528  0.1251  0.2746 -0.1968
 1022YOPC   NC313735  12.252   1.894   5.235  0.1134  0.3167 -0.3115
 1022YOPC   PO413736  12.171   2.440   5.285 -0.1387  0.0202  0.1013
 1022YOPC   GL113737  12.334   2.564   5.645 -0.2898  0.0831 -0.1888
 1022YOPC   GL213738  12.485   2.253   5.782  0.1188 -0.2583  0.0317
 1022YOPC   C1A13739  12.096   2.840   5.793  0.2158 -0.2240 -0.2988
 1022YOPC   D2A13740  11.927   3.243   5.624  0.1331 -0.2064 -0.1238
 1022YOPC   C3A13741  11.660   3.485   5.857 -0.3109 -0.0369 -0.3819
 1022YOPC   C4A13742  11.544   3.883   6.045  0.1025 -0.2076 -0.0914
 1022YOPC   C1B13743  12.544   1.784   5.917  0.0718  0.0454 -0.3906
 1022YOPC   C2B13744  12.722   1.405   6.143  0.1660  0.3266 -0.1005
 1022YOPC   D3B13745  12.596   1.030   5.961 -0.1210 -0.2276 -0.1365
 1022YOPC   C4B13746  12.556   0.589   6.112 -0.5611  0.0626 -0.1144
 1023YOPC   NC313747  14.606  13.843   5.681 -0.0667 -0.0332 -0.2363
 1023YOPC   PO413748  14.481  13.678   6.054 -0.0155  0.2323  0.0737
 1023YOPC   GL113749  14.535  13.673   6.510 -0.2433 -0.0612 -0.3562
 1023YOPC   GL213750  14.552  13.243   6.510  0.0080 -0.0329  0.2020
 1023YOPC   C1A13751  14.342  13.921   6.800 -0.1549 -0.2502 -0.1624
 1023YOPC   D2A13752  14.189  13.737   7.180  0.3082  0.3538  0.2767
 1023YOPC   C3A13753  13.743  13.523   7.152 -0.1851  0.4069  0.2836
 1023YOPC   C4A13754  13.365  13.616   6.910 -0.1820  0.0783 -0.2422
 1023YOPC   C1B13755  14.808  13.345   6.806 -0.2285 -0.1588  0.1833
 1023YOPC   C2B13756  15.032  13.242   7.187 -0.5075 -0.2883 -0.0977
 1023YOPC   D3B13757  15.310  13.477   7.474  0.1110 -0.1051 -0.0514
 1023YOPC   C4B13758  15.523  13.282   7.765  0.0756 -0.0035  0.4189
 1024YOPC   NC313759   4.224  15.906   5.217 -0.2501  0.0160  0.1634
 1024YOPC   PO413760   3.950  16.230   5.445 -0.0030 -0.5383 -0.0619
 1024YOPC   GL113761   3.795  16.224   5.802  0.0751  0.2155 -0.0475
 1024YOPC   GL213762   3.934  16.467   5.887  0.0331  0.3177 -0.1639
 1024YOPC   C1A13763   3.505  16.032   6.132 -0.2298 -0.2737 -0.0431
 1024YOPC   D2A13764   3.491  15.680   6.293 -0.1955  0.1020  0.1334
 1024YOPC   C3A13765   3.314  15.484   6.702 -0.2809  0.2943  0.2182
 1024YOPC   C4A13766   3.382  15.317   7.032 -0.0146  0.1687  0.0043
 1024YOPC   C1B13767   3.681  16.620   6.289  0.1328  0.1740  0.0255
 1024YOPC   C2B13768   3.651  16.535   6.733 -0.3096 -0.0761  0.1809
 1024YOPC   D3B13769   3.934  16.365   7.100 -0.1778  0.0125 -0.2616
 1024YOPC   C4B13770   3.868  16.512   7.494  0.1734 -0.2628 -0.1722
 1025YOPC   NC313771   6.578   6.958   5.301  0.2712 -0.1869 -0.2116
 1025YOPC   PO413772   7.001   7.005   5.379  0.0823  0.0458  0.1107
 1025YOPC   GL113773   6.984   6.831   5.779 -0.2640  0.0185 -0.1688
 1025YOPC   GL213774   6.757   6.530   5.826  0.3577  0.0015  0.1314
 1025YOPC   C1A13775   7.190   6.585   6.167  0.0304 -0.6296  0.1191
 1025YOPC   D2A13776   7.428   6.377   6.478 -0.0231 -0.2041  0.1428
 1025YOPC   C3A13777   7.474   6.620   6.784 -0.1407 -0.1195 -0.1540
 1025YOPC   C4A13778   7.521   6.689   7.155  0.1690  0.2021  0.2351
 1025YOPC   C1B13779   6.666   6.199   6.156 -0.0026  0.3267  0.0834
 1025YOPC   C2B13780   6.625   6.106   6.562 -0.0457 -0.0977 -0.0010
 1025YOPC   D3B13781   6.556   6.373   6.830  0.0594  0.2484 -0.1440
 1025YOPC   C4B13782   6.647   6.310   7.172 -0.0054 -0.1421 -0.3888
 1026YOPC   NC313783  13.349   8.270   4.951  0.0896 -0.0425 -0.1853
 1026YOPC   PO413784  13.099   8.283   5.367  0.0289  0.3871  0.0264
 1026YOPC   GL113785  12.857   8.481   5.669  0.2273  0.2643  0.1476
 1026YOPC   GL213786  12.846   8.733   5.852 -0.0049  0.0536  0.1019
 1026YOPC   C1A13787  12.868   8.263   5.978  0.0055 -0.2162  0.1110
 1026YOPC   D2A13788  12.943   7.986   6.201  0.2774  0.2437 -0.0649
 1026YOPC   C3A13789  12.779   7.948   6.454  0.1450 -0.2596  0.3049
 1026YOPC   C4A13790  12.757   7.860   6.962  0.0473  0.2679 -0.2117
 1026YOPC   C1B13791  12.954   8.870   6.272 -0.0719 -0.1549  0.0832
 1026YOPC   C2B13792  13.063   9.218   6.470 -0.3199 -0.2001 -0.0844
 1026YOPC   D3B13793  13.040   9.384   6.872  0.1882  0.0900 -0.0039
 1026YOPC   C4B13794  12.799   9.281   7.169  0.1717 -0.0936  0.0345
 1027YOPC   NC313795   7.048  14.359   5.828 -0.1038  0.0187  0.2469
 1027YOPC   PO413796   7.452  14.343   5.885  0.0407 -0.0167  0.1395
 1027YOPC   GL113797   7.405  14.520   6.236  0.0763 -0.2515  0.0735
 1027YOPC   GL213798   7.485  14.920   6.191  0.3966 -0.0123  0.2932
 1027YOPC   C1A13799   7.109  14.747   6.446 -0.0247 -0.1162  0.1177
 1027YOPC   D2A13800   6.766  14.889   6.662  0.2171  0.1490 -0.0720
 1027YOPC   C3A13801   6.567  15.240   6.494 -0.0724 -0.0042  0.1925
 1027YOPC   C4A13802   6.206  15.377   6.233  0.0393  0.4933 -0.0992
 1027YOPC   C1B13803   7.525  14.963   6.578 -0.0226  0.1267  0.0046
 1027YOPC   C2B13804   7.622  15.095   6.951  0.1522 -0.1382 -0.1124
 1027YOPC   D3B13805   7.508  14.974   7.378  0.2897  0.4094  0.1619
 1027YOPC   C4B13806   7.549  14.964   7.745 -0.1749 -0.0880  0.1643
 1028YOPC   NC313807  17.345  18.366   5.889  0.0380  0.1501 -0.0575
 1028YOPC   PO413808  17.244  18.007   5.930  0.2072  0.0940 -0.1896
 1028YOPC   GL113809  17.152  17.893   6.395 -0.1148 -0.0130 -0.4586
 1028YOPC   GL213810  16.836  18.093   6.608  0.2369 -0.1142  0.2481
 1028YOPC   C1A13811  17.415  17.971   6.760 -0.0520 -0.1569  0.0912
 1028YOPC   D2A13812  17.823  17.942   7.002  0.0540  0.2067 -0.0672
 1028YOPC   C3A13813  17.820  18.103   7.469 -0.1942  0.1687  0.2123
 1028YOPC   C4A13814  17.860  18.002   7.942  0.1813 -0.0333 -0.4337
 1028YOPC   C1B13815  17.015  18.101   7.070  0.1615 -0.2311  0.0880
 1028YOPC   C2B13816  16.923  18.154   7.525 -0.1381  0.0561  0.0776
 1028YOPC   D3B13817  16.533  18.318   7.767 -0.0865  0.1266 -0.0631
 1028YOPC   C4B13818  16.080  18.157   7.843 -0.0177 -0.1667  0.2473
 1029YOPC   NC313819   4.928  12.641   5.301 -0.1213 -0.0593 -0.1260
 1029YOPC   PO413820   4.569  12.559   5.431 -0.1972  0.0967 -0.4232
 1029YOPC   GL113821   4.488  12.469   5.839  0.0629  0.2473 -0.0396
 1029YOPC   GL213822   4.171  12.705   5.823  0.2286  0.0973 -0.2151
 1029YOPC   C1A13823   4.476  12.446   6.255  0.3818 -0.0278 -0.4355
 1029YOPC   D2A13824   4.377  12.470   6.654  0.2816 -0.1360  0.2428
 1029YOPC   C3A13825   4.061  12.316   6.778 -0.0789  0.2160 -0.0229
 1029YOPC   C4A13826   4.023  12.070   7.297  0.2233 -0.3557  0.2779
 1029YOPC   C1B13827   4.006  12.476   6.060 -0.3210  0.0267 -0.1523
 1029YOPC   C2B13828   4.153  12.051   6.254  0.0157  0.1800  0.2167
 1029YOPC   D3B13829   3.945  11.885   6.629  0.1091 -0.2720  0.1535
 1029YOPC   C4B13830   3.684  12.003   6.966 -0.0230 -0.1618  0.2544
 1030YOPC   NC313831  11.046   6.682   5.270 -0.1257  0.2674 -0.1881
 1030YOPC   PO413832  10.598   6.501   5.269 -0.1555 -0.1533  0.1283
 1030YOPC   GL113833  10.532   6.624   5.661 -0.0429  0.1964  0.2223
 1030YOPC   GL213834  10.741   6.888   5.768 -0.2231  0.0881 -0.0073
 1030YOPC   C1A13835  10.235   6.869   5.878  0.2684 -0.2026  0.0406
 1030YOPC   D2A13836   9.901   7.211   6.060 -0.0269 -0.2600 -0.2154
 1030YOPC   C3A13837  10.173   7.415   6.185 -0.2317 -0.1835 -0.0144
 1030YOPC   C4A13838  10.093   7.488   6.635 -0.1671 -0.1313  0.2257
 1030YOPC   C1B13839  10.679   6.724   6.232  0.2161  0.1263  0.1222
 1030YOPC   C2B13840  10.327   6.457   6.257  0.0798  0.0609 -0.1390
 1030YOPC   D3B13841  10.302   6.262   6.001  0.0187 -0.1145  0.1156
 1030YOPC   C4B13842  10.328   6.049   5.662 -0.1215 -0.1441 -0.1950
 1031YOPC   NC313843   1.389  17.776   5.425 -0.1415  0.0435 -0.0973
 1031YOPC   PO413844   1.351  17.833   5.857  0.3908  0.0176 -0.2021
 1031YOPC   GL113845   1.494  18.040   6.225  0.2531  0.0132 -0.0817
 1031YOPC   GL213846   1.503  18.380   6.371 -0.1911 -0.0042  0.1058
 1031YOPC   C1A13847   1.439  18.066   6.732 -0.3147 -0.1606  0.0432
 1031YOPC   D2A13848   1.568  18.255   7.107  0.1229  0.1041  0.2806
 1031YOPC   C3A13849   1.315  18.298   7.475 -0.1704 -0.3949  0.1501
 1031YOPC   C4A13850   1.488  18.545   7.801 -0.0295  0.2611  0.1378
 1031YOPC   C1B13851   1.566  18.594   6.722  0.1192  0.1736 -0.1423
 1031YOPC   C2B13852   1.734  18.963   6.958  0.5581  0.1881 -0.3534
 1031YOPC   D3B13853   1.540  19.151   6.699 -0.4955 -0.1048 -0.0270
 1031YOPC   C4B13854   1.407  19.446   6.464 -0.2005 -0.3644  0.1420
 1032YOPC   NC313855   8.842   8.843   5.221  0.1903  0.0965 -0.0641
 1032YOPC   PO413856   8.850   9.243   5.388 -0.1095 -0.1790  0.1210
 1032YOPC   GL113857   8.933   9.129   5.773  0.1514  0.1646  0.0740
 1032YOPC   GL213858   9.065   8.850   5.694 -0.0254  0.1416  0.0745
 1032YOPC   C1A13859   9.003   9.201   6.136  0.3617 -0.1146 -0.2212
 1032YOPC   D2A13860   9.325   9.232   6.482  0.3514 -0.0766 -0.1024
 1032YOPC   C3A13861   9.279   8.951   6.656 -0.0628  0.1729 -0.4320
 1032YOPC   C4A13862   9.287   8.898   7.034  0.0335 -0.0445 -0.0642
 1032YOPC   C1B13863   8.748   8.595   5.967  0.1967 -0.3115 -0.1558
 1032YOPC   C2B13864   8.406   8.378   6.180 -0.3371  0.0366  0.1786
 1032YOPC   D3B13865   8.440   8.343   6.593 -0.2315  0.0115 -0.0970
 1032YOPC   C4B13866   8.354   8.394   7.022 -0.0367  0.4930 -0.2617
 1033YOPC   NC313867   2.210   6.250   4.677 -0.0360 -0.3290 -0.0077
 1033YOPC   PO413868   2.256   6.315   5.149 -0.1685 -0.0204 -0.1109
 1033YOPC   GL113869   2.203   6.448   5.691  0.0814 -0.0634 -0.1983
 1033YOPC   GL213870   2.426   6.530   5.856  0.2260  0.0583  0.1751
 1033YOPC   C1A13871   1.865   6.276   5.997  0.2454 -0.0286  0.2192
 1033YOPC   D2A13872   1.446   6.566   6.131  0.4483  0.2495 -0.1851
 1033YOPC   C3A13873   1.471   7.001   6.229 -0.0697 -0.0591 -0.0446
 1033YOPC   C4A13874   1.260   7.310   6.039  0.0253 -0.0026 -0.1689
 1033YOPC   C1B13875   2.330   6.606   6.254 -0.2061 -0.3602  0.3023
 1033YOPC   C2B13876   2.062   6.776   6.486  0.1980 -0.0010  0.2113
 1033YOPC   D3B13877   1.917   6.640   6.858  0.1337 -0.2382 -0.2932
 1033YOPC   C4B13878   1.603   6.581   7.180  0.3488 -0.2499  0.0540
 1034YOPC   NC313879   5.524   8.771   5.258  0.1101 -0.0337 -0.0201
 1034YOPC   PO413880   5.827   8.705   5.444  0.2497 -0.0157 -0.2651
 1034YOPC   GL113881   5.792   8.771   5.856  0.2645  0.1421 -0.1968
 1034YOPC   GL213882   5.961   9.100   5.969  0.1592  0.1223 -0.1620
 1034YOPC   C1A13883   5.956   8.789   6.340  0.0610  0.1488 -0.1526
 1034YOPC   D2A13884   6.266   8.846   6.620 -0.1004 -0.2131  0.0813
 1034YOPC   C3A13885   6.397   9.053   6.925 -0.1314  0.1628  0.0396
 1034YOPC   C4A13886   6.529   9.136   7.434 -0.0700  0.0617  0.0087
 1034YOPC   C1B13887   6.336   9.191   6.162 -0.0907  0.1284  0.1303
 1034YOPC   C2B13888   6.604   9.326   6.518  0.2751  0.0203  0.0526
 1034YOPC   D3B13889   6.339   9.553   6.820 -0.2359  0.2218  0.1108
 1034YOPC   C4B13890   6.100   9.556   7.148  0.2330  0.2019  0.0432
 1035YOPC   NC313891  18.801   6.659   5.685 -0.0937 -0.4597 -0.0958
 1035YOPC   PO413892  18.682   6.257   5.839 -0.3647  0.0308 -0.0345
 1035YOPC   GL113893  18.592   6.238   6.261  0.1729 -0.0148 -0.1216
 1035YOPC   GL213894  18.401   6.131   6.385  0.4339  0.0554  0.2582
 1035YOPC   C1A13895  18.758   6.322   6.704 -0.2295  0.0606  0.1791
 1035YOPC   D2A13896  18.811   6.121   7.095 -0.1968  0.2012 -0.0815
 1035YOPC   C3A13897  18.672   5.735   7.217  0.1170  0.2459  0.0272
 1035YOPC   C4A13898  18.695   5.319   7.332 -0.0149 -0.0639 -0.0780
 1035YOPC   C1B13899  18.297   6.184   6.786 -0.0578  0.4646  0.2759
 1035YOPC   C2B13900  18.232   5.951   7.088 -0.1872 -0.0523 -0.0025
 1035YOPC   D3B13901  17.987   5.794   7.307 -0.1048  0.0916  0.4410
 1035YOPC   C4B13902  17.785   5.394   7.365  0.3023 -0.2606 -0.2310
 1036YOPC   NC313903   3.295   0.452   5.754 -0.2820 -0.1336 -0.0234
 1036YOPC   PO413904   2.918   0.173   5.937 -0.1083 -0.0632 -0.1236
 1036YOPC   GL113905   2.853   0.238   6.292  0.1241  0.0733 -0.0621
 1036YOPC   GL213906   2.856  -0.043   6.395  0.0924 -0.1427 -0.0901
 1036YOPC   C1A13907   2.936   0.409   6.633 -0.1529  0.3959 -0.0876
 1036YOPC   D2A13908   3.254   0.643   6.917  0.3455 -0.0734  0.1896
 1036YOPC   C3A13909   3.261   0.719   7.266  0.0063 -0.0589  0.1559
 1036YOPC   C4A13910   3.034   0.779   7.711  0.0608  0.0086 -0.0934
 1036YOPC   C1B13911   2.995  -0.067   6.686  0.2735  0.1715 -0.3330
 1036YOPC   C2B13912   2.962  -0.176   7.109  0.0598  0.0685  0.0279
 1036YOPC   D3B13913   3.280  -0.268   7.409 -0.1163 -0.1591 -0.4473
 1036YOPC   C4B13914   3.766  -0.465   7.294  0.1566 -0.1880  0.1990
 1037YOPC   NC313915   5.452   3.281   5.660  0.2061 -0.1664 -0.1793
 1037YOPC   PO413916   5.770   3.643   5.677 -0.0226 -0.1221  0.0732
 1037YOPC   GL113917   5.625   3.697   6.116 -0.0125 -0.3325 -0.0037
 1037YOPC   GL213918   5.542   4.053   6.152 -0.1059  0.1172 -0.1858
 1037YOPC   C1A13919   5.489   3.755   6.500  0.2792  0.1956 -0.0076
 1037YOPC   D2A13920   5.494   3.699   6.901 -0.0666  0.1168  0.1217
 1037YOPC   C3A13921   5.301   3.859   7.216 -0.1943  0.1204  0.0865
 1037YOPC   C4A13922   5.307   4.161   7.466 -0.1868  0.0163 -0.1117
 1037YOPC   C1B13923   5.637   4.195   6.552 -0.1611 -0.1020  0.1678
 1037YOPC   C2B13924   5.744   4.465   6.888  0.1101 -0.2638  0.1863
 1037YOPC   D3B13925   5.711   4.578   7.421  0.3804 -0.0546  0.0222
 1037YOPC   C4B13926   5.747   5.022   7.583 -0.0914  0.0897  0.0716
 1038YOPC   NC313927   0.769   7.038   5.512 -0.4565 -0.2815  0.2738
 1038YOPC   PO413928   0.604   6.523   5.645 -0.1342  0.2161  0.1224
 1038YOPC   GL113929   0.708   6.525   6.035 -0.0908 -0.1236  0.0113
 1038YOPC   GL213930   0.923   6.826   5.960 -0.2586 -0.1265  0.0067
 1038YOPC   C1A13931   0.912   6.414   6.374 -0.1629  0.0911 -0.4640
 1038YOPC   D2A13932   0.944   6.585   6.761  0.1961  0.0785 -0.1014
 1038YOPC   C3A13933   1.096   6.364   7.007  0.2300  0.1133 -0.0795
 1038YOPC   C4A13934   1.158   6.244   7.361 -0.1883 -0.0989 -0.1130
 1038YOPC   C1B13935   0.996   6.937   6.412  0.1609  0.0165  0.3923
 1038YOPC   C2B13936   1.239   7.181   6.619  0.0729  0.1327  0.3053
 1038YOPC   D3B13937   1.542   7.119   6.981  0.1593  0.2490 -0.0731
 1038YOPC   C4B13938   2.028   7.061   7.069 -0.2200 -0.1789 -0.1934
 1039YOPC   NC313939  14.358   4.634   5.619  0.0319  0.0470 -0.1519
 1039YOPC   PO413940  14.702   4.861   5.538 -0.0618 -0.0523  0.0479
 1039YOPC   GL113941  14.689   4.769   5.983  0.2711  0.2063  0.0837
 1039YOPC   GL213942  14.675   4.547   6.099 -0.1544  0.1387  0.0103
 1039YOPC   C1A13943  14.952   4.852   6.380 -0.2791  0.1206 -0.0713
 1039YOPC   D2A13944  15.153   4.868   6.832  0.3383  0.2487 -0.0764
 1039YOPC   C3A13945  15.186   4.502   7.184 -0.0344 -0.2326  0.0700
 1039YOPC   C4A13946  15.356   4.151   7.252 -0.2267  0.0393 -0.1681
 1039YOPC   C1B13947  14.708   4.454   6.541 -0.3772  0.0372  0.1820
 1039YOPC   C2B13948  14.679   4.867   6.772 -0.0995  0.1288 -0.1176
 1039YOPC   D3B13949  14.719   4.844   7.151 -0.2424 -0.4157 -0.1817
 1039YOPC   C4B13950  14.896   4.694   7.553 -0.0218 -0.1398  0.0052
 1040YOPC   NC313951   8.627  14.973   5.877  0.3120  0.1921  0.1184
 1040YOPC   PO413952   8.173  14.891   5.840  0.1316 -0.0965  0.2289
 1040YOPC   GL113953   8.155  14.957   6.269  0.1888  0.1108 -0.0240
 1040YOPC   GL213954   8.001  15.161   6.238 -0.1106 -0.0370 -0.0459
 1040YOPC   C1A13955   7.985  14.839   6.706  0.1023  0.1769  0.1557
 1040YOPC   D2A13956   8.085  14.828   7.107 -0.0756  0.0858  0.0239
 1040YOPC   C3A13957   7.832  14.596   7.447  0.2731 -0.0600 -0.0633
 1040YOPC   C4A13958   7.941  14.580   7.949 -0.1408 -0.1650 -0.2231
 1040YOPC   C1B13959   7.950  15.453   6.662 -0.2937  0.1669 -0.0654
 1040YOPC   C2B13960   7.923  15.416   7.175 -0.0585  0.2127  0.0782
 1040YOPC   D3B13961   8.006  15.563   7.646  0.1700  0.0783 -0.2499
 1040YOPC   C4B13962   8.339  15.557   7.922 -0.0682  0.1637  0.1394
 1041YOPC   NC313963  18.889  12.658   5.464 -0.1108  0.0964 -0.1088
 1041YOPC   PO413964  18.924  12.263   5.466  0.1866  0.1667  0.0322
 1041YOPC   GL113965  19.222  12.394   5.877 -0.0768 -0.1368 -0.0753
 1041YOPC   GL213966  19.019  12.227   6.042 -0.0366  0.3584  0.0939
 1041YOPC   C1A13967  19.113  12.649   6.258  0.0426  0.1065  0.1522
 1041YOPC   D2A13968  19.086  12.622   6.646 -0.0101  0.1896  0.0241
 1041YOPC   C3A13969  19.319  12.907   6.973 -0.2347 -0.0805 -0.0673
 1041YOPC   C4A13970  19.400  13.217   7.249 -0.1155  0.1901  0.0341
 1041YOPC   C1B13971  18.898  12.111   6.477 -0.1011  0.1707  0.0671
 1041YOPC   C2B13972  19.131  11.754   6.719  0.0989  0.2640 -0.0912
 1041YOPC   D3B13973  19.425  11.575   6.554  0.0758 -0.2841  0.3511
 1041YOPC   C4B13974  19.822  11.798   6.565  0.2054  0.2128 -0.0843
 1042YOPC   NC313975  11.755  17.066   5.705 -0.0268 -0.0499  0.1183
 1042YOPC   PO413976  11.571  17.451   5.706 -0.0122  0.4622  0.1863
 1042YOPC   GL113977  11.369  17.257   6.033 -0.0473  0.1251  0.0407
 1042YOPC   GL213978  11.272  17.592   6.242 -0.2334 -0.0298 -0.1724
 1042YOPC   C1A13979  11.285  17.070   6.444 -0.1448  0.1168 -0.2273
 1042YOPC   D2A13980  10.845  17.074   6.458 -0.0353 -0.2427 -0.1360
 1042YOPC   C3A13981  10.659  17.475   6.476 -0.2812 -0.3673  0.2793
 1042YOPC   C4A13982  10.590  17.722   6.878  0.1185  0.1470 -0.2569
 1042YOPC   C1B13983  11.135  17.403   6.775  0.0388  0.1794  0.1228
 1042YOPC   C2B13984  11.011  17.409   7.225 -0.0980  0.2157  0.1910
 1042YOPC   D3B13985  10.856  17.770   7.376  0.3318 -0.2963  0.0161
 1042YOPC   C4B13986  11.176  18.081   7.575  0.1109  0.1413 -0.1283
 1043YOPC   NC313987   1.517  11.991   5.377 -0.0383  0.2368 -0.0221
 1043YOPC   PO413988   0.912  11.945   5.346  0.2965 -0.2232  0.4982
 1043YOPC   GL113989   0.970  11.803   5.764 -0.2648  0.0811  0.1714
 1043YOPC   GL213990   0.708  11.688   5.984  0.0532 -0.0283 -0.1005
 1043YOPC   C1A13991   1.199  11.898   6.187 -0.0766  0.0792 -0.1009
 1043YOPC   D2A13992   1.440  11.964   6.602 -0.0725  0.0481 -0.4958
 1043YOPC   C3A13993   1.450  11.989   7.045 -0.0278 -0.0366  0.1404
 1043YOPC   C4A13994   1.688  12.276   7.352  0.0396 -0.0340 -0.1308
 1043YOPC   C1B13995   0.282  11.818   6.167 -0.1128 -0.1876  0.1948
 1043YOPC   C2B13996  -0.065  11.632   6.135 -0.0759 -0.0549 -0.3206
 1043YOPC   D3B13997  -0.329  11.657   6.376 -0.5051  0.0540 -0.1161
 1043YOPC   C4B13998  -0.715  12.020   6.367  0.2484 -0.0928 -0.2454
 1044YOPC   NC313999  15.415  12.421   5.075 -0.2141  0.0566 -0.2238
 1044YOPC   PO414000  15.749  12.227   5.528  0.0611  0.0525 -0.0612
 1044YOPC   GL114001  15.807  11.975   5.845  0.0838  0.1529 -0.0295
 1044YOPC   GL214002  15.561  11.755   5.833 -0.1598  0.0428 -0.1800
 1044YOPC   C1A14003  15.737  11.853   6.266 -0.3106 -0.2036 -0.2479
 1044YOPC   D2A14004  15.882  11.780   6.701  0.1720  0.1500  0.1302
 1044YOPC   C3A14005  15.560  11.524   6.777  0.3090 -0.3403 -0.3140
 1044YOPC   C4A14006  15.348  11.180   6.653  0.2276  0.1699  0.2565
 1044YOPC   C1B14007  15.360  12.109   6.063  0.1663  0.0767 -0.2488
 1044YOPC   C2B14008  14.972  12.045   6.457 -0.1414  0.3227  0.0607
 1044YOPC   D3B14009  14.902  12.023   6.836 -0.2999  0.0303  0.1315
 1044YOPC   C4B14010  14.694  12.165   7.144 -0.0974 -0.2252 -0.2291
 1045YOPC   NC314011   3.838   4.278   5.293 -0.3101  0.4721 -0.3341
 1045YOPC   PO414012   3.863   4.701   5.337 -0.0993  0.0656  0.1394
 1045YOPC   GL114013   3.800   4.541   5.728  0.1966  0.0266  0.0324
 1045YOPC   GL214014   3.972   4.674   5.985  0.2065 -0.4221 -0.0292
 1045YOPC   C1A14015   3.676   4.255   5.992 -0.0204 -0.0017  0.0851
 1045YOPC   D2A14016   3.571   4.320   6.409 -0.0549 -0.0925 -0.1770
 1045YOPC   C3A14017   3.252   4.448   6.742 -0.0810 -0.1424 -0.1127
 1045YOPC   C4A14018   3.432   4.487   7.127  0.2253  0.3115  0.1889
 1045YOPC   C1B14019   3.898   4.755   6.381 -0.0298 -0.0171  0.0870
 1045YOPC   C2B14020   3.821   4.599   6.730 -0.1117  0.0809 -0.1873
 1045YOPC   D3B14021   3.693   4.154   6.857 -0.0676 -0.0227  0.3533
 1045YOPC   C4B14022   3.576   3.937   7.159  0.0144  0.1165  0.1115
 1046YOPC   NC314023   7.053  12.299   5.548 -0.0942  0.2118  0.3594
 1046YOPC   PO414024   7.053  11.959   5.659 -0.0507  0.0883  0.1186
 1046YOPC   GL114025   7.021  11.960   6.120  0.1458  0.3101 -0.0060
 1046YOPC   GL214026   7.347  11.924   6.225  0.0209 -0.1390  0.0452
 1046YOPC   C1A14027   6.633  11.949   6.303 -0.3266  0.1781 -0.0913
 1046YOPC   D2A14028   6.440  12.116   6.643  0.2378  0.3492 -0.0926
 1046YOPC   C3A14029   6.652  12.357   6.889 -0.1002  0.0055  0.1788
 1046YOPC   C4A14030   6.538  12.627   7.197  0.1289 -0.1152  0.1760
 1046YOPC   C1B14031   7.404  11.868   6.728 -0.0095 -0.3905 -0.2912
 1046YOPC   C2B14032   7.197  11.771   7.119  0.0248  0.4278 -0.0249
 1046YOPC   D3B14033   6.890  11.878   7.169  0.5793 -0.3101  0.0571
 1046YOPC   C4B14034   6.424  11.845   7.047 -0.3145 -0.0386  0.0140
 1047YOPC   NC314035  10.382   9.306   5.489 -0.0626  0.2332  0.1738
 1047YOPC   PO414036  10.793   9.551   5.381  0.0121  0.2623  0.0036
 1047YOPC   GL114037  10.933   9.204   5.720  0.2229 -0.0653  0.0771
 1047YOPC   GL214038  10.568   9.151   5.887  0.1248 -0.1396 -0.0929
 1047YOPC   C1A14039  10.835   8.807   6.122  0.0253  0.0576 -0.0298
 1047YOPC   D2A14040  10.920   8.651   6.569 -0.1242 -0.2781  0.0449
 1047YOPC   C3A14041  11.212   8.645   6.678  0.1208  0.3484  0.3582
 1047YOPC   C4A14042  11.548   8.476   6.915  0.0365 -0.0702  0.3039
 1047YOPC   C1B14043  10.323   8.960   6.241  0.0890 -0.2501  0.1331
 1047YOPC   C2B14044  10.361   8.915   6.679 -0.3643  0.0964 -0.1645
 1047YOPC   D3B14045  10.697   8.753   6.966 -0.0166 -0.0645  0.1209
 1047YOPC   C4B14046  10.692   8.681   7.445  0.0496  0.2007 -0.2345
 1048YOPC   NC314047   7.946  14.492   6.016 -0.0592 -0.3817  0.1457
 1048YOPC   PO414048   8.172  14.058   6.020  0.4833  0.1255 -0.1381
 1048YOPC   GL114049   8.309  14.241   6.405  0.1973  0.2405  0.0975
 1048YOPC   GL214050   8.200  14.482   6.443  0.0218  0.5947 -0.1146
 1048YOPC   C1A14051   8.181  14.304   6.898  0.0356  0.0966  0.0646
 1048YOPC   D2A14052   8.271  14.416   7.341 -0.0081 -0.0219  0.4580
 1048YOPC   C3A14053   8.035  14.136   7.644  0.1869  0.1599  0.0420
 1048YOPC   C4A14054   7.553  14.282   7.730  0.0199 -0.0074 -0.3730
 1048YOPC   C1B14055   8.456  14.729   6.776  0.1844 -0.1023  0.4132
 1048YOPC   C2B14056   8.520  15.111   6.855 -0.2111  0.0941  0.4359
 1048YOPC   D3B14057   8.789  15.300   7.041  0.0985  0.1839  0.2125
 1048YOPC   C4B14058   9.071  15.540   7.253  0.2267  0.2016 -0.1544
 1049YOPC   NC314059  18.050   0.796   5.209  0.0959  0.3980 -0.2295
 1049YOPC   PO414060  18.008   1.144   5.487  0.3629  0.1858 -0.0255
 1049YOPC   GL114061  17.678   1.214   5.665 -0.0983  0.1611  0.1920
 1049YOPC   GL214062  17.744   1.425   5.977 -0.1303 -0.1586 -0.1555
 1049YOPC   C1A14063  17.275   1.264   5.947  0.0775  0.1399  0.1732
 1049YOPC   D2A14064  17.099   1.295   6.328  0.0903 -0.2551 -0.0194
 1049YOPC   C3A14065  17.300   1.035   6.721  0.5169 -0.2109  0.3027
 1049YOPC   C4A14066  17.300   0.974   7.112 -0.0492  0.0959 -0.1688
 1049YOPC   C1B14067  17.645   1.142   6.344 -0.1833 -0.1638  0.2636
 1049YOPC   C2B14068  17.862   1.100   6.684 -0.1768  0.0391  0.4088
 1049YOPC   D3B14069  18.281   1.034   6.756 -0.1059 -0.3061 -0.0120
 1049YOPC   C4B14070  18.478   0.703   7.096  0.0386 -0.1489 -0.1009
 1050YOPC   NC314071   7.136   1.774   5.675 -0.0576 -0.3112 -0.0016
 1050YOPC   PO414072   6.943   2.236   5.627  0.0225  0.1666 -0.3009
 1050YOPC   GL114073   7.087   2.087   6.111 -0.1625 -0.0800 -0.0834
 1050YOPC   GL214074   7.492   2.001   6.207 -0.1256  0.2183 -0.0366
 1050YOPC   C1A14075   7.162   2.357   6.340 -0.0718 -0.2187 -0.0114
 1050YOPC   D2A14076   7.078   2.770   6.377  0.1258  0.3148 -0.4108
 1050YOPC   C3A14077   6.662   2.705   6.446 -0.3478  0.0944  0.0113
 1050YOPC   C4A14078   6.352   2.650   6.786 -0.0766 -0.1793 -0.1158
 1050YOPC   C1B14079   7.467   2.033   6.648 -0.0608  0.0873  0.1796
 1050YOPC   C2B14080   7.401   2.361   6.842  0.1562  0.2905 -0.1810
 1050YOPC   D3B14081   7.442   2.412   7.339 -0.0722 -0.0067  0.0595
 1050YOPC   C4B14082   7.608   2.682   7.545 -0.1666 -0.1281 -0.1340
 1051YOPC   NC314083   2.898  14.595   5.077 -0.1539  0.3446  0.0129
 1051YOPC   PO414084   3.339  14.755   5.296 -0.1878  0.1942  0.0998
 1051YOPC   GL114085   3.369  14.916   5.639  0.0167 -0.3529 -0.0423
 1051YOPC   GL214086   3.457  14.884   5.921  0.0476  0.0101 -0.1639
 1051YOPC   C1A14087   3.117  15.256   5.886 -0.0665 -0.0746 -0.0719
 1051YOPC   D2A14088   2.936  15.442   6.144 -0.1096  0.0468  0.0169
 1051YOPC   C3A14089   3.143  15.115   6.428 -0.1445  0.0356  0.2198
 1051YOPC   C4A14090   3.207  14.664   6.343 -0.0595  0.1776  0.3176
 1051YOPC   C1B14091   3.616  15.085   6.258  0.2882  0.3517  0.1442
 1051YOPC   C2B14092   3.602  15.025   6.633 -0.1612 -0.3870  0.0700
 1051YOPC   D3B14093   3.222  14.807   6.817 -0.1699  0.4160  0.0874
 1051YOPC   C4B14094   3.083  14.570   7.033 -0.2044 -0.0677  0.1459
 1052YOPC   NC314095   9.565  13.661   6.002 -0.0435 -0.2335  0.1427
 1052YOPC   PO414096  10.002  13.648   6.017  0.1538 -0.1301 -0.0854
 1052YOPC   GL114097  10.155  13.652   6.365 -0.0735  0.0163 -0.1323
 1052YOPC   GL214098  10.381  13.747   6.461 -0.1682 -0.1497  0.1305
 1052YOPC   C1A14099   9.991  13.534   6.841 -0.0348  0.1104  0.0009
 1052YOPC   D2A14100   9.831  13.239   7.257  0.0906 -0.2887 -0.3884
 1052YOPC   C3A14101   9.513  12.940   7.319  0.2435 -0.0214 -0.0345
 1052YOPC   C4A14102   9.282  12.649   7.526 -0.0794 -0.1890 -0.0439
 1052YOPC   C1B14103  10.515  13.532   6.809  0.0190  0.2059 -0.1127
 1052YOPC   C2B14104  10.294  13.317   7.212  0.0043  0.0696  0.1188
 1052YOPC   D3B14105  10.448  12.855   7.343 -0.1170 -0.1259 -0.0144
 1052YOPC   C4B14106  10.838  12.963   7.577 -0.3279  0.0316  0.1917
 1053YOPC   NC314107   2.219   2.445   5.743  0.2045 -0.1380 -0.2179
 1053YOPC   PO414108   2.099   2.843   5.409  0.2097  0.3495 -0.1353
 1053YOPC   GL114109   1.916   2.915   5.901 -0.0746 -0.0421  0.0223
 1053YOPC   GL214110   1.803   3.179   5.996  0.2033  0.2422 -0.4486
 1053YOPC   C1A14111   1.773   2.799   6.319  0.1069  0.0379  0.0790
 1053YOPC   D2A14112   1.745   2.638   6.838  0.2028 -0.1717 -0.2004
 1053YOPC   C3A14113   1.295   2.461   6.719 -0.0126 -0.0843 -0.1931
 1053YOPC   C4A14114   1.093   2.063   6.778  0.1156 -0.1388  0.0325
 1053YOPC   C1B14115   1.761   3.514   6.327 -0.0035 -0.1229  0.1412
 1053YOPC   C2B14116   1.611   3.739   6.729  0.3135  0.0116 -0.2549
 1053YOPC   D3B14117   1.789   3.607   7.142  0.1837  0.2714  0.2282
 1053YOPC   C4B14118   1.725   3.691   7.542 -0.0715  0.1444 -0.1648
 1054YOPC   NC314119  18.004  12.233   5.438 -0.2317  0.1589 -0.0766
 1054YOPC   PO414120  17.683  12.344   5.649  0.2214  0.2908 -0.0528
 1054YOPC   GL114121  17.558  12.501   5.962  0.2268  0.0706 -0.1228
 1054YOPC   GL214122  17.232  12.433   5.969  0.0933 -0.0342  0.0165
 1054YOPC   C1A14123  17.532  12.645   6.397 -0.2923  0.1812  0.1473
 1054YOPC   D2A14124  17.789  12.855   6.694  0.2001 -0.0087  0.0833
 1054YOPC   C3A14125  17.875  13.275   6.732 -0.1192 -0.5410 -0.0161
 1054YOPC   C4A14126  17.880  13.645   6.673  0.0166 -0.1281 -0.0485
 1054YOPC   C1B14127  17.170  12.337   6.420  0.0861 -0.1075  0.0937
 1054YOPC   C2B14128  17.220  12.240   6.814  0.1205  0.1075 -0.1224
 1054YOPC   D3B14129  17.288  11.937   7.075 -0.1398 -0.0492 -0.3342
 1054YOPC   C4B14130  17.629  11.768   7.281  0.1757  0.1701  0.2662
 1055YOPC   NC314131   3.478   2.742   5.215  0.1103  0.2940  0.1990
 1055YOPC   PO414132   3.683   2.883   5.578 -0.3202  0.0229 -0.0224
 1055YOPC   GL114133   3.807   2.850   5.876 -0.0899  0.2766 -0.2433
 1055YOPC   GL214134   4.103   2.812   5.965 -0.0433 -0.0150  0.1081
 1055YOPC   C1A14135   3.725   3.029   6.217 -0.1138 -0.2448 -0.3219
 1055YOPC   D2A14136   4.025   3.258   6.495  0.0225  0.0604 -0.0448
 1055YOPC   C3A14137   4.166   3.611   6.361 -0.0305  0.1655 -0.0336
 1055YOPC   C4A14138   4.518   3.867   6.501  0.0397  0.2982  0.0788
 1055YOPC   C1B14139   4.203   2.689   6.354  0.0736 -0.1206 -0.0147
 1055YOPC   C2B14140   3.823   2.743   6.621 -0.0253 -0.0953  0.4596
 1055YOPC   D3B14141   3.667   3.084   6.727  0.2015  0.2317 -0.3025
 1055YOPC   C4B14142   3.508   3.148   7.115 -0.0355  0.0133  0.3393
 1056YOPC   NC314143  14.733   7.197   5.475  0.0219 -0.3684 -0.1756
 1056YOPC   PO414144  14.977   6.951   5.445  0.2017  0.0413  0.2617
 1056YOPC   GL114145  14.814   6.752   5.806  0.0358 -0.2117 -0.0343
 1056YOPC   GL214146  14.874   6.491   5.935 -0.0570 -0.0010 -0.4063
 1056YOPC   C1A14147  14.682   6.869   6.213 -0.2327  0.2261  0.2944
 1056YOPC   D2A14148  14.922   7.008   6.652  0.0049  0.5006 -0.1618
 1056YOPC   C3A14149  14.901   7.265   7.008 -0.2418 -0.1852  0.1728
 1056YOPC   C4A14150  14.583   7.684   7.064  0.1846  0.0852 -0.2657
 1056YOPC   C1B14151  14.906   6.130   6.201  0.0646  0.0002 -0.1499
 1056YOPC   C2B14152  14.738   5.968   6.486  0.0095  0.1906  0.1673
 1056YOPC   D3B14153  14.807   5.895   6.933  0.0228  0.0991  0.4718
 1056YOPC   C4B14154  14.885   6.174   7.334 -0.2074 -0.1664  0.0211
 1057YOPC   NC314155  15.970   6.606   5.434  0.0115 -0.3526 -0.1298
 1057YOPC   PO414156  15.599   6.368   5.607  0.3890 -0.1311 -0.1319
 1057YOPC   GL114157  15.351   6.423   5.873  0.3856  0.0259  0.0871
 1057YOPC   GL214158  15.415   6.708   5.995 -0.2673 -0.3176 -0.3912
 1057YOPC   C1A14159  15.446   6.241   6.382 -0.2228 -0.0913  0.1628
 1057YOPC   D2A14160  15.524   6.412   6.762 -0.0798 -0.0977  0.2440
 1057YOPC   C3A14161  15.304   6.168   7.025 -0.0063 -0.0075  0.2699
 1057YOPC   C4A14162  15.240   5.780   7.146 -0.3611  0.0045 -0.2926
 1057YOPC   C1B14163  15.170   6.619   6.350 -0.0401  0.1111 -0.0995
 1057YOPC   C2B14164  14.983   6.345   6.681 -0.1887  0.1609  0.1902
 1057YOPC   D3B14165  14.921   6.558   7.040 -0.0663  0.0108  0.1067
 1057YOPC   C4B14166  15.192   6.635   7.367  0.1315 -0.1548 -0.1080
 1058YOPC   NC314167   0.553   2.298   6.007  0.2180  0.1145 -0.4165
 1058YOPC   PO414168   0.359   2.629   5.812  0.1358  0.0952 -0.3476
 1058YOPC   GL114169   0.170   2.935   6.069 -0.0690 -0.3483  0.1685
 1058YOPC   GL214170   0.352   2.783   6.302  0.2698  0.0952  0.0428
 1058YOPC   C1A14171   0.052   3.139   6.433  0.1136 -0.0667 -0.0945
 1058YOPC   D2A14172  -0.010   3.076   6.834  0.2739 -0.0053  0.0215
 1058YOPC   C3A14173   0.034   3.429   7.174 -0.0251  0.2243 -0.1930
 1058YOPC   C4A14174  -0.196   3.824   7.239  0.0566 -0.0668  0.0455
 1058YOPC   C1B14175   0.366   2.755   6.736 -0.0303 -0.0989  0.0353
 1058YOPC   C2B14176   0.693   2.408   6.746  0.2321 -0.0160  0.0903
 1058YOPC   D3B14177   1.018   2.378   7.132  0.0079 -0.3633  0.1769
 1058YOPC   C4B14178   1.079   2.419   7.498 -0.2664 -0.2661 -0.4080
 1059YOPC   NC314179   6.764   4.596   5.344 -0.3242  0.1935 -0.2367
 1059YOPC   PO414180   7.176   4.735   5.328  0.2423  0.0305  0.0507
 1059YOPC   GL114181   7.100   4.617   5.755  0.2878 -0.0554 -0.1025
 1059YOPC   GL214182   7.440   4.568   5.877 -0.2562 -0.0971  0.1535
 1059YOPC   C1A14183   7.123   4.808   6.236 -0.0538 -0.2162 -0.1242
 1059YOPC   D2A14184   7.089   4.929   6.745  0.0025 -0.1007 -0.1762
 1059YOPC   C3A14185   6.904   4.845   7.013  0.0855 -0.1301 -0.2626
 1059YOPC   C4A14186   6.534   4.669   7.198 -0.0289 -0.2794  0.0457
 1059YOPC   C1B14187   7.895   4.491   5.794  0.0824 -0.6356  0.0443
 1059YOPC   C2B14188   8.256   4.262   5.777  0.0203  0.0786 -0.0703
 1059YOPC   D3B14189   8.464   4.024   6.169 -0.2219 -0.3504 -0.0555
 1059YOPC   C4B14190   8.703   3.786   6.019  0.2089 -0.0281  0.1247
 1060YOPC   NC314191  14.332   2.052   5.417 -0.2147 -0.3680 -0.1632
 1060YOPC   PO414192  14.813   1.782   5.192 -0.0421  0.0743 -0.1010
 1060YOPC   GL114193  14.668   1.745   5.597  0.1863  0.0662 -0.0720
 1060YOPC   GL214194  14.405   1.595   5.746 -0.1842  0.1251 -0.0990
 1060YOPC   C1A14195  14.842   1.801   6.032  0.0694  0.2725 -0.2052
 1060YOPC   D2A14196  14.787   1.769   6.457 -0.1394 -0.3270  0.0957
 1060YOPC   C3A14197  14.541   1.655   6.762 -0.0062  0.1068  0.0867
 1060YOPC   C4A14198  14.149   1.597   7.016 -0.1159  0.1278  0.3257
 1060YOPC   C1B14199  14.050   1.322   6.004  0.0922 -0.1103  0.0413
 1060YOPC   C2B14200  13.797   0.931   6.102  0.2116  0.0630  0.1763
 1060YOPC   D3B14201  13.800   0.806   6.545  0.2421 -0.0960  0.0072
 1060YOPC   C4B14202  13.920   0.581   6.945 -0.2897 -0.1746 -0.2769
 1061YOPC   NC314203   3.604  14.458   5.559 -0.0670  0.2530 -0.3207
 1061YOPC   PO414204   3.227  14.280   5.496 -0.0886  0.2975 -0.2557
 1061YOPC   GL114205   3.338  14.061   5.894  0.1360 -0.2242  0.0409
 1061YOPC   GL214206   3.103  13.815   5.889 -0.2097 -0.5417 -0.4923
 1061YOPC   C1A14207   3.383  14.163   6.318 -0.2312  0.1694  0.0411
 1061YOPC   D2A14208   3.342  14.248   6.645  0.3968 -0.0654 -0.0778
 1061YOPC   C3A14209   3.504  14.038   6.990  0.1040  0.2763 -0.1325
 1061YOPC   C4A14210   3.612  13.701   7.289 -0.1543  0.0408 -0.1763
 1061YOPC   C1B14211   2.993  13.911   6.329 -0.2844 -0.0002  0.1921
 1061YOPC   C2B14212   2.990  13.839   6.797 -0.0565  0.0399 -0.1898
 1061YOPC   D3B14213   3.051  13.938   7.190 -0.1784  0.0964  0.1387
 1061YOPC   C4B14214   3.332  14.327   7.479 -0.1004 -0.0548  0.0294
 1062YOPC   NC314215  14.000   2.662   5.010  0.0510 -0.0942  0.1019
 1062YOPC   PO414216  14.183   2.540   5.414 -0.2108  0.0119 -0.1506
 1062YOPC   GL114217  14.245   2.398   5.817 -0.4145  0.0606 -0.2340
 1062YOPC   GL214218  14.547   2.225   5.948  0.1385 -0.0875  0.0898
 1062YOPC   C1A14219  13.890   2.407   6.133  0.4093 -0.0594 -0.4419
 1062YOPC   D2A14220  13.756   2.395   6.688 -0.1893  0.2266  0.0726
 1062YOPC   C3A14221  13.607   2.810   6.857 -0.1160  0.3283 -0.2153
 1062YOPC   C4A14222  13.437   2.930   7.091 -0.1038 -0.1491 -0.0326
 1062YOPC   C1B14223  14.453   2.206   6.400 -0.0168  0.0132  0.0466
 1062YOPC   C2B14224  14.581   2.150   6.747 -0.0487  0.2590  0.0412
 1062YOPC   D3B14225  14.736   2.463   7.221  0.1274  0.3106 -0.0575
 1062YOPC   C4B14226  15.031   2.401   7.477 -0.1983  0.3656  0.0307
 1063YOPC   NC314227  10.184  13.251   5.718  0.1281 -0.2259 -0.0789
 1063YOPC   PO414228   9.805  12.937   5.783 -0.1462  0.0938 -0.3987
 1063YOPC   GL114229   9.940  13.090   6.192 -0.1553 -0.1507 -0.1114
 1063YOPC   GL214230   9.663  13.330   6.394  0.0652 -0.1238  0.3062
 1063YOPC   C1A14231  10.185  13.181   6.521 -0.1090 -0.0999  0.3740
 1063YOPC   D2A14232  10.482  12.948   6.867 -0.1034  0.0969  0.1515
 1063YOPC   C3A14233  10.881  13.063   6.845 -0.2022 -0.0739 -0.0210
 1063YOPC   C4A14234  11.014  13.436   6.745  0.0809  0.1212  0.5188
 1063YOPC   C1B14235   9.680  12.966   6.691 -0.1901 -0.0256 -0.2551
 1063YOPC   C2B14236   9.946  12.804   7.074 -0.0322 -0.2032  0.2517
 1063YOPC   D3B14237  10.011  12.672   7.486 -0.0882  0.2433  0.3303
 1063YOPC   C4B14238  10.091  12.482   7.884  0.0455  0.0331  0.1773
 1064YOPC   NC314239   0.612   3.230   6.096  0.0886 -0.0901 -0.1447
 1064YOPC   PO414240   0.841   3.599   5.938 -0.0666 -0.1712 -0.0932
 1064YOPC   GL114241   1.149   3.712   6.250  0.1033  0.0576  0.0331
 1064YOPC   GL214242   1.428   3.899   6.057 -0.3405 -0.2555  0.1713
 1064YOPC   C1A14243   1.130   4.008   6.531 -0.0711 -0.0596 -0.0339
 1064YOPC   D2A14244   1.101   4.039   6.945 -0.1714  0.0783 -0.2760
 1064YOPC   C3A14245   1.378   3.933   7.325 -0.1726  0.2658 -0.0383
 1064YOPC   C4A14246   1.276   3.835   7.788  0.1050  0.0199  0.0379
 1064YOPC   C1B14247   1.785   4.055   6.298  0.3175  0.0556 -0.0569
 1064YOPC   C2B14248   2.073   4.476   6.120  0.1195 -0.0225 -0.0249
 1064YOPC   D3B14249   1.815   4.937   6.227 -0.0248 -0.1483  0.1577
 1064YOPC   C4B14250   2.032   5.228   6.107  0.1875 -0.1468 -0.0352
 1065YOPC   NC314251   4.783   7.607   5.528 -0.0416  0.0420  0.2949
 1065YOPC   PO414252   4.575   7.958   5.522  0.2861  0.0155  0.2953
 1065YOPC   GL114253   4.533   8.088   5.857  0.2423  0.2179  0.2386
 1065YOPC   GL214254   4.433   8.406   5.884 -0.1734  0.1980  0.0511
 1065YOPC   C1A14255   4.701   8.169   6.259 -0.0527  0.0895  0.1153
 1065YOPC   D2A14256   4.662   8.125   6.738  0.4357 -0.2513  0.2264
 1065YOPC   C3A14257   4.804   8.512   7.029  0.0461 -0.2201 -0.0288
 1065YOPC   C4A14258   4.680   8.737   7.403  0.1041  0.3114 -0.1706
 1065YOPC   C1B14259   4.386   8.609   6.278 -0.0392 -0.0141 -0.0933
 1065YOPC   C2B14260   4.302   8.614   6.792 -0.1806 -0.2286  0.3615
 1065YOPC   D3B14261   4.295   8.221   7.021  0.1011 -0.1789  0.0113
 1065YOPC   C4B14262   4.449   7.867   7.113  0.1883 -0.2312 -0.1210
 1066YOPC   NC314263   3.502   1.376   5.788 -0.1404  0.0198  0.1223
 1066YOPC   PO414264   3.337   0.963   5.825  0.1801 -0.2651  0.2954
 1066YOPC   GL114265   3.192   1.195   6.156  0.2731 -0.0051  0.0771
 1066YOPC   GL214266   2.995   1.400   6.258 -0.0786  0.0776 -0.1203
 1066YOPC   C1A14267   3.424   1.349   6.485  0.3612  0.3844  0.3194
 1066YOPC   D2A14268   3.627   1.463   6.876 -0.1494  0.2857 -0.2518
 1066YOPC   C3A14269   3.337   1.553   7.264  0.0776  0.1171  0.1015
 1066YOPC   C4A14270   2.911   1.611   7.472 -0.3965 -0.0136 -0.2195
 1066YOPC   C1B14271   2.782   1.600   6.639  0.2375 -0.2816 -0.0668
 1066YOPC   C2B14272   2.849   1.722   7.022  0.2550  0.2015 -0.3645
 1066YOPC   D3B14273   2.420   1.711   7.269 -0.0573 -0.1729  0.3434
 1066YOPC   C4B14274   2.500   1.681   7.711 -0.1615  0.4629  0.2532
 1067YOPC   NC314275   6.229   4.955   5.688 -0.1498  0.3746 -0.2307
 1067YOPC   PO414276   6.734   5.017   5.600  0.1455 -0.0542  0.2187
 1067YOPC   GL114277   6.673   5.214   6.030  0.0922  0.0033  0.1574
 1067YOPC   GL214278   6.391   5.409   6.062  0.0690 -0.0096 -0.1737
 1067YOPC   C1A14279   6.894   5.294   6.399 -0.3305 -0.1374 -0.3586
 1067YOPC   D2A14280   6.846   5.575   6.604  0.0395 -0.2520  0.0088
 1067YOPC   C3A14281   7.068   5.862   6.403  0.3286 -0.0821 -0.3512
 1067YOPC   C4A14282   7.253   6.058   6.176  0.0863  0.0412  0.1245
 1067YOPC   C1B14283   6.386   5.509   6.407  0.1582 -0.1265  0.1422
 1067YOPC   C2B14284   6.418   5.730   6.744  0.3081  0.1726 -0.1347
 1067YOPC   D3B14285   6.422   5.626   7.228  0.1560 -0.0857  0.2177
 1067YOPC   C4B14286   6.614   5.963   7.596  0.0112 -0.0158 -0.0460
 1068YOPC   NC314287   8.642   0.821   5.665  0.1057  0.1195 -0.4131
 1068YOPC   PO414288   8.236   1.127   5.586 -0.1840 -0.0144  0.0524
 1068YOPC   GL114289   8.224   0.772   5.908 -0.0718 -0.2657 -0.1991
 1068YOPC   GL214290   8.399   0.925   6.069 -0.3159 -0.2915 -0.2042
 1068YOPC   C1A14291   8.145   0.632   6.310 -0.2140  0.0922 -0.0948
 1068YOPC   D2A14292   8.130   0.674   6.751 -0.1574  0.0277 -0.1554
 1068YOPC   C3A14293   8.153   0.892   7.153  0.0706 -0.1985  0.0189
 1068YOPC   C4A14294   8.487   1.176   7.319 -0.1672 -0.3217 -0.0649
 1068YOPC   C1B14295   8.607   0.908   6.540  0.0807  0.1408  0.0203
 1068YOPC   C2B14296   8.625   0.829   6.966  0.3302  0.2520 -0.0307
 1068YOPC   D3B14297   8.913   0.955   7.145 -0.3339  0.1493 -0.0950
 1068YOPC   C4B14298   9.074   1.117   7.522 -0.1224 -0.0586 -0.0718
 1069YOPC   NC314299   5.555  16.192   5.057  0.0581  0.0933 -0.1153
 1069YOPC   PO414300   5.404  16.333   5.504  0.1377  0.2898 -0.1450
 1069YOPC   GL114301   5.363  16.180   5.880  0.1650 -0.1635  0.2693
 1069YOPC   GL214302   5.388  16.336   6.188  0.4192 -0.3742 -0.2734
 1069YOPC   C1A14303   5.461  15.894   6.276 -0.5622  0.1914 -0.2056
 1069YOPC   D2A14304   5.547  15.821   6.667 -0.1133 -0.1296  0.2077
 1069YOPC   C3A14305   5.602  16.089   6.987 -0.3244 -0.1089 -0.0331
 1069YOPC   C4A14306   5.779  16.565   6.923  0.0454 -0.2831 -0.0269
 1069YOPC   C1B14307   5.367  16.328   6.634  0.3110  0.1415 -0.3854
 1069YOPC   C2B14308   5.194  16.453   6.954 -0.3937 -0.0061 -0.0454
 1069YOPC   D3B14309   5.312  16.798   7.074 -0.2974 -0.0332  0.2618
 1069YOPC   C4B14310   5.583  16.891   7.326  0.1340  0.1145 -0.0172
 1070YOPC   NC314311  15.210  13.158   5.553  0.3531 -0.0737 -0.0732
 1070YOPC   PO414312  15.548  13.321   5.732  0.3476 -0.0082 -0.1132
 1070YOPC   GL114313  15.370  13.127   6.181  0.0052  0.1421  0.2866
 1070YOPC   GL214314  15.016  13.136   6.243  0.1329  0.0647 -0.1309
 1070YOPC   C1A14315  15.442  13.105   6.555  0.0429 -0.1855 -0.0128
 1070YOPC   D2A14316  15.350  13.005   6.931 -0.0070  0.0831 -0.4166
 1070YOPC   C3A14317  15.645  13.115   7.203 -0.2229 -0.0479 -0.2357
 1070YOPC   C4A14318  15.671  12.685   7.513 -0.2352  0.0663  0.0410
 1070YOPC   C1B14319  14.961  12.901   6.629 -0.3106  0.1811 -0.1742
 1070YOPC   C2B14320  14.825  12.810   7.106 -0.0818 -0.0647  0.0288
 1070YOPC   D3B14321  14.763  12.621   7.414 -0.3859  0.1056 -0.0547
 1070YOPC   C4B14322  14.584  12.288   7.730  0.0181  0.1163 -0.0240
 1071YOPC   NC314323   9.981  14.768   6.071 -0.0406  0.0150 -0.2666
 1071YOPC   PO414324  10.155  15.075   6.103 -0.2206  0.2384 -0.3397
 1071YOPC   GL114325  10.176  15.047   6.591 -0.1635  0.3379  0.2087
 1071YOPC   GL214326  10.239  14.733   6.598  0.2568 -0.2669 -0.1313
 1071YOPC   C1A14327  10.306  14.929   7.054  0.0487  0.0342 -0.0057
 1071YOPC   D2A14328  10.263  14.734   7.429 -0.0434  0.1418  0.0152
 1071YOPC   C3A14329  10.124  15.050   7.742 -0.1488 -0.0385  0.2163
 1071YOPC   C4A14330   9.983  15.393   7.588  0.1641  0.3822 -0.0050
 1071YOPC   C1B14331   9.998  14.418   6.706 -0.1825 -0.0337 -0.3053
 1071YOPC   C2B14332  10.243  13.978   6.873 -0.0165  0.1391 -0.0736
 1071YOPC   D3B14333  10.111  13.782   7.328 -0.1307  0.1856 -0.1030
 1071YOPC   C4B14334  10.046  13.628   7.702 -0.0563 -0.0389 -0.1099
 1072YOPC   NC314335   5.139   5.926   5.337 -0.2076  0.3398 -0.0661
 1072YOPC   PO414336   4.979   6.298   5.561  0.1965 -0.0212  0.0284
 1072YOPC   GL114337   5.186   6.545   5.766 -0.1234  0.0425 -0.3367
 1072YOPC   GL214338   5.275   6.819   5.884  0.1883 -0.1909 -0.4020
 1072YOPC   C1A14339   5.239   6.512   6.237  0.2289 -0.1602 -0.3688
 1072YOPC   D2A14340   5.383   6.415   6.693 -0.0024 -0.0429  0.0015
 1072YOPC   C3A14341   5.164   6.529   6.980  0.0254 -0.0204  0.1660
 1072YOPC   C4A14342   5.194   6.688   7.259  0.2934 -0.2135  0.1064
 1072YOPC   C1B14343   5.682   6.605   6.004 -0.4013 -0.0762  0.2780
 1072YOPC   C2B14344   5.763   6.610   6.414 -0.2641  0.0252 -0.0705
 1072YOPC   D3B14345   5.665   6.852   6.752 -0.3126  0.2233  0.0259
 1072YOPC   C4B14346   5.894   7.049   7.058 -0.3003  0.0710 -0.2441
 1073YOPC   NC314347  16.728   5.149   5.341  0.3108 -0.0670  0.1393
 1073YOPC   PO414348  16.987   5.456   5.461 -0.0884 -0.0982 -0.3029
 1073YOPC   GL114349  16.899   5.728   5.745 -0.1650 -0.1399 -0.4597
 1073YOPC   GL214350  16.987   6.001   5.799 -0.0261 -0.0445  0.0279
 1073YOPC   C1A14351  16.939   5.749   6.289 -0.1734  0.0950  0.1825
 1073YOPC   D2A14352  16.787   6.199   6.164 -0.2657 -0.1070 -0.0926
 1073YOPC   C3A14353  16.901   6.575   6.251  0.1164 -0.0378  0.2518
 1073YOPC   C4A14354  17.328   6.690   6.329  0.0588  0.1683 -0.3378
 1073YOPC   C1B14355  17.331   6.048   6.163 -0.0633  0.2874 -0.4419
 1073YOPC   C2B14356  17.775   5.979   6.175  0.0464  0.2664 -0.1034
 1073YOPC   D3B14357  18.077   5.751   6.485  0.2089 -0.4458  0.1458
 1073YOPC   C4B14358  18.524   5.776   6.702  0.0519 -0.2826  0.1733
 1074YOPC   NC314359   4.138   5.235   5.236  0.0455  0.0775 -0.2572
 1074YOPC   PO414360   4.106   5.404   5.638 -0.0424 -0.1812  0.2180
 1074YOPC   GL114361   3.976   5.478   6.082 -0.0858  0.0749  0.2789
 1074YOPC   GL214362   3.875   5.236   6.159  0.2633  0.1170 -0.2264
 1074YOPC   C1A14363   4.082   5.615   6.428  0.0731 -0.1186 -0.2689
 1074YOPC   D2A14364   4.095   5.608   6.875 -0.3580  0.3007 -0.0264
 1074YOPC   C3A14365   4.407   5.478   7.079 -0.0808 -0.4404 -0.0560
 1074YOPC   C4A14366   4.842   5.674   7.025 -0.1515 -0.0903 -0.0678
 1074YOPC   C1B14367   3.815   5.255   6.593 -0.1014  0.0419 -0.1104
 1074YOPC   C2B14368   3.735   5.332   7.048  0.3604  0.3250 -0.1619
 1074YOPC   D3B14369   3.947   5.500   7.477  0.0982  0.1300 -0.3039
 1074YOPC   C4B14370   4.244   5.426   7.825 -0.1042  0.1281 -0.0135
 1075YOPC   NC314371   8.566  10.799   5.769  0.1549  0.2521 -0.0072
 1075YOPC   PO414372   8.966  10.969   5.673  0.1159 -0.1170  0.3530
 1075YOPC   GL114373   9.164  11.181   6.100  0.0891  0.0198 -0.0612
 1075YOPC   GL214374   9.360  11.434   6.039 -0.2724 -0.0219  0.0652
 1075YOPC   C1A14375   9.146  11.176   6.590 -0.2643  0.0102 -0.3186
 1075YOPC   D2A14376   9.287  10.847   7.025 -0.3219 -0.2682  0.4232
 1075YOPC   C3A14377   9.350  10.490   7.270  0.0889 -0.3001  0.0538
 1075YOPC   C4A14378   9.332  10.233   7.625  0.0575 -0.0779 -0.4681
 1075YOPC   C1B14379   9.805  11.463   6.003  0.0472 -0.0257 -0.0244
 1075YOPC   C2B14380  10.186  11.236   6.163  0.0403 -0.2401 -0.1248
 1075YOPC   D3B14381  10.348  10.992   6.407 -0.0347  0.0476  0.1315
 1075YOPC   C4B14382  10.617  10.971   6.728 -0.0035 -0.2088 -0.2631
 1076YOPC   NC314383   3.675   6.729   5.598 -0.1098 -0.0699 -0.1776
 1076YOPC   PO414384   3.258   6.774   5.727 -0.2341 -0.2077  0.0315
 1076YOPC   GL114385   2.984   6.454   5.901 -0.2983 -0.3461  0.3028
 1076YOPC   GL214386   3.172   6.261   5.930  0.1478  0.0398  0.2535
 1076YOPC   C1A14387   2.787   6.423   6.239 -0.3487  0.1049 -0.1075
 1076YOPC   D2A14388   2.833   6.452   6.636  0.0470 -0.1938  0.2678
 1076YOPC   C3A14389   2.961   6.742   6.954  0.0306  0.0320  0.1328
 1076YOPC   C4A14390   3.134   6.597   7.316 -0.1567  0.0932  0.0530
 1076YOPC   C1B14391   3.609   6.234   6.181  0.2275 -0.1041 -0.3684
 1076YOPC   C2B14392   3.674   6.227   6.632  0.0186  0.2273  0.1174
 1076YOPC   D3B14393   3.575   5.920   6.881  0.2496  0.2015  0.0706
 1076YOPC   C4B14394   3.623   5.781   7.248  0.2238  0.2869 -0.1396
 1077YOPC   NC314395   3.893   3.517   5.065 -0.0107 -0.2943  0.0025
 1077YOPC   PO414396   4.127   3.871   5.211 -0.2017 -0.0705 -0.0791
 1077YOPC   GL114397   4.070   3.723   5.653 -0.5434 -0.2912 -0.4550
 1077YOPC   GL214398   4.031   4.047   5.769  0.2272 -0.0257 -0.2841
 1077YOPC   C1A14399   4.096   3.319   5.958  0.0696  0.1951  0.2326
 1077YOPC   D2A14400   4.444   3.117   6.217  0.0235 -0.0016 -0.2510
 1077YOPC   C3A14401   4.601   3.393   6.494 -0.0125  0.0711 -0.0213
 1077YOPC   C4A14402   4.312   3.456   6.812 -0.1602  0.0558 -0.1936
 1077YOPC   C1B14403   4.071   4.055   6.273  0.1090  0.0010 -0.0398
 1077YOPC   C2B14404   4.143   4.045   6.754 -0.1205  0.1496  0.3647
 1077YOPC   D3B14405   4.054   3.789   7.110  0.0400 -0.0773  0.0909
 1077YOPC   C4B14406   4.055   3.902   7.523 -0.1400 -0.1559 -0.1099
 1078YOPC   NC314407  16.184   3.106   5.080 -0.0874  0.2428  0.0999
 1078YOPC   PO414408  16.387   2.807   5.414 -0.1988  0.0774 -0.0197
 1078YOPC   GL114409  16.396   2.627   5.736 -0.1034  0.0435 -0.2031
 1078YOPC   GL214410  16.669   2.445   5.817  0.1336 -0.1925 -0.1369
 1078YOPC   C1A14411  16.571   2.896   6.133  0.1639  0.0682  0.3057
 1078YOPC   D2A14412  16.413   3.024   6.442  0.1458 -0.4603  0.1413
 1078YOPC   C3A14413  16.079   3.346   6.466 -0.1477 -0.2820  0.2287
 1078YOPC   C4A14414  15.720   3.538   6.421 -0.0824 -0.2652  0.2030
 1078YOPC   C1B14415  16.325   2.486   6.179  0.4044 -0.2252  0.0140
 1078YOPC   C2B14416  15.911   2.345   6.298  0.1256 -0.0760  0.3077
 1078YOPC   D3B14417  15.760   2.347   6.718  0.0449 -0.1301  0.0690
 1078YOPC   C4B14418  15.880   2.270   7.037  0.0554 -0.0159 -0.0887
 1079YOPC   NC314419  12.734  15.690   5.917 -0.0656  0.0739 -0.1614
 1079YOPC   PO414420  12.844  15.240   6.006  0.0588  0.0219  0.2390
 1079YOPC   GL114421  12.675  15.154   6.404  0.0661  0.0330  0.2250
 1079YOPC   GL214422  12.739  15.506   6.387 -0.1107 -0.3973 -0.0015
 1079YOPC   C1A14423  12.472  15.032   6.760 -0.1034 -0.1071  0.2667
 1079YOPC   D2A14424  12.282  15.325   7.051  0.0267 -0.2117 -0.1913
 1079YOPC   C3A14425  12.422  15.761   7.089 -0.0717  0.0055 -0.0905
 1079YOPC   C4A14426  12.847  15.822   7.222 -0.3909  0.0588  0.0343
 1079YOPC   C1B14427  12.734  15.503   6.869  0.2281  0.2498 -0.0741
 1079YOPC   C2B14428  13.020  15.393   7.282 -0.0793 -0.1525 -0.1675
 1079YOPC   D3B14429  13.246  15.112   7.242  0.1358  0.0842 -0.0967
 1079YOPC   C4B14430  13.316  14.792   6.955 -0.2428 -0.0818  0.1294
 1080YOPC   NC314431   3.491  11.503   5.678 -0.0884 -0.2002  0.1971
 1080YOPC   PO414432   3.416  11.036   5.617 -0.0223  0.1692 -0.1969
 1080YOPC   GL114433   3.466  10.862   5.916 -0.1660 -0.1781  0.2673
 1080YOPC   GL214434   3.201  10.953   6.090 -0.2258 -0.1803 -0.1023
 1080YOPC   C1A14435   3.409  10.511   6.178  0.0612 -0.2796  0.1766
 1080YOPC   D2A14436   3.316  10.174   6.262  0.1967  0.0648  0.3291
 1080YOPC   C3A14437   2.909  10.020   6.408 -0.0677 -0.2710  0.1540
 1080YOPC   C4A14438   2.659   9.969   6.736 -0.2034 -0.1218  0.5098
 1080YOPC   C1B14439   2.708  11.094   6.104 -0.1053 -0.0063 -0.0543
 1080YOPC   C2B14440   2.363  11.465   6.300 -0.2016  0.0862 -0.0635
 1080YOPC   D3B14441   2.032  11.349   6.628  0.2080 -0.3263 -0.0985
 1080YOPC   C4B14442   1.908  11.267   7.096 -0.0803  0.0955  0.3255
 1081YOPC   NC314443   5.563  15.849   5.639  0.1090 -0.5007 -0.0464
 1081YOPC   PO414444   5.876  16.285   5.740 -0.1137  0.0143  0.0754
 1081YOPC   GL114445   5.834  16.176   6.134 -0.1785 -0.2249  0.1267
 1081YOPC   GL214446   5.971  15.887   6.136  0.0763 -0.0121  0.0500
 1081YOPC   C1A14447   5.829  16.391   6.456  0.1064  0.2266  0.0847
 1081YOPC   D2A14448   5.617  16.746   6.371  0.1212 -0.0242  0.1579
 1081YOPC   C3A14449   5.173  16.798   6.509 -0.0795  0.5957 -0.1869
 1081YOPC   C4A14450   5.010  17.136   6.572  0.0812 -0.1459 -0.0396
 1081YOPC   C1B14451   6.142  15.762   6.479  0.2158  0.2032 -0.3691
 1081YOPC   C2B14452   6.432  15.700   6.670  0.0367  0.1351 -0.4196
 1081YOPC   D3B14453   6.581  16.045   6.743 -0.0137 -0.0876  0.1125
 1081YOPC   C4B14454   6.650  16.508   6.729 -0.1870  0.1388 -0.4476
 1082YOPC   NC314455  17.925  11.336   5.262 -0.2137 -0.1754  0.5481
 1082YOPC   PO414456  17.415  11.164   5.222  0.1551  0.1490  0.0330
 1082YOPC   GL114457  17.438  11.089   5.645 -0.1537  0.0993  0.0911
 1082YOPC   GL214458  17.697  11.284   5.673 -0.0496  0.0990 -0.3635
 1082YOPC   C1A14459  17.605  10.912   6.049  0.2419 -0.4241  0.5237
 1082YOPC   D2A14460  17.656  10.591   6.371 -0.0937  0.3008 -0.0404
 1082YOPC   C3A14461  17.424  10.513   6.612  0.1368  0.2134  0.0440
 1082YOPC   C4A14462  17.335  10.681   6.992  0.1568 -0.2610 -0.2447
 1082YOPC   C1B14463  17.844  11.412   5.970 -0.0394 -0.3732  0.1343
 1082YOPC   C2B14464  17.835  11.657   6.303  0.1617 -0.0982  0.3301
 1082YOPC   D3B14465  18.041  11.723   6.751 -0.3257 -0.2291  0.1239
 1082YOPC   C4B14466  18.303  11.517   7.064 -0.0706 -0.0732 -0.4031
 1083YOPC   NC314467   2.272   7.044   5.642  0.0750 -0.3066  0.2373
 1083YOPC   PO414468   2.130   7.557   5.567  0.1592 -0.0813  0.1308
 1083YOPC   GL114469   2.414   7.494   5.867 -0.1484 -0.1136 -0.5579
 1083YOPC   GL214470   2.635   7.343   5.841 -0.1974 -0.3054  0.1749
 1083YOPC   C1A14471   2.552   7.754   6.315  0.2130 -0.0766 -0.0839
 1083YOPC   D2A14472   2.587   8.163   6.579 -0.0735  0.0858 -0.1807
 1083YOPC   C3A14473   2.770   8.150   7.010 -0.4793 -0.3383  0.2203
 1083YOPC   C4A14474   2.954   7.794   7.151 -0.1096  0.1564  0.1456
 1083YOPC   C1B14475   2.419   7.237   6.276  0.1176  0.2023  0.2002
 1083YOPC   C2B14476   2.224   7.390   6.687 -0.6679  0.0220 -0.0727
 1083YOPC   D3B14477   1.865   7.387   6.524  0.2884  0.3068 -0.0835
 1083YOPC   C4B14478   1.497   7.604   6.444 -0.0984 -0.0352 -0.0963
 1084YOPC   NC314479   1.448  15.282   5.302 -0.0110 -0.1028 -0.0901
 1084YOPC   PO414480   1.337  15.191   5.723 -0.1563  0.1271 -0.0426
 1084YOPC   GL114481   1.341  15.369   6.130  0.2134  0.0449  0.0217
 1084YOPC   GL214482   1.145  15.569   6.123 -0.2309 -0.3988 -0.1340
 1084YOPC   C1A14483   1.084  15.226   6.468  0.0819 -0.1160 -0.0705
 1084YOPC   D2A14484   1.142  15.040   6.929  0.1779  0.2108 -0.1984
 1084YOPC   C3A14485   1.345  14.718   6.974 -0.0125 -0.1578  0.0646
 1084YOPC   C4A14486   1.132  14.350   7.065 -0.1411  0.2240  0.1951
 1084YOPC   C1B14487   1.408  15.622   6.644  0.2828 -0.0644  0.0040
 1084YOPC   C2B14488   1.589  15.528   7.018  0.0210 -0.1159 -0.0912
 1084YOPC   D3B14489   1.550  15.643   7.439  0.3392  0.0797  0.1253
 1084YOPC   C4B14490   1.398  15.865   7.749  0.1837  0.2231  0.0617
 1085YOPC   NC314491   9.886  17.168   5.911 -0.0291  0.1180  0.0855
 1085YOPC   PO414492  10.326  17.262   5.807  0.2498 -0.1244 -0.3062
 1085YOPC   GL114493  10.358  17.284   6.152  0.1991  0.0002  0.0733
 1085YOPC   GL214494  10.070  17.403   6.262 -0.0005 -0.0456 -0.0687
 1085YOPC   C1A14495  10.349  17.135   6.619  0.0046 -0.1738 -0.3317
 1085YOPC   D2A14496  10.629  17.214   6.959  0.0301 -0.0557 -0.2967
 1085YOPC   C3A14497  10.419  17.482   7.456  0.2268  0.1645  0.0813
 1085YOPC   C4A14498  10.333  17.276   7.797 -0.0394  0.1204 -0.3803
 1085YOPC   C1B14499  10.301  17.829   6.469 -0.0841 -0.3695 -0.2164
 1085YOPC   C2B14500  10.744  18.026   6.517  0.0932 -0.2269  0.1694
 1085YOPC   D3B14501  10.680  18.248   6.889  0.3861 -0.0200  0.1989
 1085YOPC   C4B14502  10.418  18.069   7.274  0.0989  0.0563  0.2591
 1086YOPC   NC314503  18.484  15.187   5.547  0.1864 -0.4085 -0.1712
 1086YOPC   PO414504  18.727  15.340   5.786 -0.0632 -0.0875  0.3046
 1086YOPC   GL114505  18.356  15.251   6.013  0.1037  0.2916  0.1276
 1086YOPC   GL214506  18.230  14.947   5.875 -0.3304  0.1207  0.1412
 1086YOPC   C1A14507  18.085  15.337   6.374  0.1118  0.1654  0.1705
 1086YOPC   D2A14508  17.948  15.310   6.820 -0.1280  0.0513  0.0038
 1086YOPC   C3A14509  18.238  15.347   7.035  0.0048 -0.2000 -0.0001
 1086YOPC   C4A14510  18.460  15.248   7.355  0.0821 -0.0458  0.1331
 1086YOPC   C1B14511  18.586  14.772   6.231  0.1360  0.1320  0.3552
 1086YOPC   C2B14512  18.826  14.642   6.643  0.3165  0.4625 -0.0636
 1086YOPC   D3B14513  18.812  14.169   6.790 -0.1275 -0.1719 -0.0250
 1086YOPC   C4B14514  18.918  13.837   6.972  0.0789 -0.0375 -0.0165
 1087YOPC   NC314515   9.765   1.068   5.356 -0.2281  0.1468  0.0955
 1087YOPC   PO414516   9.374   1.089   5.603  0.4076 -0.0861 -0.1888
 1087YOPC   GL114517   9.323   1.097   6.040 -0.2462  0.1434 -0.1777
 1087YOPC   GL214518   8.867   1.126   6.043  0.1289 -0.0138 -0.0680
 1087YOPC   C1A14519   9.552   0.995   6.371  0.3546  0.2663 -0.3388
 1087YOPC   D2A14520   9.792   0.827   6.745  0.1475  0.0301 -0.2594
 1087YOPC   C3A14521  10.057   0.440   6.818  0.1772  0.0597  0.2254
 1087YOPC   C4A14522  10.288   0.381   7.219  0.2767  0.0340 -0.2311
 1087YOPC   C1B14523   9.048   1.445   6.312 -0.1634 -0.1400  0.1362
 1087YOPC   C2B14524   9.139   1.701   6.678 -0.2826  0.2895  0.1337
 1087YOPC   D3B14525   8.779   1.951   6.899  0.1943 -0.2078 -0.1123
 1087YOPC   C4B14526   8.788   2.320   6.926  0.1140  0.2108  0.3266
 1088YOPC   NC314527   5.448  10.844   5.896  0.2251 -0.1454  0.1448
 1088YOPC   PO414528   5.779  10.666   5.723  0.3097  0.1900  0.3498
 1088YOPC   GL114529   5.798  10.493   6.054 -0.0681 -0.0473 -0.2402
 1088YOPC   GL214530   5.804  10.117   5.980 -0.2033 -0.1869 -0.1018
 1088YOPC   C1A14531   6.020  10.420   6.424 -0.0913  0.1336  0.2720
 1088YOPC   D2A14532   6.140  10.000   6.737  0.0857 -0.0247 -0.2217
 1088YOPC   C3A14533   6.044  10.033   7.218 -0.1466 -0.1396  0.1192
 1088YOPC   C4A14534   5.766   9.984   7.581 -0.2043  0.1457  0.0110
 1088YOPC   C1B14535   5.645  10.043   6.423  0.0760 -0.1867 -0.0573
 1088YOPC   C2B14536   5.675  10.254   6.783 -0.1797 -0.1436 -0.0848
 1088YOPC   D3B14537   6.025  10.540   6.974  0.2241  0.0185 -0.0165
 1088YOPC   C4B14538   6.394  10.331   7.187 -0.0961 -0.0502 -0.0469
 1089YOPC   NC314539  12.220   7.598   5.336  0.0552 -0.2564  0.1724
 1089YOPC   PO414540  11.782   7.674   5.466 -0.3028  0.1837  0.3896
 1089YOPC   GL114541  11.838   7.681   5.857  0.1820 -0.0919 -0.1521
 1089YOPC   GL214542  12.190   7.511   5.920 -0.0156 -0.1518  0.0389
 1089YOPC   C1A14543  11.930   7.525   6.374  0.0015 -0.0574  0.1239
 1089YOPC   D2A14544  11.650   7.752   6.677 -0.1151  0.3894  0.0823
 1089YOPC   C3A14545  11.650   7.554   7.093 -0.2010 -0.0742 -0.1208
 1089YOPC   C4A14546  12.004   7.529   7.396  0.1176  0.0783 -0.2624
 1089YOPC   C1B14547  12.090   7.098   6.062 -0.3234 -0.0256 -0.0536
 1089YOPC   C2B14548  12.403   6.774   6.240  0.0765 -0.2136 -0.0399
 1089YOPC   D3B14549  12.687   6.978   6.558 -0.3093  0.1212 -0.1432
 1089YOPC   C4B14550  12.714   6.978   6.955 -0.1783 -0.1236  0.1713
 1090YOPC   NC314551  14.603  16.903   5.523 -0.0166  0.1928  0.0251
 1090YOPC   PO414552  14.704  17.447   5.457 -0.0456  0.0542  0.4295
 1090YOPC   GL114553  14.666  17.224   5.908 -0.0592  0.1142 -0.0510
 1090YOPC   GL214554  14.911  16.959   6.042  0.1026 -0.0863  0.0750
 1090YOPC   C1A14555  14.625  17.466   6.212  0.0083  0.1974  0.0173
 1090YOPC   D2A14556  14.870  17.746   6.548 -0.1796  0.2980 -0.0815
 1090YOPC   C3A14557  15.209  17.608   6.702  0.1179 -0.0429  0.1326
 1090YOPC   C4A14558  15.615  17.575   6.822  0.0002  0.3234  0.1782
 1090YOPC   C1B14559  14.788  16.782   6.564 -0.0036  0.1149 -0.0135
 1090YOPC   C2B14560  14.992  16.902   6.954 -0.0117  0.0511 -0.1452
 1090YOPC   D3B14561  14.820  16.971   7.367 -0.0459  0.1553  0.1457
 1090YOPC   C4B14562  14.632  17.299   7.609 -0.0551  0.0165 -0.2427
 1091YOPC   NC314563  18.548   4.973   5.853  0.2204  0.2365  0.2180
 1091YOPC   PO414564  18.147   4.845   5.639 -0.0248 -0.1226  0.2794
 1091YOPC   GL114565  18.054   5.055   6.101  0.0472  0.4393  0.0435
 1091YOPC   GL214566  18.306   5.362   6.105  0.0106 -0.2703  0.3035
 1091YOPC   C1A14567  17.905   5.191   6.527  0.2927  0.1446 -0.3872
 1091YOPC   D2A14568  17.782   5.495   6.879 -0.1835  0.0039 -0.0541
 1091YOPC   C3A14569  17.750   5.946   6.889  0.0280  0.1335 -0.3323
 1091YOPC   C4A14570  17.614   6.242   6.568 -0.0212 -0.2230 -0.0444
 1091YOPC   C1B14571  18.387   5.218   6.504  0.0442  0.2606  0.0043
 1091YOPC   C2B14572  18.340   5.390   6.908 -0.1130 -0.0279  0.0112
 1091YOPC   D3B14573  18.194   5.186   7.169 -0.1799  0.2674 -0.2837
 1091YOPC   C4B14574  18.373   4.955   7.477  0.1886 -0.3323 -0.1060
 1092YOPC   NC314575  10.012  18.708   5.468 -0.1386 -0.2099  0.0168
 1092YOPC   PO414576  10.378  18.728   5.424 -0.0727  0.2022 -0.1553
 1092YOPC   GL114577  10.545  18.608   5.820 -0.1778  0.2985  0.1624
 1092YOPC   GL214578  10.804  18.765   6.071 -0.3073 -0.5867  0.1066
 1092YOPC   C1A14579  10.285  18.326   6.095  0.0916  0.0830  0.2532
 1092YOPC   D2A14580  10.001  18.205   6.390 -0.0930  0.1158  0.0697
 1092YOPC   C3A14581   9.969  18.092   6.783  0.3080  0.0032 -0.2262
 1092YOPC   C4A14582   9.850  17.963   7.219 -0.2698 -0.0704  0.1919
 1092YOPC   C1B14583  10.669  18.795   6.491  0.0233 -0.2914  0.0953
 1092YOPC   C2B14584  10.367  18.505   6.594  0.1011  0.2566  0.0700
 1092YOPC   D3B14585  10.165  18.486   7.022  0.3309 -0.0227 -0.1959
 1092YOPC   C4B14586  10.332  18.570   7.431  0.1276 -0.0326 -0.3590
 1093YOPC   NC314587   6.053  12.070   5.626  0.1193  0.3029  0.2294
 1093YOPC   PO414588   5.724  12.294   5.785  0.2777  0.1618  0.1610
 1093YOPC   GL114589   5.464  12.364   6.061  0.2850 -0.0946  0.0970
 1093YOPC   GL214590   5.194  12.387   6.168 -0.0059 -0.1892 -0.0899
 1093YOPC   C1A14591   5.458  12.613   6.507 -0.1797 -0.0291 -0.0415
 1093YOPC   D2A14592   5.289  12.778   7.006 -0.1519  0.0180 -0.0580
 1093YOPC   C3A14593   5.286  12.845   7.445  0.0687 -0.1047 -0.1601
 1093YOPC   C4A14594   5.524  13.003   7.811  0.1371  0.2327  0.0402
 1093YOPC   C1B14595   5.124  12.225   6.523  0.0364 -0.1373 -0.4273
 1093YOPC   C2B14596   5.129  12.253   6.995  0.1710 -0.1140 -0.1730
 1093YOPC   D3B14597   4.891  12.149   7.219 -0.1487  0.2852  0.1803
 1093YOPC   C4B14598   4.821  12.056   7.670 -0.0064 -0.2162 -0.0731
 1094YOPC   NC314599   1.975  13.630   5.092  0.1743  0.1482  0.1943
 1094YOPC   PO414600   1.665  13.413   5.279  0.4436  0.1453  0.1329
 1094YOPC   GL114601   1.701  13.468   5.817  0.1425 -0.0178 -0.1820
 1094YOPC   GL214602   1.511  13.202   5.996 -0.0225 -0.2549  0.0124
 1094YOPC   C1A14603   1.735  13.745   6.262  0.4080 -0.3272 -0.1221
 1094YOPC   D2A14604   1.423  13.771   6.680 -0.0614  0.1591  0.2037
 1094YOPC   C3A14605   1.630  13.927   7.145 -0.0372 -0.2794 -0.2022
 1094YOPC   C4A14606   1.717  14.265   7.497 -0.1541  0.1957 -0.0900
 1094YOPC   C1B14607   1.368  13.334   6.332 -0.0852  0.1336 -0.0445
 1094YOPC   C2B14608   1.367  13.300   6.820  0.1135  0.2488 -0.3701
 1094YOPC   D3B14609   1.348  13.102   6.939 -0.3145 -0.1676 -0.2262
 1094YOPC   C4B14610   1.314  13.027   7.434  0.0121  0.1547 -0.3291
 1095YOPC   NC314611   6.080   3.075   5.770 -0.2139  0.1840  0.0278
 1095YOPC   PO414612   5.844   2.876   5.512 -0.0244 -0.3195  0.0884
 1095YOPC   GL114613   5.723   2.767   6.006 -0.1275 -0.0084 -0.1314
 1095YOPC   GL214614   5.650   3.095   6.092  0.2024 -0.1244 -0.3563
 1095YOPC   C1A14615   5.606   2.514   6.271 -0.0074  0.3021  0.3054
 1095YOPC   D2A14616   5.360   2.390   6.704  0.0628  0.0160  0.2044
 1095YOPC   C3A14617   5.002   2.604   6.772 -0.0069  0.1384  0.1202
 1095YOPC   C4A14618   4.892   2.995   6.919 -0.0820  0.0074  0.0229
 1095YOPC   C1B14619   5.768   3.288   6.429  0.2757 -0.1307 -0.2668
 1095YOPC   C2B14620   5.675   3.207   6.840  0.1655  0.1886 -0.0243
 1095YOPC   D3B14621   5.399   2.891   6.994 -0.3157 -0.2698 -0.1687
 1095YOPC   C4B14622   5.533   2.592   7.302  0.0188  0.0409 -0.1112
 1096YOPC   NC314623   0.700  14.432   5.869 -0.1238 -0.0752  0.0769
 1096YOPC   PO414624   0.673  14.827   5.828  0.0179  0.4527 -0.0972
 1096YOPC   GL114625   0.365  14.635   6.173 -0.0640  0.1363  0.0853
 1096YOPC   GL214626   0.106  14.828   6.332 -0.2182 -0.0822  0.2674
 1096YOPC   C1A14627   0.293  14.221   6.509  0.1876 -0.2129  0.3457
 1096YOPC   D2A14628  -0.040  13.864   6.352  0.1962 -0.0430 -0.2018
 1096YOPC   C3A14629  -0.444  13.945   6.146  0.1517 -0.0666 -0.1314
 1096YOPC   C4A14630  -0.806  14.003   6.231 -0.0807  0.3918 -0.0942
 1096YOPC   C1B14631   0.051  15.252   6.398 -0.2559 -0.3240 -0.2010
 1096YOPC   C2B14632   0.166  15.552   6.615 -0.3681  0.1800 -0.1436
 1096YOPC   D3B14633   0.524  15.364   6.892 -0.2047  0.0065 -0.1914
 1096YOPC   C4B14634   0.663  15.119   7.185 -0.2201  0.0232  0.2697
 1097YOPC   NC314635   7.487   2.552   5.365  0.4186  0.1290 -0.0004
 1097YOPC   PO414636   7.508   2.966   5.658  0.1219  0.2318 -0.0062
 1097YOPC   GL114637   7.449   3.008   6.075 -0.3038  0.0590  0.2246
 1097YOPC   GL214638   7.597   2.551   6.247 -0.2609 -0.1046  0.2244
 1097YOPC   C1A14639   7.243   3.248   6.387 -0.2440  0.3448 -0.1383
 1097YOPC   D2A14640   6.835   3.267   6.574  0.2991  0.0625 -0.2464
 1097YOPC   C3A14641   6.726   3.136   6.984 -0.0887  0.1027 -0.0371
 1097YOPC   C4A14642   6.477   3.193   7.414 -0.0597 -0.0215 -0.1725
 1097YOPC   C1B14643   7.576   2.786   6.561  0.2853  0.1190 -0.1935
 1097YOPC   C2B14644   7.683   2.804   6.973  0.1178  0.1475 -0.1938
 1097YOPC   D3B14645   7.992   2.984   7.285  0.0015  0.0329  0.0199
 1097YOPC   C4B14646   8.300   2.983   7.461  0.3233 -0.0299 -0.1311
 1098YOPC   NC314647   8.013  10.377   5.604  0.0852 -0.0126  0.0722
 1098YOPC   PO414648   8.416  10.351   5.589  0.3626  0.1240 -0.0087
 1098YOPC   GL114649   8.590  10.284   6.078 -0.0275 -0.0880 -0.1301
 1098YOPC   GL214650   8.416  10.416   6.368  0.1180 -0.4251 -0.1736
 1098YOPC   C1A14651   8.704  10.052   6.418 -0.1417 -0.1878 -0.2275
 1098YOPC   D2A14652   8.597   9.747   6.797  0.0330  0.1678  0.1195
 1098YOPC   C3A14653   8.779   9.710   7.230  0.0092  0.0301 -0.1155
 1098YOPC   C4A14654   8.569   9.301   7.550  0.0578  0.3153 -0.3336
 1098YOPC   C1B14655   8.209  10.342   6.790  0.1884 -0.0102  0.1971
 1098YOPC   C2B14656   7.914  10.237   7.089 -0.0612  0.2153 -0.0958
 1098YOPC   D3B14657   7.593  10.113   7.465 -0.2407  0.0692  0.1315
 1098YOPC   C4B14658   7.551  10.084   7.699  0.1844  0.1181 -0.0256
 1099YOPC   NC314659  15.401   0.583   5.274 -0.1349  0.4420 -0.2133
 1099YOPC   PO414660  15.770   0.612   5.496 -0.1822  0.3164  0.0909
 1099YOPC   GL114661  15.621   0.809   5.881 -0.3129 -0.3477  0.2566
 1099YOPC   GL214662  15.917   0.989   5.905 -0.0527  0.1332  0.0147
 1099YOPC   C1A14663  15.568   0.974   6.304  0.0031 -0.0163 -0.1590
 1099YOPC   D2A14664  15.629   1.176   6.616  0.1005 -0.2747 -0.1913
 1099YOPC   C3A14665  15.461   1.210   7.049  0.0759 -0.0940  0.0366
 1099YOPC   C4A14666  15.430   1.437   7.380  0.1105 -0.1537  0.2219
 1099YOPC   C1B14667  16.157   1.072   6.206 -0.0177  0.2502 -0.1457
 1099YOPC   C2B14668  16.209   1.119   6.672 -0.0791 -0.0941  0.0173
 1099YOPC   D3B14669  16.004   0.868   7.020  0.1362  0.0871 -0.0039
 1099YOPC   C4B14670  15.863   0.365   6.956  0.2652 -0.1118 -0.2092
 1100YOPC   NC314671   1.467   8.578   5.542  0.2178 -0.2164  0.1050
 1100YOPC   PO414672   1.682   8.174   5.356 -0.0230 -0.1306  0.2082
 1100YOPC   GL114673   1.880   8.197   5.815  0.1230 -0.2030 -0.0866
 1100YOPC   GL214674   2.206   7.997   5.864 -0.3669 -0.2179 -0.0004
 1100YOPC   C1A14675   1.793   8.390   6.235  0.1023  0.0652  0.0452
 1100YOPC   D2A14676   2.242   8.549   6.495 -0.3365  0.1146  0.2008
 1100YOPC   C3A14677   2.339   8.632   6.959  0.0629  0.1105 -0.1233
 1100YOPC   C4A14678   2.559   8.532   7.282 -0.0835 -0.1074 -0.0040
 1100YOPC   C1B14679   2.305   8.490   5.974 -0.1654  0.0624  0.1577
 1100YOPC   C2B14680   2.140   8.888   5.937  0.1111 -0.0160 -0.0120
 1100YOPC   D3B14681   1.941   8.909   6.301 -0.0362 -0.2238  0.1747
 1100YOPC   C4B14682   1.859   8.769   6.716  0.1820  0.0077 -0.3229
 1101YOPC   NC314683  14.586   9.370   4.837  0.0108  0.1197 -0.0800
 1101YOPC   PO414684  14.566   9.317   5.232  0.0668 -0.0229  0.2978
 1101YOPC   GL114685  14.432   9.287   5.588  0.1004  0.0260 -0.2210
 1101YOPC   GL214686  14.645   9.364   5.826  0.2923  0.0446 -0.1763
 1101YOPC   C1A14687  14.228   9.151   5.931  0.2584  0.2804  0.0469
 1101YOPC   D2A14688  14.158   8.990   6.240  0.1981 -0.0059 -0.0717
 1101YOPC   C3A14689  14.300   8.872   6.683 -0.4005  0.3659  0.0056
 1101YOPC   C4A14690  14.363   8.793   7.134 -0.3116 -0.0531 -0.1414
 1101YOPC   C1B14691  14.550   9.235   6.373  0.1264  0.1518  0.0512
 1101YOPC   C2B14692  14.617   9.262   6.867 -0.1816  0.2837  0.1113
 1101YOPC   D3B14693  14.800   9.082   7.209 -0.1405  0.0319  0.0237
 1101YOPC   C4B14694  14.823   8.592   7.086  0.1223 -0.2972  0.1028
 1102YOPC   NC314695  18.352   9.786   5.619  0.0474 -0.1449 -0.3985
 1102YOPC   PO414696  18.862   9.862   5.602  0.2380 -0.0633 -0.1396
 1102YOPC   GL114697  18.823   9.807   6.145  0.0009 -0.0666 -0.0047
 1102YOPC   GL214698  19.089   9.774   6.284 -0.0767 -0.0850  0.0426
 1102YOPC   C1A14699  18.469  10.137   6.200  0.1902  0.1300 -0.3018
 1102YOPC   D2A14700  18.234  10.439   6.450  0.2796 -0.2228 -0.1248
 1102YOPC   C3A14701  18.016  10.310   6.734  0.2389  0.2798  0.0446
 1102YOPC   C4A14702  18.297  10.288   6.973 -0.1350  0.1617 -0.4087
 1102YOPC   C1B14703  18.896   9.602   6.596  0.0445  0.1302  0.1313
 1102YOPC   C2B14704  18.683   9.531   6.970  0.0639 -0.0173 -0.0330
 1102YOPC   D3B14705  18.486   9.887   7.181  0.1573 -0.3463 -0.1922
 1102YOPC   C4B14706  18.724  10.193   7.385  0.0461  0.0523 -0.0028
 1103YOPC   NC314707  11.136   3.060   5.033 -0.2780 -0.2868  0.0634
 1103YOPC   PO414708  10.928   3.255   5.222  0.3196 -0.2599 -0.2368
 1103YOPC   GL114709  10.988   3.405   5.548  0.2616 -0.2098 -0.3597
 1103YOPC   GL214710  10.575   3.605   5.643  0.1627 -0.2396 -0.0041
 1103YOPC   C1A14711  11.196   3.309   5.883  0.1521 -0.3424 -0.0789
 1103YOPC   D2A14712  11.138   3.342   6.383  0.0595  0.0901  0.1349
 1103YOPC   C3A14713  11.065   3.516   6.688  0.3382  0.3469 -0.1324
 1103YOPC   C4A14714  11.232   3.634   7.185  0.0512 -0.1778 -0.1175
 1103YOPC   C1B14715  10.674   3.381   6.044  0.1147 -0.1048 -0.3338
 1103YOPC   C2B14716  10.538   3.343   6.489 -0.0782 -0.0886  0.3419
 1103YOPC   D3B14717  10.538   3.742   6.825 -0.3192 -0.0376  0.2219
 1103YOPC   C4B14718  10.735   3.619   7.298 -0.1043  0.0771 -0.1249
 1104YOPC   NC314719  12.351   4.950   5.605  0.4169  0.2597  0.2477
 1104YOPC   PO414720  11.924   4.777   5.543  0.0102 -0.1650  0.1717
 1104YOPC   GL114721  11.922   4.831   5.976 -0.4051  0.4582  0.0641
 1104YOPC   GL214722  12.212   4.717   6.027  0.3368 -0.0144  0.2076
 1104YOPC   C1A14723  11.834   4.616   6.343 -0.0861 -0.1833 -0.3988
 1104YOPC   D2A14724  11.437   4.724   6.588 -0.0517  0.1440 -0.0273
 1104YOPC   C3A14725  11.239   4.536   6.897 -0.0011 -0.0570  0.0145
 1104YOPC   C4A14726  10.944   4.596   7.091 -0.2194 -0.0610 -0.2477
 1104YOPC   C1B14727  12.447   4.893   6.345 -0.0149 -0.1056 -0.2190
 1104YOPC   C2B14728  12.732   5.220   6.488 -0.0332  0.0030  0.0226
 1104YOPC   D3B14729  12.640   5.585   6.720 -0.3228 -0.3298 -0.1671
 1104YOPC   C4B14730  12.369   5.850   6.928  0.1011  0.2545  0.1168
 1105YOPC   NC314731  17.871   8.948   5.419  0.0114  0.2260 -0.0058
 1105YOPC   PO414732  18.100   8.929   5.742  0.1373 -0.1417  0.2659
 1105YOPC   GL114733  18.168   8.828   6.093  0.0144 -0.0192  0.3491
 1105YOPC   GL214734  18.194   8.470   6.256  0.2964 -0.0315 -0.1294
 1105YOPC   C1A14735  18.326   8.919   6.485 -0.0282  0.2497 -0.2716
 1105YOPC   D2A14736  18.285   9.338   6.787 -0.1595  0.0503 -0.0120
 1105YOPC   C3A14737  17.935   9.401   6.948 -0.2653 -0.3281 -0.0782
 1105YOPC   C4A14738  17.932   9.092   7.334  0.1230  0.4001 -0.0321
 1105YOPC   C1B14739  18.188   8.452   6.670 -0.2141 -0.2133 -0.2085
 1105YOPC   C2B14740  18.505   8.410   6.997  0.0553 -0.0084 -0.2862
 1105YOPC   D3B14741  18.657   8.630   7.350 -0.1358 -0.0188 -0.0424
 1105YOPC   C4B14742  18.504   8.730   7.723 -0.0245 -0.1515  0.0800
 1106YOPC   NC314743  18.384  14.337   5.050 -0.1365 -0.0917  0.1396
 1106YOPC   PO414744  17.996  14.275   5.250  0.2503  0.1411 -0.3632
 1106YOPC   GL114745  17.944  14.446   5.638  0.0621  0.1759  0.0284
 1106YOPC   GL214746  17.697  14.576   5.789 -0.0711  0.0448  0.2613
 1106YOPC   C1A14747  18.115  14.421   6.009  0.0806  0.1136 -0.3086
 1106YOPC   D2A14748  18.083  14.703   6.396 -0.2015 -0.2859 -0.0422
 1106YOPC   C3A14749  18.001  14.653   6.896 -0.1182 -0.1327 -0.3363
 1106YOPC   C4A14750  17.967  14.550   7.353 -0.0799  0.3459  0.3503
 1106YOPC   C1B14751  17.530  14.439   6.137 -0.0303 -0.1970  0.1135
 1106YOPC   C2B14752  17.789  14.300   6.426  0.1662  0.5173  0.3254
 1106YOPC   D3B14753  17.801  14.170   6.839  0.1785  0.4627 -0.4930
 1106YOPC   C4B14754  18.025  13.870   7.109  0.2670  0.2555 -0.0778
 1107YOPC   NC314755  12.714  14.163   5.464 -0.1498  0.1655 -0.0363
 1107YOPC   PO414756  12.760  13.905   5.771 -0.3353 -0.0075  0.1024
 1107YOPC   GL114757  12.717  14.167   6.221  0.0630  0.2498  0.1556
 1107YOPC   GL214758  12.567  14.496   6.270  0.3059  0.0895  0.1265
 1107YOPC   C1A14759  12.631  14.150   6.643 -0.0320 -0.0400  0.2786
 1107YOPC   D2A14760  12.588  14.236   7.078 -0.3666 -0.1008  0.2602
 1107YOPC   C3A14761  12.661  13.948   7.376  0.2168  0.1920  0.1305
 1107YOPC   C4A14762  12.952  13.648   7.500  0.2586  0.2507 -0.2167
 1107YOPC   C1B14763  12.232  14.798   6.350 -0.1234 -0.4163 -0.0285
 1107YOPC   C2B14764  12.003  14.951   6.741 -0.0720 -0.0704  0.1221
 1107YOPC   D3B14765  11.965  15.037   7.258 -0.1955  0.0369  0.2287
 1107YOPC   C4B14766  12.096  15.079   7.706 -0.4334  0.3944  0.0881
 1108YOPC   NC314767  14.304  16.249   4.885 -0.2859 -0.2864  0.1798
 1108YOPC   PO414768  14.605  15.967   5.132 -0.4963 -0.0344 -0.2252
 1108YOPC   GL114769  14.596  16.139   5.631 -0.0453  0.0801  0.0691
 1108YOPC   GL214770  14.798  16.353   5.785 -0.0720  0.0711 -0.2515
 1108YOPC   C1A14771  14.492  15.989   6.017 -0.1980  0.1933  0.0900
 1108YOPC   D2A14772  14.556  15.886   6.380 -0.1348 -0.0673  0.0760
 1108YOPC   C3A14773  14.666  16.155   6.681 -0.1844 -0.2201 -0.1205
 1108YOPC   C4A14774  14.636  16.125   7.053 -0.2025 -0.0534 -0.0935
 1108YOPC   C1B14775  14.722  16.401   6.194  0.0701  0.0997 -0.3219
 1108YOPC   C2B14776  14.356  16.472   6.549 -0.0189  0.1854  0.0034
 1108YOPC   D3B14777  14.571  16.620   7.008 -0.0501  0.0078  0.2477
 1108YOPC   C4B14778  14.355  16.749   7.366  0.0569 -0.1380 -0.2128
 1109YOPC   NC314779   3.013   9.079   5.369  0.0507 -0.3341  0.0720
 1109YOPC   PO414780   3.382   9.137   5.274 -0.0314  0.1587 -0.0059
 1109YOPC   GL114781   3.489   8.930   5.718  0.0500  0.2985 -0.0310
 1109YOPC   GL214782   3.703   8.710   5.684  0.2562  0.2675 -0.0967
 1109YOPC   C1A14783   3.424   8.879   6.108 -0.3237  0.3392  0.1389
 1109YOPC   D2A14784   3.461   8.773   6.484 -0.0015  0.2082 -0.1215
 1109YOPC   C3A14785   3.534   8.961   6.780 -0.2369  0.0274  0.1854
 1109YOPC   C4A14786   3.796   8.920   7.166 -0.1568  0.2908 -0.1656
 1109YOPC   C1B14787   3.929   9.012   6.014 -0.2848 -0.0160 -0.1996
 1109YOPC   C2B14788   3.980   9.353   6.374 -0.2034  0.2829 -0.1647
 1109YOPC   D3B14789   4.188   9.631   6.312 -0.2086 -0.0965  0.0838
 1109YOPC   C4B14790   4.358  10.037   6.400 -0.2474 -0.4581  0.0260
 1110YOPC   NC314791  10.657   8.063   5.373  0.2579 -0.3050 -0.2576
 1110YOPC   PO414792  11.075   8.239   5.395 -0.0940  0.2386 -0.2033
 1110YOPC   GL114793  11.346   7.978   5.746 -0.0121  0.1405  0.1167
 1110YOPC   GL214794  11.352   7.608   5.725  0.0787  0.0953  0.0575
 1110YOPC   C1A14795  11.589   8.078   6.083 -0.2290 -0.1101 -0.2851
 1110YOPC   D2A14796  11.687   8.310   6.446  0.3427  0.2737  0.1009
 1110YOPC   C3A14797  11.894   8.120   6.908  0.0555  0.0340 -0.1291
 1110YOPC   C4A14798  11.748   8.013   7.279  0.1016  0.2956  0.0608
 1110YOPC   C1B14799  11.468   7.603   6.211  0.0538  0.2731  0.4305
 1110YOPC   C2B14800  11.609   7.173   6.335  0.1183 -0.1104 -0.0340
 1110YOPC   D3B14801  11.530   7.167   6.830  0.1268 -0.2778 -0.0470
 1110YOPC   C4B14802  11.725   7.078   7.118 -0.1636 -0.0243 -0.2804
 1111YOPC   NC314803  14.088   8.393   5.386  0.0070  0.3999 -0.1406
 1111YOPC   PO414804  13.580   8.585   5.365 -0.0666  0.0518  0.0814
 1111YOPC   GL114805  13.519   8.650   5.700  0.2677  0.2911 -0.0015
 1111YOPC   GL214806  13.705   8.352   5.870 -0.1028 -0.1266 -0.1047
 1111YOPC   C1A14807  13.313   8.471   6.113 -0.1923  0.4532  0.2107
 1111YOPC   D2A14808  13.149   8.365   6.440  0.1845 -0.2555 -0.1983
 1111YOPC   C3A14809  13.089   8.307   6.878  0.3021  0.1690 -0.1175
 1111YOPC   C4A14810  13.174   8.033   7.196  0.0963  0.1179  0.2825
 1111YOPC   C1B14811  13.384   8.055   5.886  0.1658 -0.2694 -0.2149
 1111YOPC   C2B14812  13.145   7.658   5.850 -0.2744  0.3961  0.4501
 1111YOPC   D3B14813  13.250   7.218   6.080  0.0355  0.0670  0.2699
 1111YOPC   C4B14814  13.171   6.954   6.410  0.0045  0.1598 -0.2660
 1112YOPC   NC314815   4.637   6.644   5.327  0.0507 -0.0433  0.4516
 1112YOPC   PO414816   4.482   7.117   5.473  0.3082 -0.0213  0.1067
 1112YOPC   GL114817   4.478   7.231   5.856 -0.2862  0.1183  0.1309
 1112YOPC   GL214818   4.422   7.541   5.865 -0.0234 -0.3140  0.4234
 1112YOPC   C1A14819   4.727   7.343   6.187  0.0215 -0.1600  0.0546
 1112YOPC   D2A14820   4.981   6.933   6.327 -0.2559  0.5341  0.1556
 1112YOPC   C3A14821   5.142   6.897   6.682 -0.1231 -0.1692  0.1253
 1112YOPC   C4A14822   5.356   7.219   6.999  0.1420  0.0923 -0.0485
 1112YOPC   C1B14823   4.399   7.772   6.221 -0.3574  0.0683 -0.0571
 1112YOPC   C2B14824   4.273   7.836   6.655  0.0262 -0.1691  0.3713
 1112YOPC   D3B14825   3.891   7.866   6.787 -0.1196 -0.0574 -0.1357
 1112YOPC   C4B14826   3.764   8.067   7.117 -0.2523 -0.1004  0.0706
 1113YOPC   NC314827   8.774  16.677   6.048  0.1693  0.2256 -0.1458
 1113YOPC   PO414828   8.486  16.536   6.196  0.0903 -0.3809 -0.0191
 1113YOPC   GL114829   8.398  16.156   6.488  0.1502 -0.3464 -0.1449
 1113YOPC   GL214830   8.525  16.240   6.721  0.0481  0.1577  0.1587
 1113YOPC   C1A14831   8.069  15.974   6.749 -0.2746  0.1313 -0.3372
 1113YOPC   D2A14832   8.062  15.882   7.186  0.0441  0.1314  0.1212
 1113YOPC   C3A14833   7.847  16.034   7.524  0.0062  0.0914 -0.2447
 1113YOPC   C4A14834   7.414  16.061   7.815 -0.1063  0.2764  0.0220
 1113YOPC   C1B14835   8.588  16.192   7.132 -0.0234 -0.2724  0.2391
 1113YOPC   C2B14836   8.512  15.990   7.516  0.0275  0.0937 -0.4747
 1113YOPC   D3B14837   8.251  16.055   7.764 -0.6099 -0.2107 -0.0073
 1113YOPC   C4B14838   8.123  15.927   8.200 -0.0410 -0.0231  0.4334
 1114YOPC   NC314839  15.614  10.360   5.417 -0.0073 -0.0413 -0.0043
 1114YOPC   PO414840  15.316  10.572   5.392 -0.2103  0.0967  0.1766
 1114YOPC   GL114841  15.432  10.499   5.817 -0.1318  0.1670 -0.1342
 1114YOPC   GL214842  15.312  10.154   5.777  0.3472 -0.1111 -0.5577
 1114YOPC   C1A14843  15.514  10.401   6.243 -0.0266 -0.1958 -0.2058
 1114YOPC   D2A14844  15.576  10.250   6.691  0.0682  0.0968  0.1186
 1114YOPC   C3A14845  15.835  10.009   6.857 -0.2449  0.3036 -0.2074
 1114YOPC   C4A14846  15.651   9.563   7.038  0.1244  0.0062 -0.1058
 1114YOPC   C1B14847  15.325   9.891   6.158 -0.2035  0.0804  0.1917
 1114YOPC   C2B14848  15.327   9.836   6.604 -0.0174  0.0030  0.2278
 1114YOPC   D3B14849  14.958   9.876   6.771 -0.1850 -0.1463 -0.0033
 1114YOPC   C4B14850  14.652   9.791   6.977  0.1586  0.1667 -0.0991
 1115YOPC   NC314851   3.253   5.832   5.676  0.0466 -0.0363 -0.1569
 1115YOPC   PO414852   2.901   5.570   5.852  0.3521  0.2720  0.0169
 1115YOPC   GL114853   2.932   5.777   6.318  0.0494 -0.0393  0.0297
 1115YOPC   GL214854   2.961   5.939   6.174  0.0231  0.1493 -0.2112
 1115YOPC   C1A14855   2.862   5.952   6.738 -0.1810 -0.2641  0.0236
 1115YOPC   D2A14856   3.058   5.835   7.121  0.2342  0.1297 -0.0031
 1115YOPC   C3A14857   3.235   6.103   7.412 -0.1252  0.1541  0.3771
 1115YOPC   C4A14858   3.493   6.455   7.711 -0.1216 -0.1515 -0.0004
 1115YOPC   C1B14859   3.205   6.205   6.465  0.4646 -0.3076  0.0168
 1115YOPC   C2B14860   3.216   6.294   6.943 -0.0583 -0.4561 -0.1580
 1115YOPC   D3B14861   2.746   6.275   7.085 -0.4560  0.2329 -0.0025
 1115YOPC   C4B14862   2.741   6.214   7.516  0.0997  0.2429 -0.1678
 1116YOPC   NC314863  10.665   4.082   5.239 -0.0945  0.0533  0.0838
 1116YOPC   PO414864  10.917   4.054   5.541  0.1966 -0.1648  0.3364
 1116YOPC   GL114865  11.174   4.301   5.882 -0.0140 -0.0232  0.2772
 1116YOPC   GL214866  11.053   4.622   5.953  0.0407  0.0710 -0.0235
 1116YOPC   C1A14867  11.412   4.378   6.210 -0.0444 -0.1654 -0.1282
 1116YOPC   D2A14868  11.615   4.205   6.541 -0.0056  0.2131 -0.3031
 1116YOPC   C3A14869  11.732   4.424   6.952  0.3181 -0.0853  0.0358
 1116YOPC   C4A14870  12.047   4.369   7.365  0.2794 -0.0086  0.3545
 1116YOPC   C1B14871  10.689   4.846   6.072 -0.0871 -0.1461 -0.1838
 1116YOPC   C2B14872  10.708   5.057   6.443  0.2946 -0.0761  0.0123
 1116YOPC   D3B14873  10.935   4.866   6.656 -0.0952 -0.2250 -0.1059
 1116YOPC   C4B14874  11.124   5.113   6.970 -0.1833 -0.0843 -0.2458
 1117YOPC   NC314875  11.712  15.396   5.331 -0.1181 -0.1504 -0.2561
 1117YOPC   PO414876  11.271  15.687   5.487 -0.2442 -0.1307 -0.1516
 1117YOPC   GL114877  11.407  15.700   5.938 -0.1134  0.2442  0.1100
 1117YOPC   GL214878  11.185  15.347   6.049  0.5312 -0.1573 -0.0302
 1117YOPC   C1A14879  11.562  15.632   6.446 -0.1040  0.0975 -0.4500
 1117YOPC   D2A14880  11.694  15.393   6.824 -0.0976  0.1736 -0.0479
 1117YOPC   C3A14881  11.531  15.043   6.924 -0.0742 -0.1249  0.2113
 1117YOPC   C4A14882  11.216  14.783   6.702 -0.3321  0.3183 -0.1759
 1117YOPC   C1B14883  11.157  15.238   6.543  0.0885 -0.3958  0.1703
 1117YOPC   C2B14884  11.227  15.540   6.930 -0.2160 -0.1788  0.0724
 1117YOPC   D3B14885  11.498  15.379   7.295 -0.1192 -0.2895 -0.0780
 1117YOPC   C4B14886  11.606  15.161   7.665 -0.0501  0.0287  0.2320
 1118YOPC   NC314887  13.188  14.111   5.712 -0.0246 -0.4166  0.2683
 1118YOPC   PO414888  13.177  14.532   5.659  0.3228 -0.1738 -0.3425
 1118YOPC   GL114889  13.328  14.426   6.120 -0.0564  0.0106  0.1989
 1118YOPC   GL214890  13.211  14.097   6.247 -0.0379 -0.1606 -0.1973
 1118YOPC   C1A14891  13.337  14.510   6.557  0.2616  0.1676 -0.2895
 1118YOPC   D2A14892  12.900  14.601   6.724 -0.2768  0.2553 -0.0221
 1118YOPC   C3A14893  12.820  14.746   7.109  0.1053  0.1341  0.3688
 1118YOPC   C4A14894  13.018  14.698   7.414 -0.1697  0.2663 -0.0312
 1118YOPC   C1B14895  13.538  13.991   6.517  0.2137  0.1423 -0.1047
 1118YOPC   C2B14896  13.810  13.885   6.734 -0.2597 -0.0071 -0.0274
 1118YOPC   D3B14897  13.768  14.030   7.184 -0.3581  0.2352 -0.1278
 1118YOPC   C4B14898  13.409  13.780   7.388  0.0663  0.2129 -0.0463
 1119YOPC   NC314899  18.009   5.378   5.432 -0.1011  0.1661 -0.0919
 1119YOPC   PO414900  18.006   5.660   5.728  0.0378 -0.1621 -0.1191
 1119YOPC   GL114901  17.718   5.469   6.028  0.4008 -0.1469 -0.1298
 1119YOPC   GL214902  17.323   5.495   5.985  0.0944 -0.3298 -0.0777
 1119YOPC   C1A14903  17.524   5.686   6.486  0.2831 -0.0560  0.0802
 1119YOPC   D2A14904  17.267   5.939   6.747  0.1784 -0.1892 -0.1485
 1119YOPC   C3A14905  16.990   6.222   6.578 -0.1897  0.0217 -0.4501
 1119YOPC   C4A14906  16.601   6.432   6.621 -0.1410  0.0831 -0.0728
 1119YOPC   C1B14907  17.229   5.312   6.352  0.2619  0.2773 -0.3252
 1119YOPC   C2B14908  17.425   5.013   6.677 -0.2511 -0.0290  0.1944
 1119YOPC   D3B14909  17.726   5.010   7.038 -0.4559  0.1071 -0.1467
 1119YOPC   C4B14910  17.582   4.731   7.402 -0.3018  0.1375 -0.0294
 1120YOPC   NC314911  16.889  17.904   5.522 -0.2365 -0.1091 -0.2153
 1120YOPC   PO414912  17.050  17.528   5.894  0.1286 -0.1346  0.2810
 1120YOPC   GL114913  16.866  17.433   6.279 -0.3350 -0.0928  0.0717
 1120YOPC   GL214914  16.608  17.554   6.262 -0.1813  0.1872 -0.2917
 1120YOPC   C1A14915  16.857  17.187   6.625  0.0620 -0.2388  0.3451
 1120YOPC   D2A14916  16.903  16.888   6.922 -0.0661 -0.1657 -0.1812
 1120YOPC   C3A14917  16.617  16.887   7.313  0.0134  0.0312 -0.4208
 1120YOPC   C4A14918  16.529  16.579   7.627  0.0346 -0.1167  0.0926
 1120YOPC   C1B14919  16.436  17.806   6.575  0.0456  0.0578  0.0652
 1120YOPC   C2B14920  16.505  18.076   6.914 -0.1205  0.0472 -0.1317
 1120YOPC   D3B14921  16.590  17.865   7.253  0.2630 -0.1561 -0.0509
 1120YOPC   C4B14922  16.408  17.782   7.649 -0.1961 -0.0767  0.2119
 1121YOPC   NC314923   6.129   2.246   5.764 -0.0326  0.2708 -0.2794
 1121YOPC   PO414924   6.182   2.571   5.797  0.3336 -0.1232  0.1241
 1121YOPC   GL114925   6.196   2.906   6.191 -0.1741 -0.0072  0.0751
 1121YOPC   GL214926   6.467   3.070   6.116 -0.0500  0.1639 -0.0707
 1121YOPC   C1A14927   5.918   2.825   6.576  0.0242 -0.3473 -0.0230
 1121YOPC   D2A14928   5.844   2.719   6.953 -0.2855 -0.0362  0.1914
 1121YOPC   C3A14929   5.998   2.418   7.340  0.0083  0.0547 -0.2064
 1121YOPC   C4A14930   6.180   2.060   7.636  0.0107 -0.1386  0.2555
 1121YOPC   C1B14931   6.311   3.150   6.628 -0.1828 -0.1358 -0.1357
 1121YOPC   C2B14932   6.177   3.114   6.995 -0.0778 -0.0113  0.2049
 1121YOPC   D3B14933   5.982   2.973   7.387  0.0898 -0.1847 -0.1449
 1121YOPC   C4B14934   5.562   3.095   7.583  0.0084  0.2152  0.1307
 1122YOPC   NC314935   5.001   8.301   5.600  0.2001 -0.1835 -0.0218
 1122YOPC   PO414936   5.404   8.284   5.477  0.1496 -0.0691  0.0420
 1122YOPC   GL114937   5.273   8.277   5.971  0.0861  0.2970 -0.0877
 1122YOPC   GL214938   5.517   8.486   6.230 -0.0435 -0.0417  0.1716
 1122YOPC   C1A14939   5.230   8.119   6.358 -0.1883 -0.1508  0.0495
 1122YOPC   D2A14940   5.133   8.278   6.769  0.0517 -0.1277  0.2197
 1122YOPC   C3A14941   4.975   7.936   7.060  0.0839  0.0095  0.0315
 1122YOPC   C4A14942   5.054   7.570   7.321  0.1214  0.1439  0.0169
 1122YOPC   C1B14943   5.617   8.526   6.703 -0.3315 -0.2160 -0.1938
 1122YOPC   C2B14944   5.982   8.591   6.924 -0.1124  0.0036 -0.2359
 1122YOPC   D3B14945   6.094   8.245   7.216 -0.1921  0.4761  0.2982
 1122YOPC   C4B14946   6.103   7.881   7.537 -0.5279  0.0639 -0.2314
 1123YOPC   NC314947  14.162  11.930   5.549 -0.1220  0.1397  0.2347
 1123YOPC   PO414948  13.866  12.063   5.851  0.0102  0.2214  0.0066
 1123YOPC   GL114949  14.040  11.694   6.039  0.0839  0.0627 -0.4407
 1123YOPC   GL214950  14.411  11.680   5.962  0.3321  0.3405 -0.1589
 1123YOPC   C1A14951  14.135  11.437   6.467  0.2480 -0.1586  0.0726
 1123YOPC   D2A14952  14.457  11.143   6.788  0.2963  0.2527 -0.2586
 1123YOPC   C3A14953  14.452  11.167   7.151  0.4202  0.0370 -0.2209
 1123YOPC   C4A14954  14.299  11.445   7.422 -0.1764 -0.0301 -0.4444
 1123YOPC   C1B14955  14.437  11.845   6.470 -0.1990 -0.2826 -0.0980
 1123YOPC   C2B14956  14.361  11.701   6.876 -0.1826  0.0545 -0.0434
 1123YOPC   D3B14957  14.629  11.639   7.147 -0.2480  0.4018  0.3414
 1123YOPC   C4B14958  14.825  11.673   7.459 -0.2002  0.0844 -0.2217
 1124YOPC   NC314959  15.600  18.320   5.622 -0.0898 -0.0613 -0.0738
 1124YOPC   PO414960  15.948  18.521   5.682 -0.0553  0.0191 -0.0700
 1124YOPC   GL114961  15.825  18.703   6.034 -0.2378 -0.0660 -0.0100
 1124YOPC   GL214962  15.641  18.975   6.129  0.0797  0.0484  0.1812
 1124YOPC   C1A14963  16.043  18.830   6.443  0.0023 -0.3016 -0.1982
 1124YOPC   D2A14964  16.130  19.223   6.582  0.4033  0.0867 -0.0065
 1124YOPC   C3A14965  16.375  19.354   6.932  0.0427  0.1684  0.1294
 1124YOPC   C4A14966  16.654  19.624   7.100  0.1124 -0.3036  0.0964
 1124YOPC   C1B14967  15.562  18.914   6.599  0.0148 -0.0330 -0.0443
 1124YOPC   C2B14968  15.241  18.667   6.767 -0.4758 -0.1946  0.1663
 1124YOPC   D3B14969  15.294  18.486   7.154 -0.0705  0.0762  0.1551
 1124YOPC   C4B14970  15.240  18.597   7.647 -0.2833  0.4944  0.0239
 1125YOPC   NC314971   2.750   3.915   4.904 -0.2316 -0.1603 -0.3039
 1125YOPC   PO414972   2.623   3.689   5.169 -0.3149 -0.1966 -0.0330
 1125YOPC   GL114973   2.706   3.651   5.578 -0.0324  0.0248  0.2466
 1125YOPC   GL214974   2.987   3.847   5.689 -0.1389  0.0916  0.0952
 1125YOPC   C1A14975   2.658   3.821   6.034  0.1160 -0.0712 -0.0954
 1125YOPC   D2A14976   2.821   3.753   6.372 -0.3656  0.3100 -0.0621
 1125YOPC   C3A14977   2.818   4.135   6.537  0.0361 -0.0858  0.0517
 1125YOPC   C4A14978   2.444   4.390   6.654  0.0510  0.0755 -0.0781
 1125YOPC   C1B14979   3.180   3.570   6.032  0.1111  0.0711 -0.0262
 1125YOPC   C2B14980   3.201   3.375   6.414 -0.1240 -0.0928  0.0443
 1125YOPC   D3B14981   3.141   3.410   6.740 -0.2402  0.0408  0.0893
 1125YOPC   C4B14982   3.252   3.559   7.247 -0.3535  0.0246 -0.2461
 1126YOPC   NC314983  18.239   1.526   5.742 -0.1891 -0.3298 -0.1986
 1126YOPC   PO414984  18.673   1.448   5.752 -0.0451  0.0575  0.0219
 1126YOPC   GL114985  18.580   1.421   6.113  0.0857  0.1442 -0.0759
 1126YOPC   GL214986  18.638   1.228   6.298 -0.1006 -0.0110  0.1482
 1126YOPC   C1A14987  18.801   1.706   6.437 -0.0575 -0.0357  0.2147
 1126YOPC   D2A14988  18.702   1.893   6.889 -0.3064  0.0966 -0.0032
 1126YOPC   C3A14989  18.293   1.883   7.050  0.0155 -0.1546 -0.1045
 1126YOPC   C4A14990  18.143   1.777   7.427  0.3582 -0.0436 -0.3703
 1126YOPC   C1B14991  18.776   1.047   6.645 -0.1584  0.2688  0.0616
 1126YOPC   C2B14992  18.872   1.231   7.022 -0.3779  0.0703  0.0986
 1126YOPC   D3B14993  18.634   1.105   7.409 -0.0280 -0.0772 -0.1573
 1126YOPC   C4B14994  18.425   0.680   7.629 -0.1353  0.3342 -0.3284
 1127YOPC   NC314995  12.190   6.779   5.220 -0.1681 -0.0164 -0.4953
 1127YOPC   PO414996  12.550   6.653   5.354 -0.0687 -0.0511 -0.1014
 1127YOPC   GL114997  12.421   6.227   5.545  0.1063  0.0643  0.0511
 1127YOPC   GL214998  12.469   6.364   5.839 -0.0467  0.1360 -0.2510
 1127YOPC   C1A14999  12.340   5.882   5.939  0.0027  0.0805 -0.3886
 1127YOPC   D2A15000  12.293   5.727   6.364 -0.1137  0.1438 -0.0450
 1127YOPC   C3A15001  12.163   5.429   6.696  0.1019  0.1281 -0.0320
 1127YOPC   C4A15002  12.462   5.151   7.014 -0.0800 -0.5875 -0.1470
 1127YOPC   C1B15003  12.589   6.179   6.275  0.1816  0.2870  0.0742
 1127YOPC   C2B15004  12.786   6.120   6.681  0.0929  0.2465  0.1509
 1127YOPC   D3B15005  12.894   5.857   7.127  0.0269  0.3192  0.4824
 1127YOPC   C4B15006  12.933   5.789   7.497  0.2325  0.0171 -0.1924
 1128YOPC   NC315007   2.942  12.972   5.432 -0.0229 -0.1085  0.0887
 1128YOPC   PO415008   3.118  12.672   5.479 -0.4300  0.0261  0.1310
 1128YOPC   GL115009   3.096  12.458   5.911  0.2444 -0.0406 -0.5739
 1128YOPC   GL215010   3.186  12.216   6.161 -0.0816 -0.1217 -0.1378
 1128YOPC   C1A15011   2.705  12.274   6.127 -0.5975 -0.0519  0.1156
 1128YOPC   D2A15012   2.425  12.226   6.454  0.0277  0.0953  0.0031
 1128YOPC   C3A15013   2.440  11.842   6.705  0.2257 -0.4106  0.4062
 1128YOPC   C4A15014   2.306  11.585   6.978 -0.4670 -0.0096 -0.0364
 1128YOPC   C1B15015   3.043  12.308   6.545 -0.0286 -0.1523  0.0396
 1128YOPC   C2B15016   3.056  12.225   6.980  0.1281 -0.2079  0.0318
 1128YOPC   D3B15017   3.014  12.557   7.167 -0.1390  0.0444  0.1015
 1128YOPC   C4B15018   3.115  12.932   7.411 -0.1263  0.4163  0.1358
 1129YOPC   NC315019   1.124   0.540   5.333 -0.0156 -0.0379  0.0102
 1129YOPC   PO415020   1.033   0.440   5.784  0.2033  0.0049  0.0999
 1129YOPC   GL115021   0.965   0.385   6.108 -0.1107 -0.1370 -0.0490
 1129YOPC   GL215022   1.012   0.789   6.236 -0.2450 -0.1993  0.1344
 1129YOPC   C1A15023   0.859   0.359   6.571 -0.1191 -0.0092  0.0887
 1129YOPC   D2A15024   1.098   0.431   6.999 -0.2044  0.2494 -0.0526
 1129YOPC   C3A15025   1.157   0.753   7.232 -0.0006 -0.1359  0.3276
 1129YOPC   C4A15026   1.290   1.255   7.168  0.2466 -0.2494  0.0852
 1129YOPC   C1B15027   1.039   0.842   6.713 -0.1026  0.5229  0.3391
 1129YOPC   C2B15028   0.758   0.940   7.082  0.1753 -0.2752 -0.2576
 1129YOPC   D3B15029   0.867   1.116   7.519  0.2156  0.1184 -0.1023
 1129YOPC   C4B15030   1.330   1.115   7.658 -0.1191 -0.2489 -0.0686
 1130YOPC   NC315031   6.328  13.789   5.141  0.0985  0.0446 -0.1639
 1130YOPC   PO415032   6.612  13.412   5.505 -0.0274  0.4788  0.0479
 1130YOPC   GL115033   6.468  13.316   6.021  0.2681  0.1203  0.0314
 1130YOPC   GL215034   6.319  13.654   6.254  0.1507 -0.0202 -0.0650
 1130YOPC   C1A15035   6.642  12.982   6.179  0.1111  0.3638 -0.0409
 1130YOPC   D2A15036   6.397  12.664   6.428  0.0033 -0.1472  0.3589
 1130YOPC   C3A15037   6.133  12.703   6.774 -0.1919  0.0307 -0.0457
 1130YOPC   C4A15038   5.740  12.586   6.982 -0.0745 -0.0781 -0.0725
 1130YOPC   C1B15039   6.310  13.961   6.524  0.2254  0.1111  0.5042
 1130YOPC   C2B15040   6.271  13.939   7.000 -0.1016  0.2242  0.0325
 1130YOPC   D3B15041   6.067  13.569   7.241  0.4446 -0.0078  0.2406
 1130YOPC   C4B15042   5.761  13.252   7.413 -0.1946 -0.4375 -0.0865
 1131YOPC   NC315043   4.326  11.632   5.513 -0.2968  0.0793  0.0565
 1131YOPC   PO415044   4.462  11.924   5.852  0.0203  0.6867 -0.0204
 1131YOPC   GL115045   4.320  11.425   6.031 -0.0559  0.6292  0.1904
 1131YOPC   GL215046   4.102  11.529   6.281  0.0756 -0.0867  0.0105
 1131YOPC   C1A15047   4.361  11.055   6.393 -0.3562 -0.1787  0.1253
 1131YOPC   D2A15048   4.117  10.835   6.756  0.1477  0.2722  0.0490
 1131YOPC   C3A15049   4.218  10.434   6.993 -0.3992 -0.2078  0.3461
 1131YOPC   C4A15050   4.393  10.049   7.123  0.0138 -0.3085  0.1724
 1131YOPC   C1B15051   3.749  11.447   6.400  0.1754 -0.2456  0.5330
 1131YOPC   C2B15052   3.551  11.480   6.838 -0.0721 -0.0727  0.0266
 1131YOPC   D3B15053   3.170  11.318   6.962  0.0879 -0.0545 -0.3349
 1131YOPC   C4B15054   2.756  11.413   7.203  0.0442 -0.1412  0.0649
 1132YOPC   NC315055   1.449  14.722   5.426  0.3399 -0.2720 -0.2137
 1132YOPC   PO415056   1.406  14.424   5.609  0.3006 -0.2562 -0.0621
 1132YOPC   GL115057   1.781  14.498   5.710  0.1569 -0.1601 -0.1979
 1132YOPC   GL215058   1.783  14.810   5.752  0.1654 -0.1097  0.1190
 1132YOPC   C1A15059   2.068  14.560   6.133 -0.1606  0.4885 -0.0811
 1132YOPC   D2A15060   2.418  14.444   6.479  0.1624 -0.2399  0.1168
 1132YOPC   C3A15061   2.427  14.642   6.941 -0.0100 -0.1060 -0.2758
 1132YOPC   C4A15062   2.719  14.675   7.385 -0.3291  0.1541 -0.1663
 1132YOPC   C1B15063   1.709  14.996   6.230  0.0930 -0.0833 -0.3211
 1132YOPC   C2B15064   1.568  15.045   6.642  0.3812 -0.1580  0.3764
 1132YOPC   D3B15065   1.831  15.038   7.015  0.1011  0.0558 -0.0663
 1132YOPC   C4B15066   2.157  14.965   7.194 -0.4631 -0.2095 -0.2393
 1133YOPC   NC315067  16.274  16.352   5.423  0.2252  0.2349  0.4685
 1133YOPC   PO415068  15.995  16.111   5.364  0.1521  0.1200  0.2250
 1133YOPC   GL115069  15.754  16.015   5.858  0.0139 -0.0996  0.0065
 1133YOPC   GL215070  15.567  15.811   5.738 -0.1157 -0.0909 -0.2036
 1133YOPC   C1A15071  15.559  15.931   6.278  0.2872 -0.1841 -0.0565
 1133YOPC   D2A15072  15.372  15.586   6.501  0.0022 -0.0710  0.2607
 1133YOPC   C3A15073  15.432  15.738   6.876 -0.0152 -0.0482  0.2500
 1133YOPC   C4A15074  15.383  15.884   7.178 -0.1140  0.2052 -0.1493
 1133YOPC   C1B15075  15.485  15.412   6.010  0.1438 -0.1115  0.1302
 1133YOPC   C2B15076  15.160  15.222   6.148 -0.0270 -0.2378  0.2721
 1133YOPC   D3B15077  15.086  15.113   6.539 -0.1726  0.0174 -0.1061
 1133YOPC   C4B15078  15.156  15.143   6.938 -0.0520 -0.3772 -0.0369
 1134YOPC   NC315079   0.972   2.012   5.480 -0.2881 -0.1395 -0.0451
 1134YOPC   PO415080   0.760   1.704   5.773 -0.1713  0.1480 -0.3072
 1134YOPC   GL115081   0.616   1.752   6.192  0.0067 -0.2048 -0.0996
 1134YOPC   GL215082   0.763   1.952   6.448  0.1182 -0.3227 -0.1827
 1134YOPC   C1A15083   0.348   1.604   6.496  0.1263  0.0149 -0.1530
 1134YOPC   D2A15084   0.257   1.556   6.938  0.4006  0.0910  0.2787
 1134YOPC   C3A15085   0.440   1.387   7.307 -0.1009  0.3188 -0.0612
 1134YOPC   C4A15086   0.154   1.141   7.593 -0.0761 -0.0102  0.1469
 1134YOPC   C1B15087   0.522   1.928   6.847  0.0226 -0.1889  0.1306
 1134YOPC   C2B15088   0.304   1.940   7.355  0.1339 -0.2782 -0.0144
 1134YOPC   D3B15089  -0.010   1.664   7.375  0.2310 -0.5601 -0.1178
 1134YOPC   C4B15090  -0.330   1.582   7.574  0.3888  0.1118 -0.3745
 1135YOPC   NC315091  12.496   5.771   5.222 -0.2821 -0.2948 -0.1145
 1135YOPC   PO415092  12.548   5.481   5.465 -0.0497  0.0674 -0.2318
 1135YOPC   GL115093  12.616   5.482   5.961 -0.2905  0.2059 -0.1496
 1135YOPC   GL215094  12.277   5.304   6.021 -0.1176 -0.0979 -0.2724
 1135YOPC   C1A15095  12.826   5.690   6.258 -0.2430  0.0561 -0.0719
 1135YOPC   D2A15096  13.111   5.776   6.660  0.0266  0.3430 -0.0671
 1135YOPC   C3A15097  13.295   6.238   6.602 -0.0069  0.1453 -0.3267
 1135YOPC   C4A15098  13.501   6.480   6.326 -0.0644  0.1173 -0.2809
 1135YOPC   C1B15099  12.024   5.226   6.261  0.0033  0.0373 -0.2452
 1135YOPC   C2B15100  11.739   5.114   6.605  0.2245 -0.1639 -0.0812
 1135YOPC   D3B15101  12.013   4.898   6.790  0.0620  0.1984  0.2734
 1135YOPC   C4B15102  12.398   4.708   6.838 -0.2432  0.1528  0.0677
 1136YOPC   NC315103   4.725   1.012   5.354  0.2653  0.1337  0.3330
 1136YOPC   PO415104   4.354   1.430   5.433 -0.0405 -0.0551 -0.0090
 1136YOPC   GL115105   4.115   1.574   5.813 -0.1410 -0.0217 -0.2607
 1136YOPC   GL215106   4.371   1.474   5.986  0.1192 -0.3805  0.4262
 1136YOPC   C1A15107   3.887   1.528   6.307 -0.2126 -0.0368 -0.2719
 1136YOPC   D2A15108   3.743   1.770   6.507  0.2998  0.1480 -0.1621
 1136YOPC   C3A15109   3.770   1.927   6.970 -0.3104  0.2017 -0.0782
 1136YOPC   C4A15110   3.589   2.064   7.312 -0.0804  0.0683 -0.2144
 1136YOPC   C1B15111   4.408   1.275   6.418  0.2186  0.1228  0.1063
 1136YOPC   C2B15112   4.489   0.996   6.692  0.3472  0.0431  0.2823
 1136YOPC   D3B15113   4.927   0.904   6.517  0.4374 -0.0462 -0.0658
 1136YOPC   C4B15114   5.192   0.651   6.400  0.0539 -0.3261 -0.0637
 1137YOPC   NC315115   5.908   5.465   5.472  0.1694  0.1385 -0.0820
 1137YOPC   PO415116   6.072   5.613   5.726 -0.3851 -0.2051 -0.3417
 1137YOPC   GL115117   5.855   5.528   6.047 -0.0954 -0.1498 -0.1139
 1137YOPC   GL215118   5.873   5.281   6.113 -0.0393 -0.2066  0.0396
 1137YOPC   C1A15119   5.959   5.657   6.499  0.2333  0.1611  0.1084
 1137YOPC   D2A15120   6.047   5.411   6.855  0.2330 -0.3032 -0.1428
 1137YOPC   C3A15121   5.977   5.417   7.280  0.2350 -0.1886 -0.0763
 1137YOPC   C4A15122   5.778   5.550   7.663  0.1489  0.5683 -0.0127
 1137YOPC   C1B15123   5.771   5.165   6.516 -0.0669  0.0477  0.0555
 1137YOPC   C2B15124   5.748   4.964   6.920 -0.1789  0.0457  0.3244
 1137YOPC   D3B15125   6.080   4.847   7.218  0.0185  0.0021 -0.0557
 1137YOPC   C4B15126   6.331   5.164   7.446 -0.3125  0.1149 -0.1185
 1138YOPC   NC315127  10.582   0.260   5.220 -0.3194 -0.3628 -0.2083
 1138YOPC   PO415128  10.379   0.394   5.690  0.1632  0.2435 -0.1622
 1138YOPC   GL115129  10.283   0.653   6.081 -0.0672  0.1991 -0.0458
 1138YOPC   GL215130  10.011   0.862   6.039  0.0560 -0.1326  0.1327
 1138YOPC   C1A15131  10.245   0.791   6.476  0.3300  0.0501  0.1034
 1138YOPC   D2A15132  10.305   0.806   6.964 -0.0043 -0.3705  0.0555
 1138YOPC   C3A15133  10.596   1.032   7.132 -0.0150  0.2626  0.1013
 1138YOPC   C4A15134  11.025   0.712   7.169 -0.1367 -0.1376  0.0326
 1138YOPC   C1B15135  10.053   1.229   6.426 -0.2053  0.0978  0.1151
 1138YOPC   C2B15136   9.778   1.300   6.729 -0.1370 -0.0262 -0.2282
 1138YOPC   D3B15137   9.936   1.151   7.181  0.1256  0.0547  0.0431
 1138YOPC   C4B15138   9.980   1.264   7.496  0.2665 -0.0595  0.0394
 1139YOPC   NC315139  18.879   0.602   5.344 -0.0278  0.2291 -0.3712
 1139YOPC   PO415140  19.193   0.380   5.561  0.4798  0.3723 -0.2373
 1139YOPC   GL115141  19.242   0.575   5.995 -0.0668  0.1605 -0.6554
 1139YOPC   GL215142  19.465   0.792   6.041  0.1228 -0.3914 -0.1438
 1139YOPC   C1A15143  18.974   0.600   6.323  0.0614 -0.0614 -0.1307
 1139YOPC   D2A15144  18.651   0.333   6.545  0.2781  0.3448 -0.1191
 1139YOPC   C3A15145  18.631  -0.166   6.677 -0.0433  0.1390  0.1787
 1139YOPC   C4A15146  18.482  -0.226   7.099 -0.0461  0.0338  0.0827
 1139YOPC   C1B15147  19.433   0.647   6.464 -0.0674  0.0708 -0.0996
 1139YOPC   C2B15148  19.425   0.497   6.885  0.3390  0.0035 -0.3193
 1139YOPC   D3B15149  19.307   0.653   7.334  0.3324  0.0790  0.4023
 1139YOPC   C4B15150  19.004   0.565   7.550  0.2563 -0.0610  0.0653
 1140YOPC   NC315151   5.494  13.595   5.438 -0.0270 -0.4702 -0.0662
 1140YOPC   PO415152   5.954  13.610   5.559 -0.2087 -0.0152  0.1801
 1140YOPC   GL115153   5.883  13.355   5.927 -0.2386  0.1067 -0.0289
 1140YOPC   GL215154   5.539  13.430   5.875 -0.0143 -0.3356 -0.0913
 1140YOPC   C1A15155   5.620  13.150   6.287 -0.2428  0.0228 -0.1093
 1140YOPC   D2A15156   5.656  13.025   6.695 -0.0463 -0.0752  0.0816
 1140YOPC   C3A15157   5.872  13.078   6.978 -0.1069  0.0255 -0.3374
 1140YOPC   C4A15158   6.106  12.965   7.294 -0.0748 -0.1337  0.0354
 1140YOPC   C1B15159   5.418  13.584   6.234  0.1862 -0.1345  0.2233
 1140YOPC   C2B15160   5.331  13.416   6.680  0.0572  0.1544  0.2421
 1140YOPC   D3B15161   5.616  13.591   7.001 -0.1627  0.0423  0.0327
 1140YOPC   C4B15162   5.617  13.728   7.367  0.0606 -0.2051  0.1779
 1141YOPC   NC315163  16.865  14.426   5.412  0.1178  0.0828 -0.0046
 1141YOPC   PO415164  16.950  13.995   5.500 -0.1072  0.1349 -0.1436
 1141YOPC   GL115165  16.814  14.081   5.926 -0.3118 -0.4368 -0.1262
 1141YOPC   GL215166  16.572  14.327   6.052 -0.0196  0.0440  0.3067
 1141YOPC   C1A15167  16.791  13.795   6.404 -0.0665  0.2840  0.0874
 1141YOPC   D2A15168  16.800  13.653   6.819 -0.2880  0.0019  0.0410
 1141YOPC   C3A15169  16.588  13.699   7.293  0.2441  0.3259 -0.1650
 1141YOPC   C4A15170  16.796  13.831   7.680  0.0651 -0.1606  0.0318
 1141YOPC   C1B15171  16.667  14.304   6.520 -0.2224  0.0853  0.0874
 1141YOPC   C2B15172  16.733  14.148   6.943  0.2112 -0.1820  0.0908
 1141YOPC   D3B15173  17.043  14.133   7.304  0.1807 -0.1184 -0.0458
 1141YOPC   C4B15174  17.247  14.483   7.424  0.3153  0.0424 -0.2239
 1142YOPC   NC315175  14.438   0.422   5.241  0.1711 -0.0083 -0.0003
 1142YOPC   PO415176  14.874   0.536   5.459 -0.1243  0.3155  0.0315
 1142YOPC   GL115177  14.721   0.661   5.887  0.3458 -0.3091 -0.1479
 1142YOPC   GL215178  14.748   0.620   6.231 -0.0495 -0.1960  0.1233
 1142YOPC   C1A15179  14.267   0.803   6.112  0.1214 -0.1237 -0.0841
 1142YOPC   D2A15180  14.150   1.145   6.462  0.0707 -0.0715  0.1161
 1142YOPC   C3A15181  14.004   1.127   6.901 -0.0235 -0.0118  0.0093
 1142YOPC   C4A15182  14.088   0.976   7.309 -0.2116 -0.0467 -0.2072
 1142YOPC   C1B15183  14.743   0.923   6.502 -0.0124 -0.1088  0.1430
 1142YOPC   C2B15184  14.503   1.146   6.875  0.0570  0.1196 -0.0440
 1142YOPC   D3B15185  14.433   0.706   7.077  0.1937  0.2861  0.0198
 1142YOPC   C4B15186  14.332   0.312   7.047  0.0345 -0.2529  0.1580
 1143YOPC   NC315187   4.811   0.343   6.010  0.1852  0.0261  0.3617
 1143YOPC   PO415188   4.639   0.673   5.804  0.4335 -0.0971 -0.0905
 1143YOPC   GL115189   4.500   0.731   6.229 -0.0108  0.0353 -0.2818
 1143YOPC   GL215190   4.385   0.505   6.461 -0.0479 -0.1145  0.0112
 1143YOPC   C1A15191   4.100   0.881   6.337 -0.2247  0.3817  0.2875
 1143YOPC   D2A15192   3.957   1.158   6.636  0.4775  0.0921  0.1371
 1143YOPC   C3A15193   4.022   0.929   7.023  0.1125 -0.0289 -0.2931
 1143YOPC   C4A15194   4.452   0.727   7.124  0.2862  0.0964 -0.3634
 1143YOPC   C1B15195   4.614   0.447   6.767  0.1786 -0.3544 -0.1365
 1143YOPC   C2B15196   4.633   0.262   7.214 -0.0171 -0.1837 -0.1728
 1143YOPC   D3B15197   4.462   0.461   7.636 -0.1808 -0.1794  0.2386
 1143YOPC   C4B15198   4.663   0.834   7.715  0.1184 -0.1716  0.3096
 1144ERGO   ROH15199   4.937   1.177   9.147 -0.1357  0.2027 -0.0988
 1144ERGO    R115200   5.148   1.114   8.970 -0.0721  0.0715  0.0239
 1144ERGO    R215201   5.107   0.978   8.733 -0.0032  0.0026  0.0576
 1144ERGO    R315202   5.237   1.191   8.626  0.1205 -0.0807  0.0358
 1144ERGO    R415203   5.230   0.993   8.410 -0.2019 -0.0241 -0.0212
 1144ERGO    R515204   5.406   1.094   8.487 -0.0537 -0.2019 -0.1038
 1144ERGO    C115205   5.422   1.202   8.121 -0.2014 -0.1178 -0.0876
 1144ERGO    C215206   5.397   1.358   7.822  0.0784  0.2537  0.0903
 1145ERGO   ROH15207   0.625   8.747   5.916 -0.2933 -0.1376 -0.2655
 1145ERGO    R115208   0.518   8.683   6.170 -0.1818 -0.0864 -0.2059
 1145ERGO    R215209   0.649   8.742   6.406 -0.0550 -0.0876 -0.2810
 1145ERGO    R315210   0.416   8.867   6.467  0.0001 -0.0336 -0.1731
 1145ERGO    R415211   0.573   8.879   6.714  0.1300 -0.0643 -0.2436
 1145ERGO    R515212   0.371   8.802   6.693  0.0972 -0.0221 -0.1456
 1145ERGO    C115213   0.309   9.077   6.950  0.2894 -0.0001 -0.1204
 1145ERGO    C215214   0.328   9.306   7.243 -0.4550 -0.0663  0.1490
 1146ERGO   ROH15215   8.862   5.504   5.863  0.2601 -0.1104 -0.1240
 1146ERGO    R115216   9.027   5.665   6.028  0.0220  0.1277 -0.1116
 1146ERGO    R215217   8.925   5.827   6.227 -0.2143 -0.2028  0.0448
 1146ERGO    R315218   9.100   5.690   6.384  0.1556  0.0497 -0.1325
 1146ERGO    R415219   8.985   5.894   6.561 -0.1554 -0.2687  0.0480
 1146ERGO    R515220   9.197   5.858   6.525 -0.0937  0.1711 -0.0979
 1146ERGO    C115221   9.185   5.805   6.902  0.2262 -0.0702 -0.1165
 1146ERGO    C215222   9.205   5.744   7.257 -0.3315 -0.0051  0.4749
 1147ERGO   ROH15223  16.209  15.568   5.834  0.1210  0.2488  0.1619
 1147ERGO    R115224  16.053  15.669   6.048  0.1012  0.1621  0.1897
 1147ERGO    R215225  15.937  15.505   6.238 -0.0157  0.0728  0.0500
 1147ERGO    R315226  16.070  15.666   6.412  0.0043 -0.0967  0.1930
 1147ERGO    R415227  15.874  15.523   6.577 -0.2583  0.0532  0.0070
 1147ERGO    R515228  15.901  15.739   6.565 -0.0422  0.0279  0.0794
 1147ERGO    C115229  15.962  15.684   6.938 -0.3808 -0.1172  0.1161
 1147ERGO    C215230  15.931  15.704   7.311 -0.1227 -0.0170  0.0834
 1148ERGO   ROH15231  15.189   7.168   6.274 -0.0230  0.2880 -0.0194
 1148ERGO    R115232  15.340   7.338   6.442  0.0064  0.0934  0.1539
 1148ERGO    R215233  15.256   7.409   6.695 -0.0502 -0.0320  0.1711
 1148ERGO    R315234  15.499   7.313   6.769 -0.1294 -0.2137  0.2000
 1148ERGO    R415235  15.392   7.439   7.012 -0.0119 -0.0191  0.1534
 1148ERGO    R515236  15.586   7.479   6.919  0.0208 -0.2251  0.1280
 1148ERGO    C115237  15.700   7.366   7.265 -0.0639 -0.1823  0.1702
 1148ERGO    C215238  15.566   7.235   7.598 -0.2421  0.1300 -0.2213
 1149ERGO   ROH15239   2.307   2.630   9.512 -0.1841  0.3314 -0.2063
 1149ERGO    R115240   2.333   2.703   9.240 -0.1650  0.1468 -0.2563
 1149ERGO    R215241   2.538   2.611   9.080 -0.0545  0.1702 -0.1357
 1149ERGO    R315242   2.334   2.532   8.919  0.0406 -0.0963 -0.1281
 1149ERGO    R415243   2.545   2.619   8.735 -0.1644  0.4054 -0.1334
 1149ERGO    R515244   2.338   2.688   8.737 -0.2919  0.0310 -0.0304
 1149ERGO    C115245   2.358   2.550   8.382 -0.1391  0.2921 -0.1250
 1149ERGO    C215246   2.254   2.347   8.163 -0.1631  0.0748  0.1281
 1150ERGO   ROH15247  13.910   2.371   9.162 -0.1054  0.1069 -0.1001
 1150ERGO    R115248  13.895   2.545   8.938  0.1586  0.1110 -0.1170
 1150ERGO    R215249  14.115   2.605   8.782  0.2439 -0.2872 -0.1598
 1150ERGO    R315250  13.955   2.520   8.580  0.0589 -0.0340 -0.1246
 1150ERGO    R415251  14.087   2.759   8.474  0.3867 -0.2129 -0.1368
 1150ERGO    R515252  13.872   2.722   8.481  0.3273  0.1021 -0.0819
 1150ERGO    C115253  13.920   2.769   8.105  0.2961  0.0682 -0.0903
 1150ERGO    C215254  13.977   2.809   7.780 -0.3517 -0.0308  0.1356
 1151ERGO   ROH15255  12.107   5.974   9.009 -0.0014  0.0221  0.0759
 1151ERGO    R115256  12.163   5.828   8.772  0.0587  0.0009  0.1016
 1151ERGO    R215257  11.965   5.747   8.597  0.0959 -0.0558  0.0783
 1151ERGO    R315258  12.117   5.878   8.415  0.1025 -0.0495  0.0903
 1151ERGO    R415259  11.947   5.703   8.255 -0.0690  0.1529  0.0592
 1151ERGO    R515260  12.163   5.715   8.246 -0.0683  0.0206 -0.0226
 1151ERGO    C115261  12.080   5.801   7.884 -0.1587  0.2804  0.0593
 1151ERGO    C215262  12.057   5.830   7.465  0.4863  0.2608 -0.0289
 1152ERGO   ROH15263  17.731  12.852   9.083 -0.0569  0.0130  0.0587
 1152ERGO    R115264  17.705  12.916   8.809 -0.0291 -0.2228  0.0007
 1152ERGO    R215265  17.536  12.777   8.639 -0.2831 -0.1405  0.1899
 1152ERGO    R315266  17.437  13.026   8.588  0.0778 -0.0358 -0.0392
 1152ERGO    R415267  17.387  12.872   8.343 -0.5305 -0.3322  0.2473
 1152ERGO    R515268  17.491  13.063   8.357 -0.1670 -0.4772 -0.1826
 1152ERGO    C115269  17.208  13.161   8.121 -0.3357 -0.3456  0.0656
 1152ERGO    C215270  16.947  13.064   7.991  0.1544 -0.0019  0.1762
 1153ERGO   ROH15271  14.756  10.468   5.697  0.2645 -0.0193  0.0588
 1153ERGO    R115272  14.744  10.337   5.948  0.1361 -0.0934  0.0149
 1153ERGO    R215273  14.969  10.243   6.078  0.0674 -0.1767  0.0810
 1153ERGO    R315274  14.874  10.395   6.283  0.0104 -0.2175  0.0848
 1153ERGO    R415275  15.091  10.238   6.401  0.0595 -0.1321  0.0849
 1153ERGO    R515276  14.886  10.251   6.474  0.0592 -0.2103  0.0822
 1153ERGO    C115277  15.073  10.377   6.781  0.0014 -0.1443  0.0908
 1153ERGO    C215278  15.158  10.502   7.092 -0.0090  0.0461  0.0109
 1154ERGO   ROH15279   1.330   2.621   9.458 -0.1777  0.0847  0.1446
 1154ERGO    R115280   1.359   2.444   9.239 -0.2085  0.0322  0.1823
 1154ERGO    R215281   1.147   2.369   9.080 -0.2080  0.0949  0.1517
 1154ERGO    R315282   1.307   2.458   8.879 -0.1281 -0.0108  0.1683
 1154ERGO    R415283   1.083   2.326   8.743 -0.3130  0.3096  0.1437
 1154ERGO    R515284   1.295   2.286   8.713 -0.3604  0.0677  0.0978
 1154ERGO    C115285   1.196   2.386   8.358 -0.2992  0.3355  0.1547
 1154ERGO    C215286   1.132   2.341   8.000 -0.1123 -0.1790  0.6325
 1155ERGO   ROH15287   1.856  13.266   9.095 -0.0715 -0.2030 -0.0785
 1155ERGO    R115288   1.839  13.215   8.817 -0.0882 -0.0981 -0.0971
 1155ERGO    R215289   1.657  13.343   8.653 -0.0681 -0.0018 -0.0469
 1155ERGO    R315290   1.879  13.407   8.510 -0.0580  0.0072 -0.0271
 1155ERGO    R415291   1.664  13.392   8.311 -0.0161 -0.0965 -0.0597
 1155ERGO    R515292   1.855  13.286   8.305  0.0069 -0.0549  0.0032
 1155ERGO    C115293   1.877  13.481   7.978  0.0237 -0.1434 -0.0486
 1155ERGO    C215294   1.795  13.575   7.657  0.0006  0.0453  0.1107
 1156ERGO   ROH15295  14.890   5.856   9.214 -0.0778 -0.2836 -0.0205
 1156ERGO    R115296  14.759   6.060   9.067 -0.0199 -0.1116  0.1601
 1156ERGO    R215297  14.601   6.006   8.847  0.0352  0.1373  0.0500
 1156ERGO    R315298  14.416   6.149   8.986  0.0102 -0.0009  0.1584
 1156ERGO    R415299  14.323   6.158   8.708 -0.0007  0.1853  0.1750
 1156ERGO    R515300  14.357   6.329   8.839 -0.0330  0.0937  0.2959
 1156ERGO    C115301  13.987   6.380   8.757 -0.0451  0.0837  0.3496
 1156ERGO    C215302  13.902   6.600   8.481 -0.0128 -0.0965 -0.1446
 1157ERGO   ROH15303   1.180   9.112   9.152  0.1184 -0.2666 -0.0664
 1157ERGO    R115304   1.257   9.262   8.924 -0.0329 -0.0730  0.0048
 1157ERGO    R215305   1.405   9.153   8.718  0.1260  0.1843 -0.0344
 1157ERGO    R315306   1.200   9.245   8.565  0.0199  0.0065 -0.0054
 1157ERGO    R415307   1.409   9.169   8.373 -0.0817 -0.0861 -0.0526
 1157ERGO    R515308   1.308   9.362   8.386 -0.1204 -0.1092 -0.1591
 1157ERGO    C115309   1.220   9.265   8.028 -0.3023 -0.4105 -0.0359
 1157ERGO    C215310   1.259   9.208   7.622  0.1698 -0.1824 -0.2817
 1158ERGO   ROH15311  11.133  14.744  10.132 -0.0362 -0.0008 -0.1603
 1158ERGO    R115312  11.186  14.844   9.873 -0.0016 -0.0272 -0.1650
 1158ERGO    R215313  11.309  14.692   9.677 -0.0895 -0.0949 -0.1796
 1158ERGO    R315314  11.089  14.759   9.532 -0.0705  0.0184 -0.1542
 1158ERGO    R415315  11.274  14.646   9.336 -0.1282  0.0261 -0.1914
 1158ERGO    R515316  11.176  14.840   9.325 -0.0629  0.0526 -0.1298
 1158ERGO    C115317  11.047  14.683   9.002 -0.1328  0.2029 -0.1744
 1158ERGO    C215318  11.084  14.788   8.618 -0.0467  0.1289  0.2907
 1159ERGO   ROH15319  13.347   7.312   9.326  0.0509 -0.3139 -0.0588
 1159ERGO    R115320  13.212   7.330   9.078 -0.0762 -0.4021  0.0037
 1159ERGO    R215321  13.339   7.404   8.844 -0.2972  0.0092  0.0074
 1159ERGO    R315322  13.235   7.170   8.752  0.1181 -0.1363 -0.1170
 1159ERGO    R415323  13.250   7.345   8.516 -0.3792  0.1051  0.0112
 1159ERGO    R515324  13.074   7.238   8.588 -0.1288 -0.3206  0.0395
 1159ERGO    C115325  13.101   7.091   8.237 -0.0371  0.0243 -0.1033
 1159ERGO    C215326  13.175   7.011   7.925 -0.1510 -0.1713 -0.0792
 1160ERGO   ROH15327   6.160  16.607   6.069  0.2003  0.0746 -0.0137
 1160ERGO    R115328   6.283  16.712   6.301  0.0987  0.1678 -0.0017
 1160ERGO    R215329   6.160  16.896   6.465 -0.1200 -0.0465  0.0709
 1160ERGO    R315330   6.216  16.714   6.658  0.1523 -0.0300  0.0124
 1160ERGO    R415331   6.154  16.962   6.804 -0.3709 -0.1842  0.0965
 1160ERGO    R515332   6.335  16.840   6.825 -0.1379  0.1359  0.1073
 1160ERGO    C115333   6.204  16.829   7.183 -0.2614 -0.2488  0.0564
 1160ERGO    C215334   6.140  17.118   7.474 -0.0408 -0.3384 -0.1326
 1161ERGO   ROH15335  12.942  15.986   6.312 -0.0884  0.2077 -0.1317
 1161ERGO    R115336  13.048  16.140   6.524 -0.0721  0.0550 -0.0273
 1161ERGO    R215337  13.020  16.068   6.790 -0.1045 -0.1052 -0.0747
 1161ERGO    R315338  13.291  16.092   6.791 -0.0993 -0.1587 -0.0390
 1161ERGO    R415339  13.219  16.058   7.072 -0.1738  0.1541 -0.0142
 1161ERGO    R515340  13.339  16.219   6.988 -0.1215  0.0434 -0.1593
 1161ERGO    C115341  13.588  16.075   7.238 -0.2094  0.2552  0.0545
 1161ERGO    C215342  13.732  16.037   7.529  0.1609 -0.0347 -0.3230
 1162ERGO   ROH15343  14.144   6.939   6.145 -0.2285  0.1057  0.0002
 1162ERGO    R115344  14.212   6.959   6.419 -0.3345 -0.1484  0.0481
 1162ERGO    R215345  14.392   7.146   6.515 -0.0688 -0.4846  0.2404
 1162ERGO    R315346  14.186   7.210   6.680 -0.0563 -0.2341  0.1605
 1162ERGO    R415347  14.425   7.236   6.847 -0.0710 -0.2186  0.1695
 1162ERGO    R515348  14.248   7.118   6.892 -0.1370 -0.0848  0.2476
 1162ERGO    C115349  14.252   7.349   7.195 -0.0607  0.1716  0.0531
 1162ERGO    C215350  14.308   7.527   7.481  0.0118  0.2042  0.0498
 1163ERGO   ROH15351   0.469  13.859   9.433  0.0313  0.0621 -0.0054
 1163ERGO    R115352   0.449  13.943   9.163  0.0473  0.0259 -0.0183
 1163ERGO    R215353   0.559  13.800   8.954 -0.0648 -0.0799 -0.0078
 1163ERGO    R315354   0.306  13.810   8.855 -0.0723  0.0545  0.0243
 1163ERGO    R415355   0.478  13.865   8.624 -0.0619 -0.2274 -0.0380
 1163ERGO    R515356   0.312  13.987   8.695  0.0433 -0.0517 -0.0905
 1163ERGO    C115357   0.193  13.912   8.340 -0.0673 -0.1870 -0.0253
 1163ERGO    C215358   0.206  13.708   8.121 -0.2271  0.1636 -0.0882
 1164ERGO   ROH15359   3.763  13.970   9.460 -0.1684  0.0714 -0.2411
 1164ERGO    R115360   3.832  14.123   9.232 -0.0167  0.0591 -0.2035
 1164ERGO    R215361   4.094  14.165   9.155  0.0258 -0.0647 -0.1103
 1164ERGO    R315362   4.006  14.065   8.918  0.0588  0.0063 -0.1542
 1164ERGO    R415363   4.190  14.281   8.843 -0.1736  0.2560 -0.0579
 1164ERGO    R515364   3.984  14.257   8.776 -0.1766  0.0915 -0.0148
 1164ERGO    C115365   4.163  14.254   8.440 -0.2586  0.5093 -0.0689
 1164ERGO    C215366   4.293  14.457   8.191  0.1140  0.0722  0.1737
 1165ERGO   ROH15367   8.709   5.632   9.149  0.2386  0.0661  0.0675
 1165ERGO    R115368   8.801   5.487   8.924  0.1845  0.0417  0.0609
 1165ERGO    R215369   8.665   5.486   8.682  0.0287 -0.1291  0.1454
 1165ERGO    R315370   8.906   5.566   8.584 -0.0810 -0.0130 -0.0362
 1165ERGO    R415371   8.749   5.497   8.347 -0.2404 -0.0375  0.0782
 1165ERGO    R515372   8.946   5.421   8.399 -0.1670  0.0361 -0.0924
 1165ERGO    C115373   9.024   5.578   8.061 -0.5002  0.1248 -0.1314
 1165ERGO    C215374   8.896   5.728   7.670  0.0159 -0.1732  0.0789
 1166ERGO   ROH15375   7.782  14.166   6.399  0.2306 -0.0203  0.1230
 1166ERGO    R115376   7.764  14.245   6.670  0.0544  0.0041  0.1038
 1166ERGO    R215377   7.653  14.485   6.748  0.0093  0.0082  0.0076
 1166ERGO    R315378   7.497  14.327   6.904 -0.0968  0.0301 -0.0727
 1166ERGO    R415379   7.513  14.581   7.049 -0.0855  0.0216 -0.0394
 1166ERGO    R515380   7.560  14.383   7.128 -0.1674 -0.0051 -0.0386
 1166ERGO    C115381   7.285  14.488   7.371 -0.2403  0.0499 -0.1421
 1166ERGO    C215382   7.099  14.711   7.427  0.4035 -0.0909  0.2295
 1167ERGO   ROH15383  11.976   0.192   9.347  0.3048 -0.0839 -0.1592
 1167ERGO    R115384  11.884   0.364   9.142  0.2008  0.1289  0.0610
 1167ERGO    R215385  12.039   0.567   9.039  0.2438  0.0748  0.0199
 1167ERGO    R315386  11.983   0.446   8.802 -0.1290  0.2774 -0.0029
 1167ERGO    R415387  12.076   0.715   8.728  0.6378  0.0502  0.0504
 1167ERGO    R515388  11.889   0.621   8.667  0.3481  0.5899  0.0445
 1167ERGO    C115389  12.045   0.687   8.325  0.5171  0.2262  0.0468
 1167ERGO    C215390  12.227   0.798   7.890  0.1196 -0.1217  0.2033
 1168ERGO   ROH15391   0.431  16.537   9.447  0.1741  0.1971 -0.1086
 1168ERGO    R115392   0.485  16.571   9.171  0.0436  0.1159 -0.1456
 1168ERGO    R215393   0.364  16.418   8.976  0.0524 -0.0367 -0.0351
 1168ERGO    R315394   0.297  16.660   8.873 -0.1304 -0.1168 -0.1080
 1168ERGO    R415395   0.327  16.486   8.639  0.2357 -0.1088 -0.0708
 1168ERGO    R515396   0.426  16.677   8.672  0.0062  0.0021 -0.0113
 1168ERGO    C115397   0.242  16.753   8.347  0.1708 -0.2262 -0.1601
 1168ERGO    C215398   0.101  16.817   8.017 -0.1610  0.2079 -0.1939
 1169ERGO   ROH15399   6.375  13.653   9.523 -0.3530  0.0120 -0.2354
 1169ERGO    R115400   6.343  13.742   9.257 -0.0182  0.1441 -0.2389
 1169ERGO    R215401   6.541  13.877   9.120  0.2794 -0.0592 -0.0386
 1169ERGO    R315402   6.503  13.681   8.936  0.1754  0.0402 -0.1215
 1169ERGO    R415403   6.661  13.886   8.796  0.0733  0.1096 -0.1110
 1169ERGO    R515404   6.472  13.799   8.729  0.0428  0.1405 -0.0387
 1169ERGO    C115405   6.695  13.706   8.434 -0.1443  0.3013 -0.2310
 1169ERGO    C215406   6.909  13.809   8.165 -0.2078  0.3649 -0.0119
 1170ERGO   ROH15407  15.660  14.583   5.719 -0.0313  0.1639 -0.0870
 1170ERGO    R115408  15.742  14.785   5.900 -0.0874  0.1030  0.0085
 1170ERGO    R215409  15.563  14.927   6.055 -0.1322  0.0079  0.0516
 1170ERGO    R315410  15.721  14.843   6.259 -0.1398 -0.0548  0.0304
 1170ERGO    R415411  15.586  15.081   6.363  0.0816  0.0783  0.0011
 1170ERGO    R515412  15.801  15.045   6.359  0.0493 -0.0908 -0.0505
 1170ERGO    C115413  15.749  15.091   6.734  0.1990  0.0604 -0.0481
 1170ERGO    C215414  15.668  15.280   7.072 -0.0384 -0.3502 -0.1250
 1171ERGO   ROH15415   3.871   1.459   9.649 -0.1728 -0.0442 -0.0670
 1171ERGO    R115416   3.960   1.543   9.394 -0.1020 -0.0605 -0.0475
 1171ERGO    R215417   3.952   1.379   9.172 -0.1422 -0.0385 -0.0607
 1171ERGO    R315418   3.813   1.585   9.064 -0.0390  0.0308 -0.0646
 1171ERGO    R415419   3.820   1.381   8.853 -0.1894  0.0003 -0.0414
 1171ERGO    R515420   3.882   1.589   8.834 -0.0704 -0.0368 -0.0760
 1171ERGO    C115421   3.611   1.577   8.565 -0.1200  0.0881 -0.0338
 1171ERGO    C215422   3.351   1.406   8.258  0.1276  0.2964  0.5030
 1172ERGO   ROH15423  14.066   5.219   9.373 -0.4630  0.1093 -0.1902
 1172ERGO    R115424  14.256   5.194   9.165 -0.2294  0.2548 -0.0007
 1172ERGO    R215425  14.220   5.025   8.950  0.2072  0.0796  0.0524
 1172ERGO    R315426  14.262   5.251   8.805  0.0258  0.0626 -0.0291
 1172ERGO    R415427  14.297   5.032   8.613  0.0512  0.0294  0.0149
 1172ERGO    R515428  14.439   5.193   8.654 -0.0125  0.1133 -0.0932
 1172ERGO    C115429  14.382   5.248   8.281 -0.2100 -0.0159 -0.0836
 1172ERGO    C215430  14.374   5.120   7.890 -0.2390 -0.0797  0.2235
 1173ERGO   ROH15431   2.518   6.033   6.024  0.0469 -0.1756  0.0702
 1173ERGO    R115432   2.374   6.070   6.265  0.0691 -0.3158  0.1052
 1173ERGO    R215433   2.452   5.954   6.503  0.3824 -0.0489  0.1391
 1173ERGO    R315434   2.441   6.210   6.594 -0.0603 -0.0112  0.0058
 1173ERGO    R415435   2.341   6.047   6.817  0.5238 -0.1170  0.2104
 1173ERGO    R515436   2.240   6.217   6.725  0.0550 -0.3701  0.2190
 1173ERGO    C115437   2.266   6.341   7.085  0.1906 -0.1213  0.1269
 1173ERGO    C215438   2.163   6.200   7.456 -0.1235 -0.0032 -0.1764
 1174ERGO   ROH15439  18.828  12.846   9.280 -0.1169 -0.2905 -0.2038
 1174ERGO    R115440  18.718  12.770   9.031  0.0031 -0.1521 -0.3028
 1174ERGO    R215441  18.687  12.947   8.821 -0.0129  0.0012 -0.1848
 1174ERGO    R315442  18.830  12.761   8.684  0.1297  0.1736 -0.2712
 1174ERGO    R415443  18.691  12.915   8.477 -0.1218  0.0320 -0.1881
 1174ERGO    R515444  18.687  12.698   8.503  0.1272  0.0332 -0.2120
 1174ERGO    C115445  18.827  12.721   8.148 -0.0515  0.2119 -0.2712
 1174ERGO    C215446  18.854  12.808   7.785 -0.1738 -0.2951  0.0334
 1175ERGO   ROH15447   8.582   7.483   9.337  0.0760 -0.0085 -0.1433
 1175ERGO    R115448   8.713   7.533   9.092 -0.0762 -0.0555 -0.2325
 1175ERGO    R215449   8.602   7.466   8.848 -0.2868  0.0267 -0.1508
 1175ERGO    R315450   8.646   7.728   8.791 -0.1859  0.0078 -0.1703
 1175ERGO    R415451   8.719   7.585   8.545 -0.2221 -0.0525 -0.1600
 1175ERGO    R515452   8.843   7.727   8.655 -0.1717 -0.0845 -0.1604
 1175ERGO    C115453   8.827   7.902   8.316 -0.0898 -0.1164 -0.1835
 1175ERGO    C215454   8.727   8.029   7.967 -0.0430  0.0362  0.1544
 1176ERGO   ROH15455   2.134  16.715   6.162  0.0584  0.2061 -0.0707
 1176ERGO    R115456   2.105  16.670   6.440  0.1109  0.3063 -0.0493
 1176ERGO    R215457   2.042  16.422   6.545 -0.0306  0.3812  0.0393
 1176ERGO    R315458   2.267  16.464   6.692  0.0434  0.2660 -0.0383
 1176ERGO    R415459   2.087  16.319   6.872  0.1480  0.0906 -0.0716
 1176ERGO    R515460   2.187  16.508   6.913  0.1542  0.0630  0.0464
 1176ERGO    C115461   2.324  16.299   7.200  0.3214 -0.1868 -0.2089
 1176ERGO    C215462   2.525  16.227   7.533  0.1485  0.1096  0.0182
 1177ERGO   ROH15463  12.841  12.672   6.602  0.2803 -0.0469  0.0944
 1177ERGO    R115464  12.903  12.762   6.863  0.1152  0.0850  0.0902
 1177ERGO    R215465  12.745  12.943   7.000 -0.1441 -0.0865  0.0254
 1177ERGO    R315466  12.748  12.750   7.191  0.0643 -0.0497  0.0612
 1177ERGO    R415467  12.719  13.001   7.339 -0.1520 -0.0497  0.0185
 1177ERGO    R515468  12.870  12.847   7.372 -0.0024  0.0984  0.0267
 1177ERGO    C115469  12.707  12.853   7.717  0.0391  0.0062  0.0480
 1177ERGO    C215470  12.760  12.822   8.038  0.1690 -0.0228  0.0049
 1178ERGO   ROH15471  17.895   6.994   9.387  0.2404 -0.0186  0.0082
 1178ERGO    R115472  18.011   6.985   9.129 -0.0484  0.0401 -0.1264
 1178ERGO    R215473  17.962   6.779   8.952 -0.1303  0.0087 -0.0556
 1178ERGO    R315474  17.892   6.982   8.785 -0.4385 -0.0437  0.0021
 1178ERGO    R415475  17.927   6.750   8.609  0.2669  0.1066 -0.1110
 1178ERGO    R515476  18.022   6.945   8.588 -0.1470  0.3576  0.0981
 1178ERGO    C115477  17.840   6.924   8.253  0.2091  0.1145 -0.0890
 1178ERGO    C215478  17.595   6.784   8.025 -0.0543 -0.5095 -0.1393
 1179ERGO   ROH15479  14.428   8.202   9.210 -0.0188  0.0205 -0.0025
 1179ERGO    R115480  14.481   8.149   8.937  0.0515  0.0498  0.0048
 1179ERGO    R215481  14.521   8.350   8.752  0.1200  0.0710  0.0386
 1179ERGO    R315482  14.752   8.215   8.703  0.1215  0.0566  0.0883
 1179ERGO    R415483  14.709   8.376   8.463  0.0946 -0.0734  0.0088
 1179ERGO    R515484  14.742   8.161   8.470  0.1051 -0.0662  0.1184
 1179ERGO    C115485  15.035   8.265   8.249  0.0810 -0.1709  0.0381
 1179ERGO    C215486  15.252   8.474   7.943 -0.1587 -0.1189  0.0100
 1180ERGO   ROH15487   6.302   1.238   7.110  0.0363 -0.2795  0.0153
 1180ERGO    R115488   6.417   1.345   7.345  0.0049 -0.1901 -0.0092
 1180ERGO    R215489   6.348   1.593   7.445  0.1230 -0.0737 -0.2106
 1180ERGO    R315490   6.298   1.452   7.672 -0.0662  0.1158 -0.1319
 1180ERGO    R415491   6.449   1.686   7.762  0.0950  0.0583 -0.2402
 1180ERGO    R515492   6.496   1.478   7.803 -0.0862  0.0436 -0.0854
 1180ERGO    C115493   6.461   1.608   8.160 -0.0989  0.3131 -0.1837
 1180ERGO    C215494   6.656   1.527   8.493 -0.2931  0.1996 -0.1784
 1181ERGO   ROH15495  18.799  11.460   9.183  0.1902 -0.2468 -0.0799
 1181ERGO    R115496  18.752  11.321   8.941 -0.0686 -0.1892 -0.0657
 1181ERGO    R215497  18.512  11.337   8.805 -0.0983  0.1187  0.0130
 1181ERGO    R315498  18.671  11.410   8.597 -0.0709 -0.0848 -0.0388
 1181ERGO    R415499  18.445  11.271   8.472 -0.3467  0.2869  0.0276
 1181ERGO    R515500  18.656  11.227   8.443 -0.4221 -0.0361 -0.0718
 1181ERGO    C115501  18.556  11.302   8.083 -0.4652  0.1937 -0.0126
 1181ERGO    C215502  18.701  11.141   7.829  0.3045 -0.0405 -0.0284
 1182ERGO   ROH15503   4.917  16.141   5.652 -0.0398 -0.0512 -0.0707
 1182ERGO    R115504   4.828  16.058   5.907  0.0121  0.1034 -0.0023
 1182ERGO    R215505   4.976  15.887   6.068  0.0692  0.2486  0.0932
 1182ERGO    R315506   4.947  16.087   6.250  0.0471  0.3633 -0.0329
 1182ERGO    R415507   4.996  15.847   6.411 -0.0722  0.4327  0.1254
 1182ERGO    R515508   4.829  15.985   6.432 -0.0514  0.4907 -0.0187
 1182ERGO    C115509   4.980  16.011   6.781 -0.1754  0.6476  0.0258
 1182ERGO    C215510   5.055  15.915   7.001  0.1809 -0.1346  0.1614
 1183ERGO   ROH15511  10.313  14.427   7.066 -0.2074 -0.0679 -0.2190
 1183ERGO    R115512  10.172  14.263   7.248 -0.0100 -0.0194 -0.0175
 1183ERGO    R215513  10.252  14.230   7.511  0.1164  0.2788 -0.0113
 1183ERGO    R315514   9.997  14.309   7.564  0.0729  0.1265  0.0071
 1183ERGO    R415515  10.103  14.220   7.823  0.1832  0.3137  0.0214
 1183ERGO    R515516   9.920  14.152   7.728  0.2122  0.1465  0.0903
 1183ERGO    C115517   9.778  14.288   8.055  0.1813  0.1911  0.0577
 1183ERGO    C215518   9.825  14.473   8.375  0.0584  0.2328 -0.0716
 1184ERGO   ROH15519   3.323  17.260   9.741  0.0734 -0.1001 -0.1195
 1184ERGO    R115520   3.452  17.253   9.489  0.1282 -0.0830 -0.0914
 1184ERGO    R215521   3.505  17.017   9.355 -0.0187 -0.0622 -0.1827
 1184ERGO    R315522   3.370  17.139   9.153  0.1221  0.1300 -0.1647
 1184ERGO    R415523   3.559  16.960   9.019 -0.1724 -0.1781 -0.1896
 1184ERGO    R515524   3.535  17.173   8.984  0.1468 -0.1373 -0.2022
 1184ERGO    C115525   3.464  17.041   8.633 -0.1298 -0.0651 -0.1767
 1184ERGO    C215526   3.490  17.002   8.196 -0.1502  0.2886 -0.1266
 1185ERGO   ROH15527   2.087  17.606   6.277 -0.4070  0.3682  0.0339
 1185ERGO    R115528   2.238  17.576   6.514 -0.1879  0.1452 -0.1283
 1185ERGO    R215529   2.186  17.723   6.743  0.1956  0.1319 -0.0274
 1185ERGO    R315530   2.172  17.478   6.858  0.0679  0.1094 -0.0879
 1185ERGO    R415531   2.125  17.666   7.078  0.1148  0.0778 -0.0508
 1185ERGO    R515532   2.274  17.507   7.073  0.0458  0.0129 -0.0636
 1185ERGO    C115533   2.076  17.402   7.382 -0.0521  0.0252 -0.1213
 1185ERGO    C215534   1.962  17.284   7.601 -0.1513  0.0987  0.1059
 1186ERGO   ROH15535   0.862   4.108   9.153 -0.0916 -0.0655  0.0810
 1186ERGO    R115536   0.939   4.016   8.897 -0.0217 -0.0544  0.0968
 1186ERGO    R215537   0.797   3.822   8.759  0.0474 -0.0946  0.0720
 1186ERGO    R315538   0.794   4.011   8.563  0.0392 -0.0962  0.0721
 1186ERGO    R415539   0.757   3.759   8.421  0.1860 -0.1000  0.0568
 1186ERGO    R515540   0.908   3.910   8.379  0.1376 -0.0448  0.1091
 1186ERGO    C115541   0.731   3.900   8.042  0.2590 -0.1047  0.0482
 1186ERGO    C215542   0.527   3.934   7.662 -0.0526 -0.4488 -0.1468
 1187ERGO   ROH15543   1.044   7.840   9.267  0.0371  0.3521  0.1531
 1187ERGO    R115544   0.972   7.992   9.040 -0.0856  0.1328  0.0411
 1187ERGO    R215545   1.153   8.147   8.902 -0.2376  0.2940  0.0144
 1187ERGO    R315546   1.067   8.003   8.688  0.0202  0.0549  0.0671
 1187ERGO    R415547   1.142   8.265   8.577 -0.7311  0.2722  0.0160
 1187ERGO    R515548   0.950   8.163   8.552 -0.4877 -0.2441  0.1259
 1187ERGO    C115549   1.055   8.198   8.187 -0.7766  0.0352  0.0665
 1187ERGO    C215550   1.217   8.408   7.876  0.0936  0.1728 -0.1665
 1188ERGO   ROH15551   1.909  11.631   9.258 -0.1136  0.1008 -0.0799
 1188ERGO    R115552   1.847  11.712   8.993  0.0612  0.0385 -0.1408
 1188ERGO    R215553   2.022  11.861   8.839  0.2020 -0.0802 -0.0949
 1188ERGO    R315554   1.987  11.658   8.661  0.2208 -0.1229 -0.0500
 1188ERGO    R415555   2.039  11.893   8.495 -0.0992 -0.0832 -0.1129
 1188ERGO    R515556   1.869  11.758   8.479 -0.0096 -0.2240  0.0352
 1188ERGO    C115557   2.016  11.722   8.129 -0.2570 -0.1250 -0.0813
 1188ERGO    C215558   2.038  11.749   7.868 -0.2544 -0.0303  0.2194
 1189ERGO   ROH15559   6.860   0.870   6.050 -0.0142 -0.6035  0.0874
 1189ERGO    R115560   6.792   0.939   6.316  0.0371 -0.2944  0.0243
 1189ERGO    R215561   6.530   0.959   6.402  0.0519 -0.1115  0.0343
 1189ERGO    R315562   6.614   0.783   6.592  0.0111  0.0611  0.2136
 1189ERGO    R415563   6.399   0.937   6.721 -0.0845  0.1160 -0.0043
 1189ERGO    R515564   6.602   0.908   6.797 -0.1100  0.2249  0.1096
 1189ERGO    C115565   6.402   0.759   7.085 -0.2020  0.4105  0.1416
 1189ERGO    C215566   6.378   0.499   7.214 -0.1373 -0.0751  0.0693
 1190ERGO   ROH15567   2.957   1.863   9.774 -0.0787 -0.2957  0.0525
 1190ERGO    R115568   3.016   1.833   9.499 -0.0746 -0.1027  0.0316
 1190ERGO    R215569   2.949   1.605   9.357  0.1628 -0.1114 -0.0630
 1190ERGO    R315570   2.826   1.784   9.192 -0.0546 -0.1710  0.0288
 1190ERGO    R415571   2.829   1.533   9.041  0.0785 -0.1447 -0.0246
 1190ERGO    R515572   2.904   1.726   8.973 -0.1031 -0.0660 -0.0198
 1190ERGO    C115573   2.644   1.659   8.702 -0.1746 -0.2200  0.0840
 1190ERGO    C215574   2.531   1.772   8.393 -0.1265  0.4867 -0.0041
 1191ERGO   ROH15575   2.882   9.679   6.045 -0.1970 -0.1550  0.0613
 1191ERGO    R115576   2.815   9.479   6.235  0.0698 -0.2542  0.0551
 1191ERGO    R215577   2.999   9.295   6.328  0.3539  0.0584  0.1381
 1191ERGO    R315578   2.922   9.388   6.571  0.1076 -0.0439  0.1010
 1191ERGO    R415579   3.146   9.208   6.628  0.2572  0.1823  0.2216
 1191ERGO    R515580   2.947   9.200   6.717  0.2099 -0.0307  0.0982
 1191ERGO    C115581   3.158   9.245   7.032 -0.0303  0.1582  0.2355
 1191ERGO    C215582   3.164   9.217   7.333 -0.2191 -0.2183 -0.0907
 1192ERGO   ROH15583   8.162   0.271   8.974 -0.0030  0.0699 -0.0901
 1192ERGO    R115584   8.320   0.094   8.819  0.0444  0.0445 -0.0122
 1192ERGO    R215585   8.319   0.095   8.543 -0.0452 -0.1555 -0.0127
 1192ERGO    R315586   8.587   0.124   8.574 -0.0493  0.0136 -0.1189
 1192ERGO    R415587   8.557  -0.050   8.339 -0.0341  0.0350 -0.1379
 1192ERGO    R515588   8.677  -0.091   8.516  0.0671  0.0802 -0.1940
 1192ERGO    C115589   8.948  -0.107   8.248 -0.0314  0.3047 -0.3106
 1192ERGO    C215590   9.119   0.006   8.002  0.0509  0.0732  0.1694
 1193ERGO   ROH15591   4.306   6.568   9.077  0.0415  0.0789 -0.0393
 1193ERGO    R115592   4.265   6.482   8.811 -0.1428  0.1351 -0.0298
 1193ERGO    R215593   4.038   6.544   8.667 -0.1221  0.3894  0.0541
 1193ERGO    R315594   4.217   6.639   8.486 -0.0816  0.2021 -0.0084
 1193ERGO    R415595   3.998   6.532   8.324 -0.0318 -0.0211  0.0527
 1193ERGO    R515596   4.210   6.482   8.306 -0.0144 -0.0182  0.1710
 1193ERGO    C115597   4.144   6.614   7.955  0.0589 -0.4361 -0.0069
 1193ERGO    C215598   4.030   6.562   7.641  0.0855 -0.1446 -0.1559
 1194ERGO   ROH15599   2.893   8.929   9.310  0.0622  0.0193 -0.1643
 1194ERGO    R115600   2.866   9.054   9.057  0.0811  0.0560 -0.1491
 1194ERGO    R215601   3.068   9.053   8.868  0.0523 -0.0234 -0.1844
 1194ERGO    R315602   2.874   8.950   8.709 -0.0247  0.0825 -0.1588
 1194ERGO    R415603   3.057   9.086   8.524  0.0656 -0.0865 -0.1903
 1194ERGO    R515604   2.841   9.116   8.539  0.0889  0.0694 -0.1915
 1194ERGO    C115605   2.868   9.008   8.174  0.0012 -0.0237 -0.1697
 1194ERGO    C215606   2.825   9.139   7.838  0.0429 -0.0646 -0.4835
 1195ERGO   ROH15607  12.014   0.155   6.017 -0.2582 -0.0076 -0.0255
 1195ERGO    R115608  12.048   0.347   6.222 -0.0937  0.1786 -0.2218
 1195ERGO    R215609  12.084   0.278   6.486 -0.4953  0.4162 -0.0900
 1195ERGO    R315610  12.306   0.434   6.463 -0.1606 -0.0393 -0.0716
 1195ERGO    R415611  12.240   0.439   6.749 -0.3335  0.3118 -0.1214
 1195ERGO    R515612  12.270   0.612   6.619  0.0976  0.1584 -0.2352
 1195ERGO    C115613  12.539   0.679   6.881  0.0750 -0.1766 -0.1225
 1195ERGO    C215614  12.801   0.488   7.051  0.0865 -0.2715  0.1823
 1196ERGO   ROH15615   1.724  10.181   9.462 -0.0617 -0.0386  0.0358
 1196ERGO    R115616   1.626  10.200   9.198 -0.1885 -0.1091  0.0755
 1196ERGO    R215617   1.722  10.386   9.017 -0.3615 -0.0696  0.0143
 1196ERGO    R315618   1.763  10.167   8.862 -0.3143 -0.0639  0.0209
 1196ERGO    R415619   1.758  10.391   8.673 -0.1192 -0.0549  0.0391
 1196ERGO    R515620   1.637  10.210   8.663 -0.1593 -0.0155 -0.0629
 1196ERGO    C115621   1.818  10.189   8.328  0.0662 -0.0412  0.0596
 1196ERGO    C215622   2.076  10.225   8.047 -0.3319  0.3954 -0.0288
 1197ERGO   ROH15623   1.919   8.770   9.219  0.0345 -0.2168 -0.2298
 1197ERGO    R115624   1.894   8.713   8.943  0.0858 -0.0824 -0.2628
 1197ERGO    R215625   1.731   8.860   8.775  0.0672 -0.0407 -0.2076
 1197ERGO    R315626   1.959   8.886   8.630  0.0789  0.0969 -0.1663
 1197ERGO    R415627   1.747   8.856   8.430  0.0802  0.4034 -0.2179
 1197ERGO    R515628   1.929   8.738   8.445  0.0528  0.3414 -0.3637
 1197ERGO    C115629   1.970   8.879   8.093  0.0988  0.7910 -0.1852
 1197ERGO    C215630   1.987   8.906   7.842 -0.0064  0.4555  0.0651
 1198ERGO   ROH15631  16.917   1.258   9.370  0.0079 -0.0311  0.0915
 1198ERGO    R115632  17.081   1.310   9.145  0.0626 -0.1164  0.1095
 1198ERGO    R215633  17.200   1.108   8.997  0.0669 -0.1797  0.1836
 1198ERGO    R315634  17.075   1.231   8.789  0.1189 -0.2155  0.1328
 1198ERGO    R415635  17.329   1.136   8.678  0.2090 -0.0677  0.2508
 1198ERGO    R515636  17.251   1.340   8.670  0.1173 -0.1136  0.2361
 1198ERGO    C115637  17.287   1.268   8.297  0.3406 -0.0360  0.2422
 1198ERGO    C215638  17.407   1.041   8.114 -0.0062 -0.1191  0.1058
 1199ERGO   ROH15639   5.536  14.740   6.000  0.0105  0.1582  0.0058
 1199ERGO    R115640   5.427  14.801   6.254  0.0391  0.0951  0.0341
 1199ERGO    R215641   5.567  14.760   6.490  0.1322  0.1956  0.0001
 1199ERGO    R315642   5.510  15.022   6.531 -0.0307  0.1601  0.0025
 1199ERGO    R415643   5.572  14.917   6.797  0.2623  0.2486 -0.0291
 1199ERGO    R515644   5.392  15.026   6.739  0.1339  0.1052  0.0971
 1199ERGO    C115645   5.521  15.255   7.015  0.1852  0.2460 -0.0439
 1199ERGO    C215646   5.367  15.533   7.076 -0.0685  0.0327 -0.0338
 1200ERGO   ROH15647  14.963  10.101   9.317  0.3348  0.0284  0.0886
 1200ERGO    R115648  15.094  10.030   9.076  0.0716 -0.2336  0.0172
 1200ERGO    R215649  15.031   9.801   8.934 -0.4362 -0.1358  0.0629
 1200ERGO    R315650  14.998   9.976   8.729 -0.2294 -0.0812  0.0741
 1200ERGO    R415651  14.984   9.711   8.604 -0.0993 -0.0449 -0.0129
 1200ERGO    R515652  15.115   9.876   8.546 -0.0418 -0.0281  0.1642
 1200ERGO    C115653  14.926   9.823   8.219  0.2909  0.0593 -0.0468
 1200ERGO    C215654  14.827   9.697   7.916  0.0587  0.0902  0.2979
 1201ERGO   ROH15655  16.660   7.895   9.285  0.0677 -0.1867  0.0552
 1201ERGO    R115656  16.690   8.010   9.029 -0.0011 -0.2512  0.0177
 1201ERGO    R215657  16.777   7.866   8.810 -0.0365 -0.3004  0.0356
 1201ERGO    R315658  16.548   7.959   8.697 -0.0706 -0.3523  0.0625
 1201ERGO    R415659  16.692   7.830   8.477  0.0223 -0.1555  0.0043
 1201ERGO    R515660  16.614   8.034   8.480 -0.0813 -0.1949  0.1117
 1201ERGO    C115661  16.427   7.896   8.178  0.0245 -0.1199  0.0113
 1201ERGO    C215662  16.422   7.859   7.899 -0.2691  0.0342  0.2688
 1202ERGO   ROH15663  10.376   3.793   9.196  0.1423 -0.0880  0.0373
 1202ERGO    R115664  10.367   3.853   8.920  0.0667 -0.0487  0.0482
 1202ERGO    R215665  10.562   3.771   8.743  0.0561  0.0397 -0.0042
 1202ERGO    R315666  10.351   3.665   8.608  0.0619 -0.0060  0.0222
 1202ERGO    R415667  10.549   3.727   8.400  0.0531 -0.0263  0.0044
 1202ERGO    R515668  10.341   3.792   8.405  0.0458 -0.0444 -0.0021
 1202ERGO    C115669  10.343   3.602   8.074  0.0568 -0.1077  0.0343
 1202ERGO    C215670  10.383   3.608   7.651 -0.1834  0.0336  0.0739
 1203ERGO   ROH15671  12.832  10.615   5.862  0.1310  0.2391  0.0508
 1203ERGO    R115672  12.969  10.596   6.108  0.0001  0.1479  0.1195
 1203ERGO    R215673  13.094  10.813   6.226  0.1984  0.0459  0.1189
 1203ERGO    R315674  12.940  10.744   6.440  0.0134  0.2747  0.0617
 1203ERGO    R415675  13.144  10.924   6.550  0.2668 -0.0835  0.1528
 1203ERGO    R515676  13.095  10.723   6.621 -0.0878 -0.0075  0.1121
 1203ERGO    C115677  13.029  10.924   6.938  0.1330  0.0559  0.1187
 1203ERGO    C215678  13.149  11.125   7.346  0.0397  0.0695 -0.0504
 1204ERGO   ROH15679  16.384   9.830   5.993 -0.1091 -0.2719  0.0808
 1204ERGO    R115680  16.416   9.974   6.235  0.1107 -0.0725 -0.0623
 1204ERGO    R215681  16.283   9.906   6.468 -0.0584  0.4057 -0.0033
 1204ERGO    R315682  16.535   9.903   6.571 -0.0725  0.0571  0.0308
 1204ERGO    R415683  16.361   9.961   6.800 -0.0044  0.6288 -0.0525
 1204ERGO    R515684  16.534  10.077   6.735  0.2233  0.2446 -0.1596
 1204ERGO    C115685  16.642   9.991   7.091  0.0139  0.4314 -0.0489
 1204ERGO    C215686  16.730   9.950   7.394 -0.2558 -0.2350 -0.1889
 1205ERGO   ROH15687  17.115   7.490   6.380  0.2920 -0.1648 -0.0993
 1205ERGO    R115688  17.009   7.300   6.562  0.1326 -0.0808 -0.1019
 1205ERGO    R215689  17.027   7.027   6.520  0.1996 -0.1020  0.0549
 1205ERGO    R315690  17.140   7.030   6.767 -0.0388  0.0347  0.1665
 1205ERGO    R415691  17.020   6.764   6.744 -0.1090  0.0558  0.2384
 1205ERGO    R515692  16.987   6.907   6.904 -0.2176  0.1842  0.1073
 1205ERGO    C115693  17.123   6.612   7.105 -0.5123  0.2761  0.4499
 1205ERGO    C215694  17.393   6.375   7.047 -0.3284 -0.1278 -0.1580
 1206ERGO   ROH15695   7.550   7.158   9.254  0.0277 -0.0004  0.0254
 1206ERGO    R115696   7.541   7.001   9.019 -0.0711 -0.2702  0.2053
 1206ERGO    R215697   7.311   6.880   8.929 -0.2761  0.2103  0.0788
 1206ERGO    R315698   7.368   7.013   8.699  0.3535 -0.2081 -0.0330
 1206ERGO    R415699   7.197   6.788   8.615 -0.6521  0.4052  0.1503
 1206ERGO    R515700   7.394   6.839   8.536 -0.3709 -0.5087  0.1209
 1206ERGO    C115701   7.185   6.860   8.217 -0.2799  0.1259  0.0869
 1206ERGO    C215702   7.106   6.812   7.997 -0.1834 -0.0334  0.1464
 1207ERGO   ROH15703  10.709   1.515   5.745  0.0529  0.5949 -0.1610
 1207ERGO    R115704  10.608   1.661   5.965  0.1116  0.4157 -0.0131
 1207ERGO    R215705  10.338   1.673   6.024  0.1186  0.4569  0.0015
 1207ERGO    R315706  10.420   1.587   6.268  0.0903  0.1846 -0.0810
 1207ERGO    R415707  10.154   1.699   6.316  0.1359  0.2422  0.0344
 1207ERGO    R515708  10.338   1.751   6.421  0.1583  0.0687  0.0840
 1207ERGO    C115709  10.125   1.633   6.715  0.1193 -0.1383 -0.0239
 1207ERGO    C215710   9.953   1.648   7.016  0.0879  0.2279 -0.1090
 1208ERGO   ROH15711  13.126   2.357   9.221  0.2246  0.2053  0.0915
 1208ERGO    R115712  12.940   2.447   9.028  0.0807  0.0283  0.1452
 1208ERGO    R215713  12.985   2.668   8.869 -0.1685  0.0623  0.1167
 1208ERGO    R315714  12.936   2.493   8.667 -0.0766  0.0048  0.1435
 1208ERGO    R415715  12.914   2.758   8.543 -0.1511 -0.0286  0.0876
 1208ERGO    R515716  12.765   2.600   8.536 -0.0939 -0.0818  0.0961
 1208ERGO    C115717  12.827   2.646   8.163 -0.0545 -0.1354  0.0960
 1208ERGO    C215718  13.000   2.602   7.841  0.1520  0.1142 -0.1823
 1209ERGO   ROH15719   7.456  11.374   9.459  0.2332  0.1261  0.2054
 1209ERGO    R115720   7.359  11.433   9.199  0.1606  0.3409  0.2776
 1209ERGO    R215721   7.514  11.558   9.008  0.2106  0.2373  0.2365
 1209ERGO    R315722   7.445  11.342   8.858 -0.1250  0.3667  0.1990
 1209ERGO    R415723   7.526  11.545   8.663  0.1756  0.2671  0.2356
 1209ERGO    R515724   7.338  11.435   8.665  0.0114  0.5559  0.2201
 1209ERGO    C115725   7.467  11.335   8.321 -0.1598  0.4059  0.1998
 1209ERGO    C215726   7.453  11.332   7.925  0.0438  0.0337  0.0940
 1210ERGO   ROH15727  12.607   4.339   6.067  0.3011  0.1655  0.0949
 1210ERGO    R115728  12.533   4.337   6.340  0.2678  0.0629  0.0865
 1210ERGO    R215729  12.276   4.393   6.425  0.2655  0.0782  0.0808
 1210ERGO    R315730  12.300   4.153   6.550  0.2054  0.0184 -0.0232
 1210ERGO    R415731  12.080   4.286   6.688  0.1135 -0.0736 -0.0923
 1210ERGO    R515732  12.257   4.200   6.780  0.0602 -0.1042 -0.0264
 1210ERGO    C115733  11.988   3.998   6.959 -0.0316 -0.2182 -0.2908
 1210ERGO    C215734  11.842   3.770   7.288  0.0618  0.1371 -0.5818
 1211ERGO   ROH15735   5.062  17.582   9.313  0.0327  0.0757 -0.0696
 1211ERGO    R115736   5.136  17.523   9.046 -0.1589 -0.0350 -0.0993
 1211ERGO    R215737   4.950  17.459   8.852 -0.3454  0.3211 -0.0455
 1211ERGO    R315738   5.069  17.663   8.717 -0.0117  0.1229 -0.0638
 1211ERGO    R415739   4.961  17.488   8.508 -0.3495  0.3028 -0.0477
 1211ERGO    R515740   5.167  17.558   8.525 -0.2191 -0.0492 -0.0801
 1211ERGO    C115741   5.079  17.696   8.180 -0.0386  0.1063 -0.0663
 1211ERGO    C215742   4.983  17.662   7.759 -0.2025  0.2222 -0.0975
 1212ERGO   ROH15743  13.720   6.127   6.054 -0.1182  0.0427  0.1133
 1212ERGO    R115744  13.815   5.994   6.285 -0.1662 -0.1193  0.0409
 1212ERGO    R215745  13.797   6.104   6.539  0.0610 -0.1582  0.0747
 1212ERGO    R315746  13.672   5.869   6.596 -0.1751 -0.0382  0.0700
 1212ERGO    R415747  13.705   6.000   6.855  0.1582 -0.1714  0.0994
 1212ERGO    R515748  13.769   5.799   6.803 -0.1110 -0.2299 -0.0226
 1212ERGO    C115749  13.536   5.718   7.093 -0.0070 -0.0664  0.1094
 1212ERGO    C215750  13.458   5.898   7.396  0.1943  0.3657 -0.0079
 1213ERGO   ROH15751  17.327  13.104   9.042 -0.0441 -0.0911  0.0618
 1213ERGO    R115752  17.221  13.315   8.887  0.0126 -0.0051  0.1372
 1213ERGO    R215753  17.358  13.426   8.673  0.0112 -0.0137  0.1243
 1213ERGO    R315754  17.129  13.367   8.539 -0.0490  0.1155  0.1726
 1213ERGO    R415755  17.276  13.545   8.359 -0.0814  0.1802  0.2219
 1213ERGO    R515756  17.071  13.571   8.428 -0.0462  0.1871  0.3086
 1213ERGO    C115757  17.013  13.560   8.051 -0.1918  0.4145  0.3239
 1213ERGO    C215758  17.232  13.644   7.793  0.0454  0.6158 -0.0917
 1214ERGO   ROH15759   4.337  15.023   9.423 -0.0180 -0.1416 -0.2033
 1214ERGO    R115760   4.383  15.228   9.232 -0.1104 -0.0902 -0.1716
 1214ERGO    R215761   4.624  15.256   9.099 -0.0417  0.1775 -0.0025
 1214ERGO    R315762   4.466  15.246   8.878  0.1221 -0.0043 -0.1137
 1214ERGO    R415763   4.716  15.366   8.785  0.0097  0.3856  0.0837
 1214ERGO    R515764   4.516  15.447   8.760 -0.0947  0.0969 -0.0323
 1214ERGO    C115765   4.622  15.420   8.394  0.1934  0.3360  0.0297
 1214ERGO    C215766   4.745  15.489   8.048 -0.1117 -0.0800 -0.1412
 1215ERGO   ROH15767   2.509   7.857   9.098  0.1168 -0.1166 -0.0735
 1215ERGO    R115768   2.577   7.972   8.849  0.0558 -0.1208 -0.0929
 1215ERGO    R215769   2.663   7.821   8.634 -0.0687 -0.1340 -0.1380
 1215ERGO    R315770   2.460   7.946   8.505 -0.0831 -0.0668 -0.0494
 1215ERGO    R415771   2.621   7.827   8.291 -0.1150  0.0414 -0.1292
 1215ERGO    R515772   2.561   8.036   8.308 -0.1102  0.0318 -0.0165
 1215ERGO    C115773   2.405   7.949   7.970 -0.1556  0.2067 -0.0410
 1215ERGO    C215774   2.318   7.695   7.797  0.1801  0.1514 -0.2050
 1216ERGO   ROH15775   5.507   9.047   6.185 -0.2111 -0.3574  0.0012
 1216ERGO    R115776   5.596   9.157   6.430  0.0113 -0.2306 -0.1326
 1216ERGO    R215777   5.513   9.060   6.675 -0.0629  0.1315 -0.0075
 1216ERGO    R315778   5.780   9.039   6.721 -0.0740 -0.1993 -0.0661
 1216ERGO    R415779   5.659   9.051   6.988  0.0153  0.2186 -0.0408
 1216ERGO    R515780   5.818   9.179   6.912  0.1762 -0.0724 -0.2056
 1216ERGO    C115781   5.995   9.027   7.214  0.0503 -0.0412 -0.1153
 1216ERGO    C215782   6.000   8.770   7.434  0.1838 -0.0668  0.0765
 1217ERGO   ROH15783   9.919   4.778   8.984 -0.0113 -0.1312  0.0202
 1217ERGO    R115784   9.945   4.741   8.705  0.0483 -0.1958  0.0341
 1217ERGO    R215785   9.796   4.556   8.565 -0.0781 -0.0777  0.0136
 1217ERGO    R315786   9.729   4.771   8.413  0.1725 -0.0369 -0.0440
 1217ERGO    R415787   9.732   4.545   8.226 -0.1686 -0.1153  0.0317
 1217ERGO    R515788   9.841   4.733   8.204  0.0796 -0.2610 -0.0577
 1217ERGO    C115789   9.631   4.740   7.885  0.0138 -0.0990 -0.0119
 1217ERGO    C215790   9.667   4.635   7.502  0.0928  0.0721  0.3554
 1218ERGO   ROH15791  16.688   5.324   9.406  0.0404  0.4227  0.1234
 1218ERGO    R115792  16.710   5.339   9.124  0.0552  0.2810  0.1173
 1218ERGO    R215793  16.560   5.514   8.972  0.0021  0.1397  0.0164
 1218ERGO    R315794  16.803   5.592   8.879 -0.0232  0.1852 -0.0155
 1218ERGO    R415795  16.627   5.597   8.644 -0.0288 -0.0163 -0.0309
 1218ERGO    R515796  16.818   5.491   8.662  0.0189  0.0649  0.0362
 1218ERGO    C115797  16.895   5.718   8.364 -0.0702 -0.0643 -0.0884
 1218ERGO    C215798  16.934   5.916   8.019  0.0194  0.1035 -0.0478
 1219ERGO   ROH15799   5.347  18.363   5.842 -0.0448  0.0741 -0.0165
 1219ERGO    R115800   5.314  18.514   6.078  0.0750  0.1418 -0.0432
 1219ERGO    R215801   5.235  18.401   6.317  0.0429  0.2377 -0.0125
 1219ERGO    R315802   5.461  18.519   6.412  0.1228  0.1280 -0.0624
 1219ERGO    R415803   5.282  18.504   6.644  0.0973  0.3506 -0.0549
 1219ERGO    R515804   5.381  18.683   6.568  0.2228  0.2544 -0.1359
 1219ERGO    C115805   5.521  18.675   6.923  0.2040  0.3133 -0.1265
 1219ERGO    C215806   5.509  18.498   7.244  0.1544 -0.1135 -0.1695
 1220ERGO   ROH15807   1.065   7.856   6.615  0.0444  0.0710 -0.2568
 1220ERGO    R115808   0.788   7.916   6.611  0.0304  0.0325 -0.0382
 1220ERGO    R215809   0.636   7.901   6.381 -0.1088  0.2110  0.0350
 1220ERGO    R315810   0.481   7.738   6.532  0.0139  0.0512 -0.0105
 1220ERGO    R415811   0.300   7.843   6.326 -0.1267  0.1771  0.1824
 1220ERGO    R515812   0.269   7.850   6.542 -0.0063 -0.0080  0.2035
 1220ERGO    C115813  -0.042   7.656   6.437 -0.0218  0.0073  0.2256
 1220ERGO    C215814  -0.368   7.515   6.493 -0.1176  0.0011  0.1433
 1221ERGO   ROH15815   1.836   1.296   6.373 -0.0792  0.1295  0.0332
 1221ERGO    R115816   1.893   1.425   6.619 -0.1313  0.2661 -0.0239
 1221ERGO    R215817   1.722   1.415   6.836 -0.0327  0.1137  0.0587
 1221ERGO    R315818   1.943   1.325   6.965  0.1378  0.4126 -0.0205
 1221ERGO    R415819   1.788   1.461   7.172 -0.0601  0.0280  0.0747
 1221ERGO    R515820   1.996   1.498   7.121 -0.1308  0.4079  0.0708
 1221ERGO    C115821   2.035   1.403   7.488  0.0839  0.2587  0.0096
 1221ERGO    C215822   1.909   1.233   7.748  0.1180  0.0204  0.2087
 1222ERGO   ROH15823   8.043  17.382   9.867  0.2162  0.0065 -0.1154
 1222ERGO    R115824   8.080  17.346   9.589  0.1612  0.0196 -0.1241
 1222ERGO    R215825   7.947  17.151   9.445  0.0034  0.1378 -0.1382
 1222ERGO    R315826   7.872  17.362   9.290  0.1414  0.2152 -0.1019
 1222ERGO    R415827   7.897  17.137   9.104 -0.4750  0.1053 -0.0733
 1222ERGO    R515828   7.994  17.331   9.086 -0.1730 -0.0533 -0.2594
 1222ERGO    C115829   7.797  17.326   8.759 -0.6240  0.1591 -0.0016
 1222ERGO    C215830   7.720  17.210   8.335  0.0189 -0.0320 -0.1689
 1223ERGO   ROH15831   2.152  14.701   9.332 -0.0533  0.0875 -0.1045
 1223ERGO    R115832   2.027  14.778   9.090  0.1360  0.1914 -0.1701
 1223ERGO    R215833   2.165  14.798   8.851  0.2248 -0.2016 -0.1533
 1223ERGO    R315834   1.971  14.630   8.762 -0.0838  0.1107 -0.0996
 1223ERGO    R415835   2.123  14.703   8.522  0.1582 -0.3435 -0.1054
 1223ERGO    R515836   1.907  14.720   8.549  0.1681  0.1013 -0.1870
 1223ERGO    C115837   1.917  14.488   8.246 -0.1704 -0.1330 -0.0270
 1223ERGO    C215838   1.743  14.358   7.955 -0.1589 -0.3320 -0.2339
 1224ERGO   ROH15839  17.668  15.166   5.801 -0.1222  0.1006  0.0733
 1224ERGO    R115840  17.554  15.087   6.048 -0.1725  0.1474  0.0650
 1224ERGO    R215841  17.679  14.911   6.220 -0.2817  0.0521  0.0483
 1224ERGO    R315842  17.642  15.112   6.400 -0.1578  0.0585  0.0675
 1224ERGO    R415843  17.653  14.867   6.562  0.1874  0.0896  0.0950
 1224ERGO    R515844  17.495  15.017   6.565  0.1057  0.0021  0.2768
 1224ERGO    C115845  17.604  15.029   6.930  0.5770  0.1175  0.1401
 1224ERGO    C215846  17.869  15.033   7.301 -0.0284  0.0980  0.0944
 1225ERGO   ROH15847   4.126  15.293   6.093 -0.0294  0.3554 -0.0058
 1225ERGO    R115848   4.130  15.420   6.346 -0.1657  0.3121  0.0182
 1225ERGO    R215849   3.899  15.481   6.486 -0.2304 -0.0360  0.0664
 1225ERGO    R315850   4.020  15.340   6.683 -0.0023  0.0927  0.0225
 1225ERGO    R415851   3.825  15.507   6.822 -0.2107 -0.1828  0.0830
 1225ERGO    R515852   4.038  15.493   6.865 -0.1772  0.0951  0.0427
 1225ERGO    C115853   3.897  15.389   7.204  0.0150 -0.1475  0.0514
 1225ERGO    C215854   3.743  15.390   7.469  0.1061  0.2538  0.0675
 1226ERGO   ROH15855  10.733   0.418   6.065  0.1551  0.1621  0.1311
 1226ERGO    R115856  10.724   0.513   6.331 -0.0059  0.0370  0.1715
 1226ERGO    R215857  10.560   0.401   6.523  0.0072 -0.1677  0.0655
 1226ERGO    R315858  10.793   0.380   6.662 -0.0242 -0.0616  0.1362
 1226ERGO    R415859  10.583   0.332   6.861 -0.0620 -0.3016  0.0436
 1226ERGO    R515860  10.744   0.478   6.875 -0.1701 -0.1899  0.1644
 1226ERGO    C115861  10.815   0.272   7.188 -0.1320 -0.2798  0.0973
 1226ERGO    C215862  10.680   0.132   7.499 -0.1370  0.0009  0.3608
 1227ERGO   ROH15863  14.315  16.507   5.772 -0.1813 -0.1371 -0.0469
 1227ERGO    R115864  14.290  16.619   6.030 -0.3006 -0.0710 -0.0857
 1227ERGO    R215865  14.478  16.792   6.137 -0.1828 -0.2947  0.0781
 1227ERGO    R315866  14.262  16.953   6.173 -0.0193 -0.0115 -0.1623
 1227ERGO    R415867  14.449  17.030   6.385 -0.2640 -0.4853  0.2542
 1227ERGO    R515868  14.241  16.971   6.411 -0.4107 -0.2104 -0.1722
 1227ERGO    C115869  14.229  17.321   6.563 -0.1577 -0.3305  0.1311
 1227ERGO    C215870  14.377  17.577   6.636 -0.0662  0.0943  0.0340
 1228ERGO   ROH15871  10.099   9.911   6.075  0.4153 -0.0100 -0.1705
 1228ERGO    R115872  10.093   9.842   6.349  0.4051  0.0568 -0.1536
 1228ERGO    R215873  10.267   9.953   6.534  0.2915  0.2251 -0.1437
 1228ERGO    R315874  10.037  10.016   6.664  0.2190  0.1007 -0.2106
 1228ERGO    R415875  10.238   9.997   6.876  0.1686  0.2214 -0.1535
 1228ERGO    R515876  10.047   9.892   6.868  0.2299  0.1146 -0.2038
 1228ERGO    C115877  10.005  10.081   7.196  0.0289  0.1024 -0.2220
 1228ERGO    C215878   9.888  10.277   7.476  0.2861  0.1297  0.1093
 1229ERGO   ROH15879   3.757   2.461   6.199 -0.2580  0.1692  0.0854
 1229ERGO    R115880   3.530   2.396   6.354 -0.1197 -0.1778  0.1529
 1229ERGO    R215881   3.548   2.265   6.596  0.1812  0.0988  0.2896
 1229ERGO    R315882   3.404   2.478   6.686 -0.2893 -0.1129  0.0736
 1229ERGO    R415883   3.471   2.326   6.928  0.1924  0.3482  0.2477
 1229ERGO    R515884   3.272   2.390   6.865  0.0005 -0.2033  0.2489
 1229ERGO    C115885   3.292   2.562   7.205 -0.2427  0.2947  0.0206
 1229ERGO    C215886   3.368   2.840   7.456 -0.2041  0.0784 -0.4419
 1230ERGO   ROH15887   6.659   5.646   9.058 -0.1655  0.0581  0.0234
 1230ERGO    R115888   6.584   5.807   8.837 -0.0736 -0.0132 -0.0614
 1230ERGO    R215889   6.703   5.784   8.588 -0.0665 -0.1929 -0.0462
 1230ERGO    R315890   6.446   5.752   8.505 -0.0772 -0.1130 -0.0425
 1230ERGO    R415891   6.584   5.876   8.277 -0.1143  0.0932  0.0544
 1230ERGO    R515892   6.402   5.948   8.374 -0.0973  0.0052  0.1432
 1230ERGO    C115893   6.273   5.900   8.018 -0.1521  0.3348  0.1164
 1230ERGO    C215894   6.339   5.610   7.776  0.0184  0.0344  0.0209
 1231ERGO   ROH15895   6.474   5.075   9.288 -0.3469 -0.2441  0.1784
 1231ERGO    R115896   6.381   4.928   9.065 -0.2441 -0.1790  0.0921
 1231ERGO    R215897   6.546   4.855   8.856 -0.1759 -0.0091  0.0869
 1231ERGO    R315898   6.454   4.606   8.912 -0.0792 -0.0771 -0.0493
 1231ERGO    R415899   6.488   4.609   8.620 -0.2532  0.1601 -0.0729
 1231ERGO    R515900   6.307   4.555   8.729 -0.1764  0.0301 -0.0039
 1231ERGO    C115901   6.367   4.232   8.535 -0.2075  0.1947 -0.2937
 1231ERGO    C215902   6.588   4.008   8.414 -0.2445 -0.1072  0.2216
 1232ERGO   ROH15903   0.714  17.902   9.738  0.0686 -0.2196 -0.0956
 1232ERGO    R115904   0.803  17.922   9.470  0.0611 -0.0071 -0.0831
 1232ERGO    R215905   0.636  17.878   9.254  0.1046 -0.0373 -0.1102
 1232ERGO    R315906   0.720  18.126   9.179 -0.1000  0.0753  0.0185
 1232ERGO    R415907   0.502  18.061   8.993  0.1410 -0.1352 -0.1985
 1232ERGO    R515908   0.705  18.123   8.940  0.1256  0.1026  0.0015
 1232ERGO    C115909   0.504  18.400   8.770 -0.0298 -0.0865 -0.1292
 1232ERGO    C215910   0.407  18.566   8.440  0.1904  0.2809  0.0668
 1233ERGO   ROH15911  17.531   7.549   9.177  0.1059  0.0782 -0.0615
 1233ERGO    R115912  17.685   7.606   8.946 -0.0780  0.1173 -0.1765
 1233ERGO    R215913  17.876   7.432   8.849  0.1223  0.3079 -0.1252
 1233ERGO    R315914  17.734   7.457   8.618 -0.0197 -0.0702 -0.0848
 1233ERGO    R415915  18.002   7.369   8.533  0.0646  0.1996 -0.1269
 1233ERGO    R515916  17.892   7.544   8.460 -0.1978  0.0040 -0.2298
 1233ERGO    C115917  17.942   7.355   8.132 -0.1024 -0.2183 -0.0898
 1233ERGO    C215918  18.170   7.297   7.853 -0.1232  0.3068 -0.1910
 1234ERGO   ROH15919   0.684   1.248   6.226  0.2226 -0.1698  0.0497
 1234ERGO    R115920   0.781   1.239   6.491  0.0474 -0.1093  0.1171
 1234ERGO    R215921   0.928   1.446   6.603  0.1193 -0.1571  0.1080
 1234ERGO    R315922   0.737   1.434   6.796 -0.0127  0.0702 -0.0043
 1234ERGO    R415923   0.923   1.641   6.888  0.2248 -0.1939  0.1358
 1234ERGO    R515924   0.857   1.466   7.000 -0.0811 -0.1283  0.0715
 1234ERGO    C115925   0.740   1.744   7.235  0.1622 -0.0020  0.0466
 1234ERGO    C215926   0.756   2.056   7.447  0.0459  0.1248  0.1734
 1235ERGO   ROH15927  10.278  11.599   9.194 -0.0846  0.0734  0.0647
 1235ERGO    R115928  10.334  11.745   8.958  0.0771 -0.1539 -0.0388
 1235ERGO    R215929  10.292  11.641   8.706 -0.3175 -0.1839  0.0412
 1235ERGO    R315930  10.146  11.868   8.672  0.1482  0.1285  0.0304
 1235ERGO    R415931  10.208  11.778   8.400 -0.4681 -0.3399  0.0100
 1235ERGO    R515932  10.247  11.976   8.483  0.1258 -0.3143 -0.2561
 1235ERGO    C115933  10.023  12.071   8.190 -0.1186 -0.1374 -0.0183
 1235ERGO    C215934   9.744  12.161   8.083  0.1294  0.1731  0.1345
 1236ERGO   ROH15935   8.847   7.165   5.847 -0.0819 -0.3420 -0.2275
 1236ERGO    R115936   8.917   7.190   6.120 -0.1176 -0.1971 -0.2317
 1236ERGO    R215937   8.825   7.017   6.315  0.0070 -0.2057 -0.1818
 1236ERGO    R315938   9.089   6.989   6.369  0.0278  0.0196 -0.1534
 1236ERGO    R415939   8.957   6.964   6.629 -0.0046 -0.3329 -0.1971
 1236ERGO    R515940   9.119   7.100   6.579 -0.1306 -0.1215 -0.0523
 1236ERGO    C115941   9.282   6.907   6.864  0.0083 -0.1956 -0.1794
 1236ERGO    C215942   9.434   6.880   7.227  0.1258 -0.3018  0.1325
 1237ERGO   ROH15943  15.090  10.821   5.789  0.1416 -0.2713  0.0299
 1237ERGO    R115944  14.979  10.761   6.043 -0.1027 -0.1347 -0.0398
 1237ERGO    R215945  15.135  10.728   6.269 -0.2760 -0.4193  0.0501
 1237ERGO    R315946  14.969  10.918   6.371 -0.0343 -0.1616 -0.0262
 1237ERGO    R415947  15.080  10.783   6.606 -0.1372 -0.1328  0.0282
 1237ERGO    R515948  14.869  10.814   6.562 -0.1101  0.0810  0.0652
 1237ERGO    C115949  14.893  10.993   6.898  0.1705  0.2759 -0.0561
 1237ERGO    C215950  14.932  11.038   7.182 -0.1142  0.0947  0.0553
 1238ERGO   ROH15951   4.755   0.248   9.455 -0.0379 -0.2441 -0.0643
 1238ERGO    R115952   4.586   0.194   9.235 -0.0412  0.0459 -0.1378
 1238ERGO    R215953   4.473   0.394   9.082  0.2228  0.2477 -0.0820
 1238ERGO    R315954   4.589   0.259   8.877  0.1308  0.2082 -0.1079
 1238ERGO    R415955   4.368   0.407   8.752  0.0518  0.1434 -0.0327
 1238ERGO    R515956   4.405   0.192   8.738  0.0696  0.1476  0.0049
 1238ERGO    C115957   4.416   0.286   8.368 -0.1342  0.0456 -0.0282
 1238ERGO    C215958   4.388   0.429   8.113 -0.0649  0.1171 -0.0890
 1239ERGO   ROH15959  17.313  10.594   5.785  0.1465  0.0253  0.1522
 1239ERGO    R115960  17.134  10.733   5.955  0.2041  0.3057 -0.0109
 1239ERGO    R215961  17.053  10.633   6.199 -0.4143  0.2759 -0.2138
 1239ERGO    R315962  17.144  10.872   6.291  0.0215 -0.0026  0.1275
 1239ERGO    R415963  16.995  10.758   6.516 -0.4763  0.0718 -0.1423
 1239ERGO    R515964  16.965  10.955   6.427  0.0461  0.2440  0.0201
 1239ERGO    C115965  17.045  11.056   6.786 -0.1032 -0.3084  0.2198
 1239ERGO    C215966  16.795  11.248   7.053  0.0034  0.4061 -0.1993
 1240ERGO   ROH15967   3.193  15.173   9.191 -0.0086 -0.2125  0.1661
 1240ERGO    R115968   3.300  15.248   8.939 -0.1187 -0.0607  0.1630
 1240ERGO    R215969   3.492  15.098   8.808 -0.0831  0.0863  0.0480
 1240ERGO    R315970   3.312  15.106   8.605 -0.1448  0.0774  0.1020
 1240ERGO    R415971   3.572  15.084   8.472 -0.1861 -0.0810  0.0293
 1240ERGO    R515972   3.420  15.235   8.435 -0.1402 -0.0315  0.0171
 1240ERGO    C115973   3.450  15.084   8.086 -0.3041 -0.1867  0.0691
 1240ERGO    C215974   3.340  15.044   7.772 -0.0832 -0.0533 -0.2043
 1241ERGO   ROH15975  10.945  11.432   5.636 -0.2329  0.1143 -0.1423
 1241ERGO    R115976  10.853  11.547   5.878 -0.2581 -0.0216 -0.0863
 1241ERGO    R215977  10.693  11.410   6.056 -0.0402 -0.2235 -0.0404
 1241ERGO    R315978  10.887  11.477   6.234 -0.0371 -0.0429 -0.1101
 1241ERGO    R415979  10.649  11.429   6.398  0.0197 -0.0892 -0.0394
 1241ERGO    R515980  10.773  11.608   6.399 -0.0704 -0.0242 -0.1470
 1241ERGO    C115981  10.806  11.503   6.764  0.0574  0.1586 -0.1043
 1241ERGO    C215982  10.602  11.290   7.162 -0.1393  0.1913  0.0372
 1242ERGO   ROH15983  11.585   2.430   5.599  0.1634 -0.2829  0.0067
 1242ERGO    R115984  11.425   2.532   5.808  0.1593 -0.1409 -0.0645
 1242ERGO    R215985  11.263   2.371   5.964  0.0131 -0.0107 -0.0788
 1242ERGO    R315986  11.400   2.486   6.169  0.0204 -0.0493 -0.0617
 1242ERGO    R415987  11.137   2.426   6.281 -0.0561  0.1505 -0.1330
 1242ERGO    R515988  11.237   2.619   6.283  0.0690  0.0856 -0.1482
 1242ERGO    C115989  11.192   2.566   6.658 -0.0896  0.2081 -0.1486
 1242ERGO    C215990  11.171   2.558   6.904  0.0613  0.0367  0.1696
 1243ERGO   ROH15991   9.707  16.683   9.732  0.0018 -0.1222 -0.0768
 1243ERGO    R115992   9.756  16.790   9.474 -0.0443 -0.0707 -0.0649
 1243ERGO    R215993   9.991  16.746   9.337 -0.0579 -0.0230 -0.1070
 1243ERGO    R315994   9.824  16.658   9.142 -0.0773 -0.0045 -0.0979
 1243ERGO    R415995  10.054  16.770   8.998 -0.0947  0.0146 -0.1106
 1243ERGO    R515996   9.844  16.822   8.968 -0.0983  0.0142 -0.0822
 1243ERGO    C115997   9.933  16.702   8.617 -0.1343  0.0538 -0.1042
 1243ERGO    C215998   9.860  16.530   8.261  0.1890  0.2066  0.0679
 1244ERGO   ROH15999   7.897   5.123   5.871  0.2241  0.0159 -0.0111
 1244ERGO    R116000   7.720   5.018   6.065  0.1935 -0.0299 -0.0640
 1244ERGO    R216001   7.790   4.808   6.233  0.2476  0.0786  0.0470
 1244ERGO    R316002   7.717   4.983   6.427  0.0293  0.1005 -0.0507
 1244ERGO    R416003   7.668   4.720   6.543  0.1319  0.1025  0.0093
 1244ERGO    R516004   7.526   4.883   6.530  0.0334  0.0112 -0.1243
 1244ERGO    C116005   7.528   4.832   6.907 -0.1404  0.1370 -0.1044
 1244ERGO    C216006   7.349   4.929   7.200  0.1337 -0.1563  0.3203
 1245ERGO   ROH16007   2.035   7.654   6.193 -0.2569  0.1861 -0.2594
 1245ERGO    R116008   2.046   7.872   6.374 -0.2899  0.0437 -0.0826
 1245ERGO    R216009   1.924   7.865   6.622 -0.2242 -0.2034 -0.0537
 1245ERGO    R316010   2.173   7.930   6.709 -0.2255 -0.1851 -0.0654
 1245ERGO    R416011   2.009   7.929   6.951 -0.2768  0.0898 -0.0946
 1245ERGO    R516012   2.136   8.091   6.882 -0.2202 -0.0082 -0.2255
 1245ERGO    C116013   2.292   8.027   7.224 -0.3087  0.2777 -0.1293
 1245ERGO    C216014   2.496   7.924   7.401 -0.0086 -0.2382  0.0977
 1246ERGO   ROH16015   4.721  11.992   6.276  0.1333  0.0005  0.2426
 1246ERGO    R116016   4.596  12.057   6.522 -0.0363  0.0164  0.1549
 1246ERGO    R216017   4.416  11.888   6.646  0.0527 -0.0860  0.1624
 1246ERGO    R316018   4.584  11.917   6.857 -0.0586  0.1735  0.2181
 1246ERGO    R416019   4.340  11.802   6.972  0.1023 -0.2384  0.1333
 1246ERGO    R516020   4.441  11.983   7.038 -0.2184 -0.0780  0.1811
 1246ERGO    C116021   4.453  11.778   7.360  0.0267 -0.0836  0.1688
 1246ERGO    C216022   4.348  11.533   7.536  0.0531 -0.1356  0.3767
 1247ERGO   ROH16023   5.224  11.186   6.274 -0.4629 -0.0924  0.1421
 1247ERGO    R116024   5.434  11.239   6.457 -0.3856 -0.0483  0.0414
 1247ERGO    R216025   5.434  11.460   6.624 -0.3677 -0.0661  0.0643
 1247ERGO    R316026   5.468  11.273   6.818 -0.2121 -0.0761  0.0289
 1247ERGO    R416027   5.515  11.527   6.953 -0.2978 -0.0672  0.0473
 1247ERGO    R516028   5.648  11.356   6.951 -0.2107 -0.0013 -0.0175
 1247ERGO    C116029   5.593  11.390   7.327 -0.1110 -0.0773  0.0041
 1247ERGO    C216030   5.604  11.470   7.650  0.2734  0.0933 -0.4310
 1248ERGO   ROH16031   7.089   4.151   6.018  0.1148 -0.0015 -0.0980
 1248ERGO    R116032   7.114   4.315   6.248  0.1177 -0.0009 -0.0982
 1248ERGO    R216033   7.139   4.212   6.502 -0.0364 -0.0007 -0.0794
 1248ERGO    R316034   7.361   4.369   6.509  0.0485 -0.1234 -0.0077
 1248ERGO    R416035   7.336   4.262   6.782 -0.1144 -0.0815 -0.0100
 1248ERGO    R516036   7.353   4.472   6.726  0.0244 -0.0985 -0.0226
 1248ERGO    C116037   7.659   4.438   6.952 -0.0801 -0.2438  0.0977
 1248ERGO    C216038   7.700   4.297   7.154 -0.1665 -0.2653 -0.2767
 1249ERGO   ROH16039   2.637   9.685   9.422 -0.1703 -0.0130  0.0367
 1249ERGO    R116040   2.554   9.785   9.171 -0.1209  0.0047  0.0244
 1249ERGO    R216041   2.679   9.999   9.048 -0.0568 -0.0110  0.0307
 1249ERGO    R316042   2.702   9.824   8.841 -0.0664 -0.0296  0.0490
 1249ERGO    R416043   2.733  10.089   8.718  0.1603 -0.0814  0.0474
 1249ERGO    R516044   2.592   9.934   8.658  0.1010  0.0162 -0.0111
 1249ERGO    C116045   2.785   9.977   8.332  0.2778 -0.1398  0.0743
 1249ERGO    C216046   2.591  10.045   8.057 -0.0511  0.3050 -0.2102
 1250ERGO   ROH16047   5.531   8.591   9.335  0.0230  0.1186  0.1347
 1250ERGO    R116048   5.640   8.681   9.090  0.0618  0.1593  0.1666
 1250ERGO    R216049   5.675   8.514   8.872  0.2784  0.1483  0.2068
 1250ERGO    R316050   5.529   8.704   8.744  0.1911  0.0205  0.1149
 1250ERGO    R416051   5.731   8.621   8.548  0.2036 -0.0069  0.1414
 1250ERGO    R516052   5.689   8.825   8.614  0.1299  0.0130  0.0325
 1250ERGO    C116053   5.627   8.862   8.239  0.0781 -0.2172  0.0170
 1250ERGO    C216054   5.360   8.799   8.024 -0.0007  0.2140  0.0882
 1251ERGO   ROH16055  10.106  15.232   9.631  0.1202  0.0463  0.0421
 1251ERGO    R116056  10.047  15.351   9.382  0.2520 -0.0503 -0.0363
 1251ERGO    R216057  10.223  15.346   9.169  0.2696 -0.3372 -0.0177
 1251ERGO    R316058  10.010  15.239   9.037  0.1856 -0.2268  0.0267
 1251ERGO    R416059  10.239  15.193   8.860  0.1247 -0.3418 -0.0240
 1251ERGO    R516060  10.051  15.291   8.807  0.1626 -0.2444  0.0182
 1251ERGO    C116061  10.049  15.004   8.556 -0.0385 -0.2408  0.0142
 1251ERGO    C216062  10.027  14.864   8.205  0.0029  0.2195 -0.1298
 1252ERGO   ROH16063   3.679   5.174   9.706 -0.0985 -0.2031 -0.2077
 1252ERGO    R116064   3.747   5.062   9.455  0.0138 -0.1421 -0.2045
 1252ERGO    R216065   3.575   5.066   9.239  0.1031 -0.1100 -0.2722
 1252ERGO    R316066   3.787   5.183   9.114  0.1438 -0.0657 -0.1641
 1252ERGO    R416067   3.617   5.084   8.896  0.2113 -0.0007 -0.2543
 1252ERGO    R516068   3.829   5.042   8.924  0.2061 -0.0075 -0.1970
 1252ERGO    C116069   3.839   5.204   8.579  0.3126  0.1046 -0.1425
 1252ERGO    C216070   3.841   5.244   8.236 -0.2062  0.1165  0.0828
 1253ERGO   ROH16071   4.255  11.604   9.328  0.0833  0.1918 -0.0591
 1253ERGO    R116072   4.292  11.526   9.058  0.1088  0.0885 -0.0261
 1253ERGO    R216073   4.209  11.280   8.962  0.0597  0.0768  0.0451
 1253ERGO    R316074   4.078  11.433   8.779  0.1315  0.0492 -0.0304
 1253ERGO    R416075   4.229  11.239   8.619  0.2732  0.0896  0.0546
 1253ERGO    R516076   4.234  11.455   8.598  0.2337  0.0907  0.0620
 1253ERGO    C116077   4.118  11.358   8.248  0.4648  0.0709 -0.0108
 1253ERGO    C216078   4.131  11.337   7.985  0.0024 -0.1387 -0.2210
 1254ERGO   ROH16079  15.506   0.832   9.248 -0.0866 -0.0031  0.0799
 1254ERGO    R116080  15.573   0.871   8.976 -0.1493 -0.0058  0.0646
 1254ERGO    R216081  15.575   0.665   8.792 -0.0376 -0.0360  0.1015
 1254ERGO    R316082  15.407   0.829   8.654 -0.1649 -0.1704  0.0930
 1254ERGO    R416083  15.527   0.655   8.450  0.1418  0.0555  0.0722
 1254ERGO    R516084  15.524   0.873   8.449 -0.1137  0.0559  0.1673
 1254ERGO    C116085  15.342   0.803   8.121  0.1267 -0.0174  0.0470
 1254ERGO    C216086  15.371   0.681   7.779 -0.2594 -0.2154 -0.1369
 1255ERGO   ROH16087  11.056  17.196   9.324  0.2817 -0.1656 -0.1162
 1255ERGO    R116088  11.068  17.111   9.054 -0.0032 -0.1960 -0.1234
 1255ERGO    R216089  10.842  17.064   8.902 -0.1673  0.0355  0.0395
 1255ERGO    R316090  10.961  17.239   8.731 -0.1009 -0.0982 -0.0526
 1255ERGO    R416091  10.730  17.135   8.583 -0.2203  0.0140  0.0539
 1255ERGO    R516092  10.937  17.137   8.516 -0.2401 -0.1493 -0.0136
 1255ERGO    C116093  10.775  17.341   8.237 -0.1889 -0.1243 -0.0243
 1255ERGO    C216094  10.607  17.633   8.046  0.3069  0.0973  0.1233
 1256ERGO   ROH16095   4.836  13.460   9.413  0.0647 -0.0261  0.0638
 1256ERGO    R116096   4.899  13.395   9.145 -0.0897  0.0246  0.0140
 1256ERGO    R216097   4.706  13.363   8.949 -0.2005  0.1211  0.1041
 1256ERGO    R316098   4.854  13.549   8.819 -0.2211  0.1180  0.0762
 1256ERGO    R416099   4.732  13.390   8.606 -0.1545  0.0445  0.1010
 1256ERGO    R516100   4.944  13.432   8.630 -0.1701  0.0932  0.1186
 1256ERGO    C116101   4.886  13.580   8.283 -0.1471 -0.0032  0.0730
 1256ERGO    C216102   4.973  13.788   8.004  0.1736 -0.1937 -0.0237
 1257ERGO   ROH16103  15.013   2.207   9.238 -0.1318  0.0210  0.0061
 1257ERGO    R116104  15.091   2.232   8.967 -0.0418  0.0911  0.0379
 1257ERGO    R216105  14.981   2.079   8.766  0.1481  0.0208 -0.0147
 1257ERGO    R316106  14.931   2.321   8.653  0.0178 -0.0087 -0.0216
 1257ERGO    R416107  14.960   2.138   8.426  0.4337  0.0533 -0.0288
 1257ERGO    R516108  15.068   2.325   8.457  0.2173  0.1603  0.1156
 1257ERGO    C116109  14.901   2.401   8.122  0.4778  0.0447 -0.0436
 1257ERGO    C216110  14.669   2.421   7.851 -0.1799  0.0759  0.0351
 1258ERGO   ROH16111  15.299   5.209   9.269  0.1298 -0.0416 -0.0673
 1258ERGO    R116112  15.341   5.208   8.989  0.1145  0.0076 -0.0690
 1258ERGO    R216113  15.271   5.420   8.827  0.1873  0.0698 -0.0135
 1258ERGO    R316114  15.531   5.405   8.749  0.1769 -0.0096 -0.0355
 1258ERGO    R416115  15.411   5.601   8.567  0.2829  0.2486  0.1581
 1258ERGO    R516116  15.523   5.422   8.510  0.1761  0.2323 -0.0225
 1258ERGO    C116117  15.736   5.691   8.342  0.3290  0.2781  0.2374
 1258ERGO    C216118  15.882   5.886   8.069  0.1574 -0.2350 -0.0069
 1259ERGO   ROH16119   3.882   0.480   6.498  0.0835 -0.0925  0.0785
 1259ERGO    R116120   3.944   0.516   6.771  0.1232 -0.1417  0.0765
 1259ERGO    R216121   3.750   0.534   6.968  0.1427  0.0476  0.0814
 1259ERGO    R316122   3.891   0.331   7.081 -0.0445 -0.0829  0.0836
 1259ERGO    R416123   3.849   0.522   7.298  0.1131 -0.0489  0.0863
 1259ERGO    R516124   4.040   0.440   7.233  0.0444 -0.2186  0.0948
 1259ERGO    C116125   4.040   0.325   7.597 -0.0800 -0.2277  0.0912
 1259ERGO    C216126   4.118   0.106   7.810  0.1061 -0.1084 -0.1481
 1260ERGO   ROH16127   6.976  11.453   6.371  0.0764  0.1547 -0.0353
 1260ERGO    R116128   7.142  11.463   6.600  0.0948  0.1540 -0.0483
 1260ERGO    R216129   7.251  11.237   6.715  0.1381  0.1568 -0.0818
 1260ERGO    R316130   7.485  11.373   6.683  0.1150  0.1947 -0.0884
 1260ERGO    R416131   7.540  11.178   6.895  0.2268  0.0399 -0.2589
 1260ERGO    R516132   7.572  11.394   6.905  0.2172  0.0345 -0.1126
 1260ERGO    C116133   7.928  11.272   6.970  0.2567  0.0074 -0.3682
 1260ERGO    C216134   8.250  11.328   7.127 -0.0713 -0.0079 -0.1555
 1261ERGO   ROH16135  11.775  10.681   9.392  0.0557  0.0266  0.1340
 1261ERGO    R116136  11.708  10.617   9.125 -0.0373  0.0369  0.1542
 1261ERGO    R216137  11.732  10.799   8.918 -0.1351  0.0541  0.1560
 1261ERGO    R316138  11.882  10.602   8.805 -0.1541  0.0781  0.0884
 1261ERGO    R416139  11.733  10.718   8.582 -0.3181  0.0122  0.1647
 1261ERGO    R516140  11.740  10.508   8.637 -0.2320  0.0218  0.1859
 1261ERGO    C116141  11.874  10.487   8.281 -0.4425  0.0104  0.1063
 1261ERGO    C216142  11.748  10.545   8.051 -0.3170  0.2222 -0.5606
 1262ERGO   ROH16143  18.046   2.485   5.937  0.1241 -0.1080 -0.0025
 1262ERGO    R116144  17.979   2.328   6.163  0.2201 -0.0922  0.0382
 1262ERGO    R216145  18.122   2.338   6.399  0.0390  0.2813  0.1423
 1262ERGO    R316146  17.877   2.389   6.507 -0.1313 -0.0551 -0.0693
 1262ERGO    R416147  18.038   2.287   6.730 -0.0361  0.5971  0.1750
 1262ERGO    R516148  17.844   2.212   6.664  0.1473  0.1013  0.1722
 1262ERGO    C116149  17.759   2.305   7.024 -0.2398  0.4651 -0.0047
 1262ERGO    C216150  17.748   2.392   7.338 -0.1579 -0.2281  0.0720
 1263ERGO   ROH16151   0.512  11.953   9.237 -0.3276  0.0084  0.0072
 1263ERGO    R116152   0.628  11.975   8.980 -0.3326  0.3463  0.0285
 1263ERGO    R216153   0.646  11.760   8.806  0.3898  0.3586  0.0581
 1263ERGO    R316154   0.518  11.929   8.636 -0.1288 -0.0555  0.0119
 1263ERGO    R416155   0.625  11.717   8.464  0.5977  0.2491  0.0568
 1263ERGO    R516156   0.655  11.932   8.440 -0.0826  0.3648  0.0424
 1263ERGO    C116157   0.492  11.851   8.105  0.2319 -0.2034  0.0128
 1263ERGO    C216158   0.469  11.916   7.835  0.1298 -0.4003  0.0742
 1264ERGO   ROH16159  16.558   8.737   9.438  0.7344  0.0034 -0.0206
 1264ERGO    R116160  16.679   8.711   9.184  0.4302 -0.2038 -0.1521
 1264ERGO    R216161  16.655   8.482   9.030  0.0628 -0.2572 -0.0449
 1264ERGO    R316162  16.567   8.657   8.842 -0.0080 -0.2510 -0.0033
 1264ERGO    R416163  16.718   8.455   8.692  0.0924 -0.1155 -0.0499
 1264ERGO    R516164  16.747   8.671   8.685 -0.0166 -0.1104  0.0120
 1264ERGO    C116165  16.671   8.603   8.317  0.0432 -0.0274 -0.0138
 1264ERGO    C216166  16.652   8.318   8.042 -0.0160  0.2367 -0.2452
 1265ERGO   ROH16167   7.638  16.993   6.504 -0.0139  0.1427  0.0168
 1265ERGO    R116168   7.801  16.965   6.733 -0.0445 -0.0177  0.0202
 1265ERGO    R216169   7.937  17.177   6.847  0.2083 -0.1558 -0.0091
 1265ERGO    R316170   7.807  17.098   7.072  0.1100  0.0256  0.0000
 1265ERGO    R416171   8.062  17.204   7.168  0.0640  0.0881  0.0296
 1265ERGO    R516172   7.979  17.008   7.211  0.0413  0.1287  0.1480
 1265ERGO    C116173   8.014  17.145   7.566 -0.1124  0.4006  0.0606
 1265ERGO    C216174   7.973  17.368   7.885 -0.1812  0.1570 -0.1743
 1266ERGO   ROH16175   2.296  10.787   5.835 -0.1188 -0.3045  0.2034
 1266ERGO    R116176   2.375  10.606   6.039 -0.0202 -0.1659  0.2885
 1266ERGO    R216177   2.629  10.607   6.148 -0.0100 -0.0064  0.2538
 1266ERGO    R316178   2.493  10.630   6.382  0.0158  0.0589  0.2636
 1266ERGO    R416179   2.745  10.498   6.454  0.0967  0.2066  0.2921
 1266ERGO    R516180   2.543  10.428   6.500  0.1296  0.1382  0.3621
 1266ERGO    C116181   2.685  10.456   6.853  0.1830  0.3919  0.3235
 1266ERGO    C216182   2.815  10.217   7.191 -0.2046 -0.0313  0.0645
 1267ERGO   ROH16183   5.367   5.542   6.164 -0.0576  0.2331 -0.0750
 1267ERGO    R116184   5.464   5.557   6.429 -0.1369  0.2253 -0.0438
 1267ERGO    R216185   5.300   5.609   6.645 -0.2375  0.0349 -0.0622
 1267ERGO    R316186   5.409   5.380   6.742 -0.0874  0.0827 -0.1178
 1267ERGO    R416187   5.323   5.529   6.981 -0.1812 -0.0499 -0.0868
 1267ERGO    R516188   5.522   5.449   6.942 -0.1356  0.0947 -0.1030
 1267ERGO    C116189   5.438   5.267   7.267 -0.0076 -0.0544 -0.1533
 1267ERGO    C216190   5.247   5.279   7.518 -0.1318 -0.0847  0.2095
 1268ERGO   ROH16191   6.224   4.840   6.188  0.1178 -0.1710  0.0135
 1268ERGO    R116192   6.284   5.041   6.378 -0.0984 -0.1879  0.1048
 1268ERGO    R216193   6.256   5.001   6.650 -0.0533 -0.3415  0.0951
 1268ERGO    R316194   6.516   5.082   6.656 -0.1380 -0.0652  0.1182
 1268ERGO    R416195   6.417   5.128   6.928 -0.1722 -0.2846  0.1368
 1268ERGO    R516196   6.515   5.274   6.799 -0.3339 -0.1272  0.1970
 1268ERGO    C116197   6.755   5.278   7.095 -0.3209  0.0079  0.1828
 1268ERGO    C216198   6.817   5.044   7.471 -0.0768 -0.0228 -0.0811
 1269ERGO   ROH16199   2.668  12.913   8.904  0.1574  0.1352 -0.0696
 1269ERGO    R116200   2.679  13.026   8.645  0.2152 -0.1022 -0.1742
 1269ERGO    R216201   2.629  12.879   8.416 -0.1814 -0.2160 -0.0263
 1269ERGO    R316202   2.448  13.076   8.368  0.1397  0.0757 -0.0796
 1269ERGO    R416203   2.459  12.923   8.118 -0.2580 -0.1372  0.0289
 1269ERGO    R516204   2.487  13.138   8.140  0.1366 -0.1637 -0.1458
 1269ERGO    C116205   2.190  13.133   7.900 -0.0010  0.1824  0.0111
 1269ERGO    C216206   2.005  13.073   7.521 -0.0126  0.2848 -0.2176
 1270ERGO   ROH16207  10.034  13.525   9.602  0.0646  0.2095 -0.1296
 1270ERGO    R116208   9.867  13.620   9.394  0.0653  0.2017 -0.1345
 1270ERGO    R216209   9.966  13.710   9.152  0.0675  0.2008 -0.1374
 1270ERGO    R316210   9.793  13.527   9.050  0.0750  0.1925 -0.1330
 1270ERGO    R416211   9.935  13.633   8.817  0.1924  0.0593 -0.1169
 1270ERGO    R516212   9.719  13.623   8.844  0.1818  0.1150 -0.2057
 1270ERGO    C116213   9.755  13.416   8.526  0.2722 -0.0309 -0.1010
 1270ERGO    C216214   9.778  13.120   8.321 -0.1858 -0.1232  0.0311
 1271ERGO   ROH16215   6.797   8.642   9.405  0.1167 -0.2428 -0.0232
 1271ERGO    R116216   6.930   8.589   9.160  0.0480 -0.0997 -0.0933
 1271ERGO    R216217   6.795   8.517   8.930 -0.0077 -0.0818 -0.0663
 1271ERGO    R316218   6.930   8.727   8.824 -0.1431  0.0159 -0.0477
 1271ERGO    R416219   6.826   8.580   8.592 -0.0432 -0.0380 -0.0613
 1271ERGO    R516220   7.034   8.638   8.627 -0.0799  0.0965 -0.0523
 1271ERGO    C116221   6.972   8.815   8.295 -0.1910  0.0794 -0.0408
 1271ERGO    C216222   7.066   8.898   8.106 -0.0694 -0.0310  0.0808
 1272ERGO   ROH16223   7.590   9.307   9.790 -0.1286 -0.0370 -0.0386
 1272ERGO    R116224   7.504   9.364   9.526 -0.1284 -0.4008 -0.1216
 1272ERGO    R216225   7.616   9.565   9.373 -0.7276  0.0046 -0.0555
 1272ERGO    R316226   7.653   9.364   9.194  0.1685  0.0783  0.0019
 1272ERGO    R416227   7.592   9.600   9.030 -0.9722 -0.2029 -0.0625
 1272ERGO    R516228   7.491   9.406   9.023 -0.1025 -0.7144  0.0206
 1272ERGO    C116229   7.612   9.431   8.662 -0.2735 -0.2545 -0.0127
 1272ERGO    C216230   7.472   9.493   8.331  0.4114  0.1816  0.1411
 1273ERGO   ROH16231  10.126   3.417   5.924 -0.0018  0.0005  0.0927
 1273ERGO    R116232  10.145   3.506   6.192  0.0104 -0.0664  0.1148
 1273ERGO    R216233   9.922   3.554   6.349  0.0136  0.0224  0.0945
 1273ERGO    R316234  10.045   3.383   6.520 -0.1032 -0.0830  0.0742
 1273ERGO    R416235   9.927   3.587   6.693  0.0974  0.0171  0.0938
 1273ERGO    R516236  10.135   3.524   6.691  0.0441 -0.1592  0.0602
 1273ERGO    C116237  10.046   3.445   7.053  0.0366 -0.0849  0.0742
 1273ERGO    C216238   9.886   3.578   7.369 -0.0033 -0.1862 -0.1352
 1274ERGO   ROH16239  18.323  14.835   9.511 -0.1438 -0.0964 -0.1056
 1274ERGO    R116240  18.210  14.835   9.252 -0.1477 -0.3424 -0.1081
 1274ERGO    R216241  18.307  14.994   9.048 -0.5980  0.0241 -0.0626
 1274ERGO    R316242  18.324  14.758   8.914  0.1019  0.0906 -0.1291
 1274ERGO    R416243  18.247  14.954   8.710 -0.7214 -0.0982 -0.0258
 1274ERGO    R516244  18.144  14.767   8.756 -0.0650 -0.4744  0.0089
 1274ERGO    C116245  18.228  14.709   8.388 -0.1365 -0.1070 -0.0669
 1274ERGO    C216246  18.197  14.778   8.007 -0.1472 -0.1537  0.1315
 1275ERGO   ROH16247   0.952  12.695   9.251 -0.1708  0.0289 -0.0524
 1275ERGO    R116248   0.805  12.685   9.009 -0.1523  0.1547 -0.0678
 1275ERGO    R216249   0.805  12.893   8.826  0.2111  0.0713 -0.1599
 1275ERGO    R316250   0.880  12.697   8.654 -0.0811 -0.1322 -0.0657
 1275ERGO    R416251   0.807  12.921   8.482  0.2582 -0.0891 -0.1750
 1275ERGO    R516252   0.730  12.718   8.469 -0.0535  0.0112 -0.0780
 1275ERGO    C116253   0.878  12.753   8.119  0.0114 -0.3735 -0.0953
 1275ERGO    C216254   1.094  12.800   7.890  0.0586 -0.1007  0.1396
 1276ERGO   ROH16255  17.259  16.669   9.531  0.0760 -0.1481 -0.0329
 1276ERGO    R116256  17.348  16.827   9.313  0.0793 -0.1639 -0.0437
 1276ERGO    R216257  17.573  16.764   9.166  0.1223 -0.1374  0.0056
 1276ERGO    R316258  17.401  16.779   8.956  0.1537 -0.2136 -0.0251
 1276ERGO    R416259  17.668  16.806   8.836  0.1610 -0.1987  0.0091
 1276ERGO    R516260  17.499  16.942   8.810  0.1461 -0.2337 -0.0486
 1276ERGO    C116261  17.562  16.843   8.447  0.2131 -0.3057 -0.0176
 1276ERGO    C216262  17.675  16.749   8.160 -0.0326  0.2118 -0.0922
 1277ERGO   ROH16263   1.739  15.731   9.395  0.0897 -0.1099  0.0517
 1277ERGO    R116264   1.626  15.705   9.137  0.0509  0.0335  0.0528
 1277ERGO    R216265   1.664  15.893   8.938  0.2137  0.0322  0.0798
 1277ERGO    R316266   1.751  15.679   8.796  0.0105 -0.0271  0.0428
 1277ERGO    R416267   1.665  15.873   8.593  0.2063  0.0961  0.0762
 1277ERGO    R516268   1.600  15.665   8.610  0.0034  0.1550  0.0342
 1277ERGO    C116269   1.748  15.659   8.259  0.0112  0.0777  0.0391
 1277ERGO    C216270   1.849  15.752   7.832 -0.2438  0.0151  0.0097
 1278ERGO   ROH16271  12.444   9.168   9.108 -0.3139 -0.1561 -0.0354
 1278ERGO    R116272  12.374   9.216   8.838 -0.3036 -0.1478 -0.0365
 1278ERGO    R216273  12.562   9.247   8.638 -0.2921  0.0253  0.0004
 1278ERGO    R316274  12.422   9.048   8.518 -0.1352 -0.0483 -0.0649
 1278ERGO    R416275  12.524   9.210   8.297 -0.0586 -0.0378 -0.0214
 1278ERGO    R516276  12.316   9.154   8.331 -0.0588 -0.1168 -0.1475
 1278ERGO    C116277  12.369   9.002   7.985  0.2246 -0.1435 -0.0953
 1278ERGO    C216278  12.177   8.803   7.673  0.4696  0.0870 -0.2859
 1279ERGO   ROH16279  12.697  17.372   6.201  0.2279  0.3950  0.0788
 1279ERGO    R116280  12.725  17.214   6.435  0.0155  0.2438  0.0058
 1279ERGO    R216281  12.967  17.105   6.512 -0.1013 -0.0045  0.0314
 1279ERGO    R316282  12.914  17.234   6.746 -0.0705 -0.0827  0.0820
 1279ERGO    R416283  13.124  17.042   6.814 -0.0025 -0.0446 -0.0281
 1279ERGO    R516284  12.932  17.064   6.913  0.0203 -0.1225  0.0312
 1279ERGO    C116285  13.166  17.126   7.208  0.0838 -0.1414 -0.0151
 1279ERGO    C216286  13.341  17.285   7.430 -0.1794  0.0699 -0.0743
 1280ERGO   ROH16287   3.659   5.773   6.390 -0.0271 -0.1910 -0.3091
 1280ERGO    R116288   3.408   5.697   6.498 -0.0321 -0.1744 -0.3116
 1280ERGO    R216289   3.278   5.465   6.423  0.1469 -0.3711 -0.0180
 1280ERGO    R316290   3.278   5.417   6.690  0.0442  0.0393  0.0631
 1280ERGO    R416291   3.011   5.337   6.600  0.1421 -0.2929  0.0334
 1280ERGO    R516292   3.057   5.477   6.761 -0.0417 -0.0053 -0.1480
 1280ERGO    C116293   2.855   5.218   6.955  0.0430  0.1380  0.1395
 1280ERGO    C216294   2.544   5.203   7.203 -0.4125  0.1100  0.0097
 1281ERGO   ROH16295   8.996  13.189   9.496 -0.0812  0.1376  0.0381
 1281ERGO    R116296   8.932  13.092   9.237 -0.2551  0.0638  0.1107
 1281ERGO    R216297   8.728  13.200   9.084  0.0257  0.4110 -0.0027
 1281ERGO    R316298   8.925  13.228   8.899  0.1237 -0.2050 -0.0178
 1281ERGO    R416299   8.682  13.182   8.742 -0.1679  0.8547 -0.0097
 1281ERGO    R516300   8.868  13.071   8.728 -0.5600  0.1099 -0.1359
 1281ERGO    C116301   8.840  13.198   8.369 -0.1887  0.5348 -0.0278
 1281ERGO    C216302   8.738  13.237   8.155 -0.1199 -0.1937 -0.0409
 1282ERGO   ROH16303  18.583   6.508   9.512  0.0244 -0.1255  0.0854
 1282ERGO    R116304  18.819   6.610   9.393  0.0203 -0.0650  0.1281
 1282ERGO    R216305  19.026   6.448   9.308  0.0924 -0.0113  0.1922
 1282ERGO    R316306  18.988   6.578   9.073  0.1022 -0.0484  0.1705
 1282ERGO    R416307  19.262   6.474   9.057  0.1998  0.1935  0.3113
 1282ERGO    R516308  19.200   6.681   9.027  0.0351  0.1371  0.2769
 1282ERGO    C116309  19.364   6.611   8.690  0.2714  0.2781  0.3605
 1282ERGO    C216310  19.401   6.765   8.356 -0.3523 -0.0062 -0.1399
 1283ERGO   ROH16311   2.611   9.202   5.956  0.1175 -0.2400  0.2091
 1283ERGO    R116312   2.484   9.092   6.183  0.1953 -0.2040  0.2702
 1283ERGO    R216313   2.568   9.146   6.441  0.1167  0.0528  0.2451
 1283ERGO    R316314   2.308   9.218   6.476  0.0420 -0.1665  0.1622
 1283ERGO    R416315   2.411   9.178   6.748  0.1075  0.3257  0.2146
 1283ERGO    R516316   2.234   9.085   6.661  0.1952  0.0163  0.3577
 1283ERGO    C116317   2.076   9.264   6.959  0.0321  0.2787  0.1189
 1283ERGO    C216318   1.891   9.397   7.172  0.1271 -0.0342  0.2493
 1284ERGO   ROH16319  11.436   4.833   5.825  0.2456 -0.0107  0.0139
 1284ERGO    R116320  11.435   4.916   6.095  0.1560 -0.0425  0.0237
 1284ERGO    R216321  11.448   5.182   6.168  0.1645 -0.0537  0.0594
 1284ERGO    R316322  11.223   5.122   6.307  0.1041 -0.0392 -0.0305
 1284ERGO    R416323  11.295   5.394   6.395  0.0668 -0.0268 -0.0306
 1284ERGO    R516324  11.259   5.221   6.523  0.0122 -0.0135 -0.0252
 1284ERGO    C116325  10.995   5.460   6.658 -0.0468  0.0025 -0.1674
 1284ERGO    C216326  11.013   5.598   7.025 -0.3044 -0.1746 -0.2397
 1285ERGO   ROH16327  13.230   1.216   9.209  0.1317  0.0544 -0.0156
 1285ERGO    R116328  13.151   1.144   8.947  0.1736 -0.1407  0.0246
 1285ERGO    R216329  13.033   1.323   8.773 -0.1039 -0.3572 -0.0094
 1285ERGO    R316330  13.234   1.246   8.608 -0.0347 -0.1405 -0.0297
 1285ERGO    R416331  13.068   1.427   8.446 -0.1359 -0.1433  0.0533
 1285ERGO    R516332  13.129   1.223   8.393 -0.0025 -0.0832 -0.0566
 1285ERGO    C116333  13.277   1.416   8.099 -0.0895  0.1846  0.0706
 1285ERGO    C216334  13.284   1.714   8.010 -0.1382  0.0926  0.3346
 1286ERGO   ROH16335  13.761  17.792   9.343  0.3949  0.0057  0.0190
 1286ERGO    R116336  13.703  17.899   9.088 -0.0302 -0.2565 -0.0040
 1286ERGO    R216337  13.900  17.992   8.917 -0.3550  0.1899 -0.1517
 1286ERGO    R316338  13.785  17.818   8.743 -0.0003 -0.2040 -0.0096
 1286ERGO    R416339  13.969  17.976   8.579 -0.4511  0.1834 -0.1715
 1286ERGO    R516340  13.757  17.945   8.542 -0.4040 -0.3716 -0.0701
 1286ERGO    C116341  13.902  17.803   8.218 -0.1741 -0.1901 -0.0497
 1286ERGO    C216342  13.968  17.877   7.977 -0.1009 -0.0242  0.2514
 1287ERGO   ROH16343  15.851  13.753   6.085 -0.0326  0.1086  0.2653
 1287ERGO    R116344  15.723  13.747   6.337 -0.1094 -0.0835  0.2246
 1287ERGO    R216345  15.706  13.518   6.491  0.2188 -0.1080  0.2347
 1287ERGO    R316346  15.820  13.675   6.681 -0.0984  0.0985  0.2602
 1287ERGO    R416347  15.646  13.492   6.830  0.1537 -0.1788  0.2177
 1287ERGO    R516348  15.645  13.710   6.841 -0.2090 -0.1747  0.2021
 1287ERGO    C116349  15.717  13.624   7.206 -0.1821 -0.0262  0.2316
 1287ERGO    C216350  15.695  13.846   7.516  0.1284  0.1168 -0.3039
 1288ERGO   ROH16351   4.678  18.878   8.510 -0.1848 -0.0267  0.0578
 1288ERGO    R116352   4.830  19.047   8.341 -0.1391 -0.0319  0.0934
 1288ERGO    R216353   4.969  18.953   8.122 -0.0771 -0.0392  0.1348
 1288ERGO    R316354   4.826  19.144   7.990 -0.0430 -0.0455  0.0885
 1288ERGO    R416355   5.062  19.097   7.821 -0.0054 -0.0572  0.1482
 1288ERGO    R516356   4.992  19.289   7.898 -0.0208 -0.0528  0.1193
 1288ERGO    C116357   4.981  19.359   7.523  0.0685 -0.0733  0.1126
 1288ERGO    C216358   5.084  19.575   7.316  0.1903 -0.1079  0.2212
 1289ERGO   ROH16359   1.819  18.311  10.096 -0.0462 -0.0046  0.0580
 1289ERGO    R116360   1.757  18.410   9.838 -0.0890 -0.0590  0.0464
 1289ERGO    R216361   1.515  18.530   9.779 -0.0745 -0.0024  0.0794
 1289ERGO    R316362   1.674  18.733   9.692 -0.0341 -0.0750 -0.0172
 1289ERGO    R416363   1.418  18.774   9.554 -0.0422 -0.0344  0.0312
 1289ERGO    R516364   1.615  18.760   9.462 -0.0732 -0.1200 -0.0079
 1289ERGO    C116365   1.510  19.106   9.342  0.0145 -0.1212 -0.0876
 1289ERGO    C216366   1.452  19.334   9.054  0.0985 -0.0405 -0.0449
 1290ERGO   ROH16367   8.125   9.983   5.997  0.0491 -0.2707 -0.0251
 1290ERGO    R116368   8.105   9.821   6.227  0.0307 -0.1350  0.0691
 1290ERGO    R216369   8.207   9.897   6.472  0.0143  0.0056  0.0271
 1290ERGO    R316370   7.954   9.846   6.558  0.0096  0.0581  0.0472
 1290ERGO    R416371   8.118   9.840   6.801  0.0727 -0.1745  0.0134
 1290ERGO    R516372   7.982   9.684   6.732 -0.0140 -0.0747 -0.0645
 1290ERGO    C116373   7.829   9.760   7.073  0.1023 -0.2302  0.0242
 1290ERGO    C216374   7.915   9.700   7.426 -0.1518 -0.3847  0.1698
 1291ERGO   ROH16375   3.068   3.272   9.078 -0.3579 -0.3941 -0.1334
 1291ERGO    R116376   3.003   3.285   8.803 -0.1547 -0.1569 -0.1736
 1291ERGO    R216377   3.103   3.481   8.636  0.1152 -0.1173  0.0278
 1291ERGO    R316378   3.184   3.268   8.488  0.0557 -0.0798 -0.0597
 1291ERGO    R416379   3.215   3.498   8.309  0.2900  0.0123  0.0932
 1291ERGO    R516380   3.105   3.315   8.267  0.1949  0.1048 -0.0731
 1291ERGO    C116381   3.356   3.308   7.980  0.3358  0.1230  0.0489
 1291ERGO    C216382   3.457   3.258   7.637  0.2499 -0.4824  0.0023
 1292ERGO   ROH16383   8.896   6.617   8.985 -0.0588 -0.1726 -0.0146
 1292ERGO    R116384   8.910   6.496   8.729 -0.0700 -0.1095 -0.0456
 1292ERGO    R216385   8.722   6.544   8.532 -0.0931 -0.0796 -0.0185
 1292ERGO    R316386   8.941   6.610   8.385 -0.1120 -0.0223 -0.0204
 1292ERGO    R416387   8.755   6.494   8.191 -0.0972 -0.0343 -0.0252
 1292ERGO    R516388   8.961   6.434   8.224 -0.0854  0.0007 -0.0412
 1292ERGO    C116389   8.979   6.527   7.855 -0.1173  0.0459 -0.0310
 1292ERGO    C216390   8.921   6.630   7.514  0.0036 -0.1134  0.0661
 1293ERGO   ROH16391  12.656   5.290   9.204  0.3992  0.1861  0.1241
 1293ERGO    R116392  12.816   5.333   8.974  0.3243 -0.0094  0.0325
 1293ERGO    R216393  12.873   5.133   8.792  0.0719 -0.1096  0.0582
 1293ERGO    R316394  12.773   5.312   8.613  0.1289 -0.0763  0.0593
 1293ERGO    R416395  12.851   5.079   8.452  0.2472 -0.0124  0.0304
 1293ERGO    R516396  12.913   5.286   8.420  0.2263  0.0055  0.1201
 1293ERGO    C116397  12.745   5.215   8.085  0.4028  0.0754  0.0153
 1293ERGO    C216398  12.569   5.073   7.856 -0.2078 -0.1279  0.1320
 1294ERGO   ROH16399   0.429   6.855   6.250  0.0029  0.1730  0.0301
 1294ERGO    R116400   0.529   6.793   6.507 -0.0895 -0.0473  0.0161
 1294ERGO    R216401   0.629   6.986   6.678  0.3768 -0.2553 -0.0031
 1294ERGO    R316402   0.447   6.881   6.851  0.1575  0.1533  0.0272
 1294ERGO    R416403   0.639   7.023   7.021  0.5000 -0.2444 -0.0082
 1294ERGO    R516404   0.578   6.814   7.040  0.0415 -0.1184  0.0165
 1294ERGO    C116405   0.475   6.945   7.384  0.3658  0.1456  0.0171
 1294ERGO    C216406   0.341   6.961   7.802  0.1372  0.0786 -0.0435
 1295ERGO   ROH16407  15.802  15.789   7.974 -0.0456  0.0153 -0.0743
 1295ERGO    R116408  15.695  15.714   7.723 -0.1190 -0.0157 -0.0349
 1295ERGO    R216409  15.635  15.453   7.658  0.0204 -0.0488 -0.0462
 1295ERGO    R316410  15.391  15.557   7.601 -0.0762 -0.1970  0.0911
 1295ERGO    R416411  15.364  15.270   7.547  0.1352 -0.1743 -0.1219
 1295ERGO    R516412  15.316  15.432   7.410 -0.0243 -0.1074  0.0151
 1295ERGO    C116413  14.976  15.261   7.429  0.1115 -0.3866 -0.0370
 1295ERGO    C216414  14.757  15.221   7.216  0.3447 -0.1383 -0.0483
 1296ERGO   ROH16415  13.995   8.901   9.370 -0.2680  0.3631 -0.1844
 1296ERGO    R116416  13.995   9.035   9.121 -0.2203  0.1681 -0.2932
 1296ERGO    R216417  14.223   9.146   9.012 -0.2507  0.3615 -0.1913
 1296ERGO    R316418  14.158   8.992   8.798  0.1091  0.0988 -0.1181
 1296ERGO    R416419  14.228   9.252   8.683 -0.4904  0.1958 -0.2493
 1296ERGO    R516420  14.044   9.141   8.650 -0.2322 -0.2455 -0.2029
 1296ERGO    C116421  14.170   9.169   8.291 -0.2921 -0.1472 -0.2143
 1296ERGO    C216422  14.262   9.081   8.025  0.1524  0.0547 -0.1937
 1297ERGO   ROH16423   5.496  16.467   9.208 -0.0119  0.2557 -0.0258
 1297ERGO    R116424   5.418  16.417   8.940 -0.2166  0.1300  0.0531
 1297ERGO    R216425   5.236  16.576   8.807 -0.0918  0.2570  0.0135
 1297ERGO    R316426   5.435  16.593   8.622 -0.1546 -0.1505 -0.0988
 1297ERGO    R416427   5.188  16.654   8.473 -0.1079  0.3539  0.0396
 1297ERGO    R516428   5.337  16.502   8.422 -0.4464  0.0483 -0.0446
 1297ERGO    C116429   5.347  16.715   8.106 -0.1761  0.0275 -0.0506
 1297ERGO    C216430   5.196  16.743   7.747  0.1481 -0.0086  0.0141
 1298ERGO   ROH16431  15.238  15.618   9.629 -0.1547 -0.0795 -0.0300
 1298ERGO    R116432  15.364  15.735   9.404 -0.0788 -0.1155 -0.0072
 1298ERGO    R216433  15.258  15.721   9.149 -0.0738 -0.0218 -0.0184
 1298ERGO    R316434  15.284  15.991   9.159  0.0710 -0.0372  0.0256
 1298ERGO    R416435  15.228  15.931   8.877 -0.0515  0.0488  0.0344
 1298ERGO    R516436  15.396  16.047   8.955  0.0329 -0.0551  0.0020
 1298ERGO    C116437  15.235  16.308   8.727  0.0972  0.0754  0.1063
 1298ERGO    C216438  15.065  16.386   8.535  0.0979  0.1857  0.3407
 1299ERGO   ROH16439   3.329   3.166   9.416  0.1722  0.0049  0.0087
 1299ERGO    R116440   3.475   3.151   9.174  0.1522 -0.0858  0.0008
 1299ERGO    R216441   3.517   2.912   9.040 -0.0842 -0.1045 -0.0552
 1299ERGO    R316442   3.408   3.048   8.832  0.0379  0.0524 -0.0174
 1299ERGO    R416443   3.505   2.799   8.714 -0.0409  0.0820 -0.1223
 1299ERGO    R516444   3.552   3.000   8.647  0.0657  0.0922 -0.0004
 1299ERGO    C116445   3.395   2.861   8.328  0.0990  0.3379 -0.1256
 1299ERGO    C216446   3.265   2.822   7.940  0.0645  0.2685  0.5983
 1300ERGO   ROH16447  16.072   0.603   9.465  0.3246 -0.3190 -0.1221
 1300ERGO    R116448  15.960   0.727   9.237  0.3707 -0.1395 -0.0490
 1300ERGO    R216449  16.079   0.941   9.109  0.5015 -0.1713  0.0220
 1300ERGO    R316450  16.057   0.781   8.890  0.3448 -0.0616 -0.0448
 1300ERGO    R416451  16.135   1.043   8.784  0.4219 -0.0417  0.0480
 1300ERGO    R516452  15.963   0.923   8.722  0.3417  0.0623  0.0573
 1300ERGO    C116453  16.147   0.952   8.389  0.2283  0.1368  0.0004
 1300ERGO    C216454  16.298   1.153   8.222  0.0212  0.2498  0.2991
 1301ERGO   ROH16455   4.318   2.464   9.198 -0.0390  0.2385 -0.0044
 1301ERGO    R116456   4.404   2.479   8.928  0.0529  0.2418  0.0248
 1301ERGO    R216457   4.309   2.310   8.732  0.2486  0.1297  0.0236
 1301ERGO    R316458   4.251   2.543   8.605  0.1289  0.0614 -0.0485
 1301ERGO    R416459   4.294   2.350   8.389  0.0932 -0.0180  0.0121
 1301ERGO    R516460   4.392   2.542   8.412  0.0489  0.0212 -0.1085
 1301ERGO    C116461   4.230   2.592   8.070 -0.1097 -0.1682 -0.0621
 1301ERGO    C216462   4.302   2.590   7.736 -0.1331  0.1379  0.0856
 1302ERGO   ROH16463  11.515   3.973   9.311 -0.2972 -0.0092  0.0372
 1302ERGO    R116464  11.413   4.095   9.076 -0.1571  0.1029  0.0327
 1302ERGO    R216465  11.560   4.273   8.925  0.0111  0.0170  0.0883
 1302ERGO    R316466  11.500   4.102   8.723 -0.0754  0.0885  0.0531
 1302ERGO    R416467  11.495   4.368   8.599  0.1270  0.1050  0.0903
 1302ERGO    R516468  11.336   4.218   8.593  0.0266  0.2173  0.0425
 1302ERGO    C116469  11.401   4.262   8.219  0.1132  0.2233  0.0582
 1302ERGO    C216470  11.269   4.245   7.868 -0.4926  0.1671  0.2685
 1303ERGO   ROH16471  10.717  12.444   9.480  0.0249  0.0028  0.0502
 1303ERGO    R116472  10.648  12.653   9.303 -0.1259  0.0883  0.2064
 1303ERGO    R216473  10.669  12.628   9.028  0.1230  0.3871  0.1950
 1303ERGO    R316474  10.408  12.703   9.034  0.0086  0.0222  0.0716
 1303ERGO    R416475  10.487  12.727   8.752  0.2213  0.4582  0.1546
 1303ERGO    R516476  10.395  12.882   8.875 -0.0975  0.1953  0.2674
 1303ERGO    C116477  10.135  12.856   8.596  0.1711  0.1572  0.0154
 1303ERGO    C216478  10.192  12.854   8.288  0.3103  0.2992 -0.1746
 1304ERGO   ROH16479  10.783   0.588   9.315  0.0628  0.2029  0.0619
 1304ERGO    R116480  10.780   0.717   9.062 -0.0771  0.1096  0.0139
 1304ERGO    R216481  10.966   0.662   8.866  0.0398  0.2982  0.0638
 1304ERGO    R316482  10.745   0.616   8.715  0.1235 -0.0733  0.0454
 1304ERGO    R416483  10.908   0.798   8.553 -0.2637  0.3758  0.1512
 1304ERGO    R516484  10.699   0.826   8.610 -0.3265 -0.0971  0.1781
 1304ERGO    C116485  10.667   0.835   8.230 -0.3619  0.0721  0.1848
 1304ERGO    C216486  10.733   0.959   7.885 -0.0077  0.0375  0.2370
 1305ERGO   ROH16487   3.693   9.890   9.550  0.1428 -0.1771  0.0832
 1305ERGO    R116488   3.740   9.765   9.301  0.0048 -0.1386  0.0371
 1305ERGO    R216489   3.589   9.820   9.076 -0.0721 -0.0479  0.1100
 1305ERGO    R316490   3.832   9.872   8.965 -0.1019 -0.0943  0.0218
 1305ERGO    R416491   3.657   9.811   8.737 -0.1888 -0.0824  0.0868
 1305ERGO    R516492   3.848   9.717   8.783 -0.1884 -0.1092  0.0270
 1305ERGO    C116493   3.925   9.854   8.436 -0.2848 -0.1462 -0.0094
 1305ERGO    C216494   4.052   9.931   8.146  0.0457  0.2211 -0.1062
 1306ERGO   ROH16495  14.900   2.226   6.235 -0.0205 -0.0510 -0.2397
 1306ERGO    R116496  14.964   2.215   6.510 -0.0800  0.0674 -0.2211
 1306ERGO    R216497  15.202   2.109   6.604 -0.1697 -0.0403 -0.1167
 1306ERGO    R316498  15.223   2.350   6.727 -0.0280  0.0197 -0.2528
 1306ERGO    R416499  15.347   2.161   6.913 -0.1181  0.0565 -0.1558
 1306ERGO    R516500  15.188   2.302   6.959 -0.0377  0.1703 -0.2218
 1306ERGO    C116501  15.452   2.418   7.209  0.0450  0.1692 -0.3063
 1306ERGO    C216502  15.654   2.275   7.469  0.0315  0.0573 -0.1662
 1307ERGO   ROH16503   0.601  13.929   5.891  0.1502 -0.1052  0.0710
 1307ERGO    R116504   0.456  13.867   6.126  0.0186  0.0721  0.0397
 1307ERGO    R216505   0.499  13.636   6.271 -0.3067  0.0023  0.0462
 1307ERGO    R316506   0.532  13.811   6.477 -0.1216 -0.0386  0.0512
 1307ERGO    R416507   0.509  13.548   6.605 -0.3520 -0.0107  0.0433
 1307ERGO    R516508   0.391  13.725   6.650 -0.1780  0.0928  0.0633
 1307ERGO    C116509   0.546  13.660   6.992 -0.2048 -0.0567  0.0463
 1307ERGO    C216510   0.424  13.731   7.269 -0.1675 -0.1142  0.0504
 1308ERGO   ROH16511  13.059   5.556   9.364  0.1289 -0.2525 -0.0793
 1308ERGO    R116512  13.084   5.693   9.118  0.2320 -0.1314  0.0009
 1308ERGO    R216513  13.302   5.661   8.952  0.0586 -0.4427 -0.1461
 1308ERGO    R316514  13.113   5.602   8.766 -0.1721  0.0571 -0.0928
 1308ERGO    R416515  13.325   5.740   8.616  0.2786 -0.6008 -0.1728
 1308ERGO    R516516  13.113   5.792   8.620  0.3938  0.0503 -0.1510
 1308ERGO    C116517  13.161   5.730   8.247  0.1901 -0.2239 -0.1383
 1308ERGO    C216518  13.133   5.586   7.908  0.3888  0.3072  0.1422
 1309ERGO   ROH16519  14.560   8.782   5.858  0.0443 -0.1358 -0.0211
 1309ERGO    R116520  14.616   8.829   6.132  0.0617 -0.0080 -0.0456
 1309ERGO    R216521  14.728   8.636   6.296 -0.0485  0.0230  0.0702
 1309ERGO    R316522  14.911   8.831   6.344  0.0575 -0.0484 -0.0402
 1309ERGO    R416523  14.897   8.679   6.594 -0.0829  0.1511  0.0719
 1309ERGO    R516524  14.872   8.894   6.572  0.0498  0.1485 -0.0960
 1309ERGO    C116525  15.167   8.886   6.814 -0.0033  0.1587 -0.0309
 1309ERGO    C216526  15.433   9.094   6.970  0.0407  0.1659  0.0700
 1310ERGO   ROH16527   7.088   7.944   5.738 -0.0001  0.1411 -0.0502
 1310ERGO    R116528   7.018   7.878   6.004 -0.0197  0.1861 -0.0441
 1310ERGO    R216529   7.157   7.691   6.153 -0.1848  0.0238 -0.0890
 1310ERGO    R316530   7.177   7.895   6.331  0.0611 -0.0124 -0.0717
 1310ERGO    R416531   7.228   7.654   6.489 -0.3482 -0.1015 -0.0672
 1310ERGO    R516532   7.081   7.808   6.533 -0.1355  0.1175 -0.1075
 1310ERGO    C116533   7.288   7.824   6.852 -0.2125 -0.2084 -0.0382
 1310ERGO    C216534   7.404   7.746   7.115 -0.0146 -0.2464 -0.0837
 1311ERGO   ROH16535   0.003   3.875   9.327  0.0619 -0.1573  0.0542
 1311ERGO    R116536  -0.176   3.806   9.119  0.0319 -0.0814  0.0545
 1311ERGO    R216537  -0.206   3.960   8.892  0.0198 -0.0130  0.1014
 1311ERGO    R316538  -0.151   3.726   8.765 -0.0152  0.0181  0.0285
 1311ERGO    R416539  -0.252   3.904   8.554 -0.0461  0.0777  0.0948
 1311ERGO    R516540  -0.326   3.704   8.602 -0.0462  0.0690  0.0556
 1311ERGO    C116541  -0.226   3.651   8.238 -0.1176  0.1596  0.0225
 1311ERGO    C216542  -0.133   3.820   7.942  0.0456 -0.1988  0.0337
 1312ERGO   ROH16543  12.018  12.035   6.768 -0.1931 -0.0027  0.0057
 1312ERGO    R116544  11.857  12.120   6.985 -0.1280  0.0030  0.0523
 1312ERGO    R216545  11.623  11.991   7.056 -0.1322  0.0337  0.0962
 1312ERGO    R316546  11.742  11.979   7.300 -0.0753 -0.0082  0.0665
 1312ERGO    R416547  11.481  11.851   7.338 -0.1176  0.0970  0.1352
 1312ERGO    R516548  11.563  12.016   7.455 -0.0219  0.0671  0.1109
 1312ERGO    C116549  11.509  11.758   7.731 -0.0556  0.0946  0.1299
 1312ERGO    C216550  11.498  11.466   7.905  0.0668 -0.0369 -0.0976
 1313ERGO   ROH16551   5.724  10.943   6.309 -0.1544  0.2114  0.0834
 1313ERGO    R116552   5.688  10.791   6.545 -0.0407  0.0385 -0.0086
 1313ERGO    R216553   5.766  10.881   6.793 -0.0329 -0.0913  0.0351
 1313ERGO    R316554   5.508  10.828   6.859  0.0036 -0.2501  0.0551
 1313ERGO    R416555   5.635  10.905   7.112 -0.0416 -0.0734  0.0304
 1313ERGO    R516556   5.522  10.722   7.073  0.0836 -0.1689  0.0926
 1313ERGO    C116557   5.316  10.868   7.360 -0.0125 -0.2122  0.0464
 1313ERGO    C216558   5.339  10.956   7.661 -0.1936 -0.0074 -0.1227
 1314ERGO   ROH16559  13.781   3.986   9.417  0.1968 -0.1124 -0.0980
 1314ERGO    R116560  13.706   3.821   9.199  0.1101 -0.0840 -0.0894
 1314ERGO    R216561  13.453   3.714   9.173  0.0718  0.0046 -0.0547
 1314ERGO    R316562  13.462   3.835   8.930  0.0772  0.0017 -0.0567
 1314ERGO    R416563  13.347   3.571   8.877 -0.1812  0.0975 -0.0130
 1314ERGO    R516564  13.520   3.659   8.778 -0.1402 -0.0521 -0.0844
 1314ERGO    C116565  13.295   3.600   8.476 -0.3234  0.1489  0.0094
 1314ERGO    C216566  13.170   3.754   8.280 -0.2085  0.1778  0.0610
 1315ERGO   ROH16567   2.506  17.021   9.769 -0.0929  0.0380  0.0976
 1315ERGO    R116568   2.393  17.081   9.516 -0.0376 -0.0152  0.0609
 1315ERGO    R216569   2.483  17.288   9.357 -0.0893  0.0306  0.0987
 1315ERGO    R316570   2.507  17.092   9.171  0.0714  0.0491  0.0970
 1315ERGO    R416571   2.484  17.338   9.015 -0.3811  0.0208  0.0938
 1315ERGO    R516572   2.362  17.159   8.994 -0.1462 -0.1616  0.1847
 1315ERGO    C116573   2.506  17.183   8.642 -0.4001  0.0321  0.0895
 1315ERGO    C216574   2.608  17.219   8.393  0.2071  0.0443  0.2356
 1316ERGO   ROH16575   6.345   0.313   9.474 -0.1580 -0.0540  0.1931
 1316ERGO    R116576   6.444   0.145   9.269 -0.1060  0.0038  0.1709
 1316ERGO    R216577   6.278   0.013   9.092 -0.0610  0.0555  0.0904
 1316ERGO    R316578   6.432   0.137   8.905 -0.0116  0.1071  0.1649
 1316ERGO    R416579   6.251  -0.033   8.750  0.1776 -0.0219  0.0800
 1316ERGO    R516580   6.469  -0.030   8.737  0.1858  0.0955  0.2160
 1316ERGO    C116581   6.380   0.057   8.376  0.3628 -0.0185  0.1437
 1316ERGO    C216582   6.341   0.001   8.015 -0.4071 -0.0234 -0.1424
 1317ERGO   ROH16583   8.586   8.883   9.568 -0.0485 -0.2240 -0.1492
 1317ERGO    R116584   8.636   8.811   9.298 -0.1619 -0.2400 -0.1651
 1317ERGO    R216585   8.434   8.784   9.112 -0.2170 -0.0177 -0.1322
 1317ERGO    R316586   8.585   8.961   8.971 -0.0650 -0.1491 -0.1411
 1317ERGO    R416587   8.427   8.820   8.768 -0.5496  0.2841 -0.1005
 1317ERGO    R516588   8.644   8.843   8.771 -0.4907 -0.0917 -0.3168
 1317ERGO    C116589   8.564   9.007   8.436 -0.6005  0.3366 -0.0907
 1317ERGO    C216590   8.518   8.931   8.085 -0.0533 -0.1152  0.3865
 1318ERGO   ROH16591   7.727  15.913   6.417 -0.1891  0.1038  0.0432
 1318ERGO    R116592   7.597  15.917   6.668 -0.0342 -0.0180  0.1269
 1318ERGO    R216593   7.463  15.698   6.770 -0.0857 -0.0266  0.0405
 1318ERGO    R316594   7.626  15.739   6.984  0.0669 -0.2739 -0.0237
 1318ERGO    R416595   7.397  15.589   7.091 -0.1626  0.1345  0.0810
 1318ERGO    R516596   7.475  15.779   7.166  0.1957  0.0174  0.0258
 1318ERGO    C116597   7.511  15.563   7.479 -0.0643 -0.0038  0.0443
 1318ERGO    C216598   7.504  15.449   7.716 -0.0927  0.1332 -0.1321
 1319ERGO   ROH16599  10.672  15.283   6.738  0.0106  0.0511  0.2173
 1319ERGO    R116600  10.822  15.283   6.977  0.0883 -0.0058  0.1687
 1319ERGO    R216601  10.812  15.076   7.159  0.0528  0.0082  0.1799
 1319ERGO    R316602  11.082  15.077   7.127  0.0443 -0.1163  0.0952
 1319ERGO    R416603  11.032  14.869   7.328  0.0168 -0.0138  0.2005
 1319ERGO    R516604  11.168  15.038   7.347  0.0944 -0.0595  0.0876
 1319ERGO    C116605  11.413  14.750   7.396 -0.0121 -0.1434  0.1331
 1319ERGO    C216606  11.797  14.673   7.570 -0.0852  0.0029  0.1066
 1320ERGO   ROH16607   0.751  12.248   5.814 -0.0756 -0.0924  0.0443
 1320ERGO    R116608   0.693  12.157   6.076 -0.0391 -0.0472  0.0679
 1320ERGO    R216609   0.753  12.305   6.301  0.0472 -0.0359  0.0353
 1320ERGO    R316610   0.489  12.269   6.356  0.0505  0.0347  0.1021
 1320ERGO    R416611   0.620  12.271   6.619  0.0893  0.2582  0.0873
 1320ERGO    R516612   0.488  12.116   6.541  0.0643  0.1969  0.2407
 1320ERGO    C116613   0.295  12.217   6.855  0.1169  0.4955  0.1803
 1320ERGO    C216614  -0.008  12.294   7.011  0.0319 -0.2254 -0.1522
 1321ERGO   ROH16615  10.935   1.677   9.083  0.0253 -0.1196 -0.0708
 1321ERGO    R116616  11.022   1.780   8.835  0.1862 -0.1695 -0.0356
 1321ERGO    R216617  11.093   1.617   8.623 -0.1319 -0.2123 -0.1104
 1321ERGO    R316618  10.910   1.766   8.489  0.1199  0.1823 -0.0323
 1321ERGO    R416619  11.132   1.731   8.299 -0.0793 -0.4327 -0.1836
 1321ERGO    R516620  11.042   1.920   8.361  0.4132 -0.1774 -0.1860
 1321ERGO    C116621  10.983   1.938   7.984  0.1878 -0.1907 -0.1530
 1321ERGO    C216622  11.157   1.871   7.754 -0.3042 -0.1586  0.1574
 1322ERGO   ROH16623  14.863  15.639   5.971  0.0956  0.1847  0.0254
 1322ERGO    R116624  15.056  15.743   6.150  0.1159  0.1657  0.0149
 1322ERGO    R216625  15.095  16.014   6.186  0.0764  0.1630  0.0857
 1322ERGO    R316626  15.054  15.953   6.448  0.1419  0.0788  0.0767
 1322ERGO    R416627  15.112  16.240   6.447 -0.1087  0.1313  0.1266
 1322ERGO    R516628  15.213  16.088   6.566  0.0305  0.1963  0.0935
 1322ERGO    C116629  15.084  16.315   6.844 -0.1550  0.0337  0.1420
 1322ERGO    C216630  15.126  16.427   7.152  0.0980 -0.0933 -0.1166
 1323ERGO   ROH16631   6.240   6.730   9.203  0.1065 -0.0882 -0.1498
 1323ERGO    R116632   6.208   6.748   8.922  0.1912 -0.1175 -0.1616
 1323ERGO    R216633   6.084   6.963   8.800 -0.0045 -0.2512 -0.2025
 1323ERGO    R316634   6.315   6.975   8.659  0.0387  0.0103 -0.1141
 1323ERGO    R416635   6.123   7.131   8.501 -0.0843 -0.2317 -0.2025
 1323ERGO    R516636   6.245   6.966   8.430  0.1407 -0.0943 -0.1403
 1323ERGO    C116637   6.364   7.242   8.194 -0.0902  0.0252 -0.1195
 1323ERGO    C216638   6.242   7.360   7.841 -0.0492  0.2585  0.0237
 1324ERGO   ROH16639  15.509  17.333   9.662  0.1443  0.0279 -0.0873
 1324ERGO    R116640  15.602  17.293   9.398  0.1600 -0.0184 -0.0751
 1324ERGO    R216641  15.865  17.228   9.342  0.1371 -0.1526 -0.0409
 1324ERGO    R316642  15.752  17.020   9.209  0.0471 -0.0939 -0.0550
 1324ERGO    R416643  16.006  17.066   9.072  0.0327 -0.1540 -0.0948
 1324ERGO    R516644  15.809  17.057   8.980  0.0148 -0.0759 -0.0584
 1324ERGO    C116645  15.982  16.776   8.789 -0.1128 -0.1000 -0.1394
 1324ERGO    C216646  16.044  16.616   8.387  0.1122 -0.1953  0.0711
 1325ERGO   ROH16647   3.575  16.211   9.405  0.1873  0.2129 -0.0244
 1325ERGO    R116648   3.678  16.103   9.164  0.1645  0.1090  0.0128
 1325ERGO    R216649   3.515  16.007   8.963  0.1498 -0.1033  0.1286
 1325ERGO    R316650   3.657  16.182   8.810  0.0139 -0.1325 -0.0353
 1325ERGO    R416651   3.506  16.021   8.617 -0.0088 -0.3173  0.1215
 1325ERGO    R516652   3.721  16.054   8.618 -0.0166 -0.2265  0.0115
 1325ERGO    C116653   3.634  16.193   8.273 -0.2287 -0.4696 -0.0362
 1325ERGO    C216654   3.699  16.253   7.877 -0.1917  0.0671  0.2581
 1326ERGO   ROH16655   8.088  16.604   6.604 -0.0625  0.2894  0.1405
 1326ERGO    R116656   7.993  16.489   6.844 -0.0244  0.1315  0.0829
 1326ERGO    R216657   8.162  16.404   7.046  0.0138 -0.0506 -0.0135
 1326ERGO    R316658   8.008  16.568   7.199  0.0831 -0.1262  0.1357
 1326ERGO    R416659   8.182  16.430   7.390  0.1164 -0.2587 -0.0041
 1326ERGO    R516660   7.965  16.441   7.397  0.1267 -0.2352  0.0698
 1326ERGO    C116661   8.050  16.598   7.734  0.2412 -0.4509  0.1413
 1326ERGO    C216662   8.165  16.906   7.967  0.1019 -0.1674  0.3170
 1327ERGO   ROH16663  17.074  15.380   9.498  0.1593 -0.1365 -0.0511
 1327ERGO    R116664  17.051  15.332   9.220  0.0622  0.0131 -0.0697
 1327ERGO    R216665  16.878  15.473   9.058  0.1053  0.1925  0.0446
 1327ERGO    R316666  17.103  15.522   8.914  0.0957  0.1330  0.0079
 1327ERGO    R416667  16.884  15.548   8.721  0.0381  0.4690  0.1019
 1327ERGO    R516668  17.060  15.421   8.701 -0.0648  0.3403 -0.0648
 1327ERGO    C116669  17.100  15.638   8.389 -0.0099  0.5741  0.1008
 1327ERGO    C216670  16.992  15.634   8.080  0.2571 -0.1064  0.1390
 1328ERGO   ROH16671   3.658   3.699   5.471  0.1099  0.0407 -0.1902
 1328ERGO    R116672   3.586   3.714   5.744  0.1484  0.1928 -0.1886
 1328ERGO    R216673   3.651   3.516   5.926 -0.1355  0.1233 -0.1649
 1328ERGO    R316674   3.761   3.723   6.064  0.1851 -0.0162 -0.1998
 1328ERGO    R416675   3.680   3.531   6.270 -0.1464  0.1476 -0.1641
 1328ERGO    R516676   3.625   3.742   6.261  0.1890  0.2410 -0.2151
 1328ERGO    C116677   3.800   3.734   6.600  0.1482  0.0308 -0.1963
 1328ERGO    C216678   3.652   3.575   6.845  0.1910  0.2002  0.0338
 1329ERGO   ROH16679  11.840   1.229   5.688  0.1178  0.0344 -0.0053
 1329ERGO    R116680  12.023   1.202   5.902  0.0224  0.1614  0.0921
 1329ERGO    R216681  12.174   1.414   5.995  0.0172  0.2029 -0.0036
 1329ERGO    R316682  12.064   1.346   6.234 -0.0919  0.4010  0.0062
 1329ERGO    R416683  12.252   1.562   6.298  0.1358  0.2287 -0.0450
 1329ERGO    R516684  12.244   1.365   6.390 -0.0879  0.2625  0.0236
 1329ERGO    C116685  12.193   1.584   6.698  0.1025  0.4297 -0.0600
 1329ERGO    C216686  12.211   1.465   7.012 -0.0442  0.1458  0.1922
 1330ERGO   ROH16687  11.266   7.176   5.897  0.0999 -0.0077 -0.0094
 1330ERGO    R116688  11.102   7.189   6.127  0.0528 -0.0449 -0.0401
 1330ERGO    R216689  11.083   6.981   6.308  0.1454 -0.0108  0.0122
 1330ERGO    R316690  11.151   7.174   6.487  0.0025  0.0773 -0.0280
 1330ERGO    R416691  11.021   6.965   6.647  0.1580  0.0145  0.0153
 1330ERGO    R516692  10.968   7.176   6.643  0.0008 -0.0254 -0.0291
 1330ERGO    C116693  11.047   7.136   7.013  0.0311  0.1120 -0.0207
 1330ERGO    C216694  11.215   7.030   7.263 -0.1204  0.0211 -0.0903
 1331ERGO   ROH16695  14.112  13.028   9.514  0.1056  0.0754 -0.0337
 1331ERGO    R116696  14.180  13.007   9.240  0.0681  0.1846 -0.0521
 1331ERGO    R216697  14.028  12.863   9.059  0.1999  0.0128 -0.0289
 1331ERGO    R316698  14.028  13.098   8.922 -0.1206  0.0292 -0.0080
 1331ERGO    R416699  13.925  12.900   8.732  0.2123 -0.1142 -0.0473
 1331ERGO    R516700  14.092  13.036   8.699  0.0197  0.1410 -0.0003
 1331ERGO    C116701  13.865  13.141   8.412 -0.0814 -0.1727 -0.0383
 1331ERGO    C216702  13.746  13.231   8.047  0.0559 -0.3341  0.0301
 1332ERGO   ROH16703   7.729  13.232   6.293 -0.1984  0.3300 -0.0425
 1332ERGO    R116704   7.613  13.337   6.529 -0.3656  0.0455  0.0070
 1332ERGO    R216705   7.434  13.194   6.684 -0.0299 -0.3715  0.0322
 1332ERGO    R316706   7.610  13.251   6.883 -0.0892 -0.0308 -0.0079
 1332ERGO    R416707   7.351  13.228   7.018 -0.0458 -0.3064  0.0214
 1332ERGO    R516708   7.489  13.396   7.030 -0.2697 -0.1149 -0.0753
 1332ERGO    C116709   7.468  13.302   7.399 -0.1108  0.0512 -0.0225
 1332ERGO    C216710   7.233  13.389   7.594 -0.4137 -0.3089 -0.0046
 1333ERGO   ROH16711   9.578   3.089   9.034  0.1720 -0.1099 -0.1217
 1333ERGO    R116712   9.562   3.227   8.787 -0.1851  0.1706  0.0506
 1333ERGO    R216713   9.641   3.113   8.548  0.1048  0.6680 -0.0975
 1333ERGO    R316714   9.390   3.181   8.470 -0.0842  0.1311 -0.0002
 1333ERGO    R416715   9.540   3.153   8.220 -0.1266  0.3918 -0.0641
 1333ERGO    R516716   9.422   3.325   8.282 -0.4656  0.1701 -0.0482
 1333ERGO    C116717   9.245   3.239   7.956 -0.4386 -0.2730  0.0466
 1333ERGO    C216718   8.955   3.266   7.741  0.0617 -0.0294  0.0502
 1334ERGO   ROH16719  15.685  11.545   9.406  0.1571  0.0066  0.0687
 1334ERGO    R116720  15.744  11.721   9.193  0.2158 -0.0993 -0.0042
 1334ERGO    R216721  15.826  11.632   8.944  0.0489 -0.2357 -0.0146
 1334ERGO    R316722  15.616  11.782   8.857  0.1329 -0.0932  0.0288
 1334ERGO    R416723  15.788  11.749   8.621  0.0719 -0.1896  0.0000
 1334ERGO    R516724  15.715  11.937   8.704  0.2084 -0.1477  0.0234
 1334ERGO    C116725  15.569  11.958   8.352  0.1642 -0.0290  0.0493
 1334ERGO    C216726  15.649  11.891   8.004  0.0271  0.4433  0.0085
 1335ERGO   ROH16727   8.509   9.762   9.509 -0.1067 -0.2037  0.0158
 1335ERGO    R116728   8.518   9.926   9.278  0.0559 -0.2140  0.0131
 1335ERGO    R216729   8.660   9.857   9.052  0.0274 -0.3388  0.0281
 1335ERGO    R316730   8.421   9.896   8.929  0.0689 -0.1439  0.0050
 1335ERGO    R416731   8.622   9.967   8.727  0.1337 -0.3984 -0.0054
 1335ERGO    R516732   8.455  10.091   8.793  0.2542 -0.2199 -0.0522
 1335ERGO    C116733   8.375  10.067   8.421  0.2347 -0.2500 -0.0466
 1335ERGO    C216734   8.481  10.153   8.074  0.2207  0.0621 -0.0637
 1336ERGO   ROH16735  11.778   3.068   9.122 -0.0636  0.1013 -0.1389
 1336ERGO    R116736  11.841   3.126   8.853 -0.1402  0.0510 -0.1667
 1336ERGO    R216737  12.013   2.970   8.703 -0.0977  0.0912 -0.1473
 1336ERGO    R316738  11.803   2.960   8.531 -0.1193 -0.0592 -0.1156
 1336ERGO    R416739  12.041   2.965   8.359 -0.1227 -0.1745 -0.1484
 1336ERGO    R516740  11.870   3.100   8.348 -0.1410 -0.1894 -0.2335
 1336ERGO    C116741  11.861   2.953   7.996 -0.1577 -0.4704 -0.1194
 1336ERGO    C216742  12.019   2.821   7.685 -0.1787 -0.2913  0.0226
 1337ERGO   ROH16743  13.120   3.611   5.990  0.1885 -0.0287 -0.0523
 1337ERGO    R116744  13.127   3.561   6.269  0.1595  0.0003 -0.0464
 1337ERGO    R216745  13.324   3.663   6.433  0.1356  0.0276 -0.0348
 1337ERGO    R316746  13.111   3.759   6.574  0.1145  0.0309 -0.0686
 1337ERGO    R416747  13.340   3.790   6.755  0.0767 -0.0165 -0.0140
 1337ERGO    R516748  13.153   3.688   6.799  0.0568 -0.0028 -0.0689
 1337ERGO    C116749  13.151   3.953   7.074  0.0226 -0.0391 -0.0337
 1337ERGO    C216750  13.165   4.247   7.290  0.1916  0.1810 -0.1150
 1338ERGO   ROH16751   7.097   3.597   9.379  0.2599 -0.1343 -0.1464
 1338ERGO    R116752   7.030   3.764   9.161  0.0244 -0.1957 -0.1244
 1338ERGO    R216753   7.221   3.894   9.009 -0.1508  0.0397 -0.1520
 1338ERGO    R316754   7.095   3.770   8.803 -0.0447 -0.0977 -0.1352
 1338ERGO    R416755   7.315   3.917   8.678 -0.3770  0.3646 -0.1985
 1338ERGO    R516756   7.104   3.928   8.623 -0.4341  0.0072 -0.0716
 1338ERGO    C116757   7.252   3.814   8.291 -0.4091  0.4248 -0.2099
 1338ERGO    C216758   7.383   3.767   7.981  0.2860  0.1631 -0.1877
 1339ERGO   ROH16759  13.134  15.004   9.524 -0.1501 -0.0537 -0.0924
 1339ERGO    R116760  13.199  14.968   9.251 -0.1161  0.0433 -0.0967
 1339ERGO    R216761  13.083  14.773   9.094 -0.0665  0.0752 -0.1687
 1339ERGO    R316762  13.024  14.984   8.933 -0.0842  0.1144 -0.1121
 1339ERGO    R416763  13.054  14.755   8.750 -0.1860  0.1326 -0.1623
 1339ERGO    R516764  13.157  14.947   8.737 -0.1542  0.1198 -0.1645
 1339ERGO    C116765  12.981  14.943   8.398 -0.2723  0.2028 -0.1055
 1339ERGO    C216766  12.960  14.826   8.107  0.0358 -0.2440 -0.3694
 1340ERGO   ROH16767   2.605   1.098   6.136 -0.1508 -0.0786  0.0202
 1340ERGO    R116768   2.593   1.196   6.402 -0.1788  0.0906 -0.0422
 1340ERGO    R216769   2.355   1.257   6.527 -0.2269 -0.2469  0.0392
 1340ERGO    R316770   2.448   1.087   6.717  0.1854  0.0489  0.1165
 1340ERGO    R416771   2.359   1.324   6.866 -0.6365 -0.1753  0.0355
 1340ERGO    R516772   2.556   1.229   6.877 -0.3359  0.4155  0.1675
 1340ERGO    C116773   2.449   1.202   7.242 -0.4880  0.1442  0.1058
 1340ERGO    C216774   2.550   1.189   7.550 -0.0543  0.0939 -0.0153
 1341ERGO   ROH16775   8.933   3.775   9.417  0.0449  0.0796 -0.0699
 1341ERGO    R116776   8.928   3.656   9.160  0.1663  0.0924 -0.0782
 1341ERGO    R216777   8.692   3.603   9.025  0.2254 -0.0536 -0.1193
 1341ERGO    R316778   8.810   3.749   8.828  0.1614  0.0350 -0.0937
 1341ERGO    R416779   8.588   3.613   8.696  0.0378  0.1864 -0.0561
 1341ERGO    R516780   8.796   3.610   8.634  0.0063  0.1583 -0.1763
 1341ERGO    C116781   8.637   3.755   8.319 -0.1315  0.4094  0.0048
 1341ERGO    C216782   8.674   3.741   7.920 -0.3821  0.0632 -0.1172
 1342ERGO   ROH16783  16.904  12.096   6.056 -0.1235 -0.0318 -0.1863
 1342ERGO    R116784  16.713  12.134   6.262 -0.0524  0.0494 -0.1346
 1342ERGO    R216785  16.750  12.040   6.519 -0.0613 -0.0428 -0.1680
 1342ERGO    R316786  16.703  12.299   6.586  0.1337 -0.0259 -0.0888
 1342ERGO    R416787  16.653  12.148   6.833 -0.0382 -0.0767 -0.1492
 1342ERGO    R516788  16.517  12.288   6.737  0.0921  0.0689 -0.1304
 1342ERGO    C116789  16.552  12.454   7.078  0.1581 -0.0803 -0.0639
 1342ERGO    C216790  16.587  12.389   7.493  0.1340  0.3274  0.1929
 1343ERGO   ROH16791  12.285   7.933   5.649 -0.1127  0.2298 -0.0677
 1343ERGO    R116792  12.304   8.065   5.899  0.0056  0.1810 -0.0498
 1343ERGO    R216793  12.114   8.035   6.097  0.0307  0.2439 -0.0126
 1343ERGO    R316794  12.329   7.965   6.248  0.0297  0.1109 -0.0720
 1343ERGO    R416795  12.107   7.981   6.439  0.0410 -0.0225 -0.0525
 1343ERGO    R516796  12.298   8.084   6.454  0.0465 -0.0486  0.0221
 1343ERGO    C116797  12.305   7.885   6.779  0.0461 -0.3025 -0.1314
 1343ERGO    C216798  12.305   7.737   7.100 -0.1224  0.1180  0.1193
 1344ERGO   ROH16799  10.330  12.269   5.821 -0.1893 -0.2542  0.0056
 1344ERGO    R116800  10.400  12.337   6.087 -0.2749 -0.0454 -0.0226
 1344ERGO    R216801  10.241  12.271   6.303 -0.1806 -0.1798  0.0095
 1344ERGO    R316802  10.470  12.157   6.395 -0.0138  0.1762  0.0506
 1344ERGO    R416803  10.289  12.160   6.627 -0.1858 -0.3952 -0.0627
 1344ERGO    R516804  10.492  12.240   6.619 -0.3301  0.0117  0.1484
 1344ERGO    C116805  10.533  11.988   6.902 -0.0324 -0.1863 -0.0663
 1344ERGO    C216806  10.390  11.758   7.134  0.3362 -0.1048 -0.1909
 1345ERGO   ROH16807   0.699  15.657   6.526 -0.2489 -0.1435  0.0838
 1345ERGO    R116808   0.906  15.607   6.713 -0.1064 -0.0753 -0.0533
 1345ERGO    R216809   0.938  15.757   6.943  0.0605 -0.0006 -0.1257
 1345ERGO    R316810   0.927  15.514   7.064  0.1606  0.0382 -0.0368
 1345ERGO    R416811   1.008  15.699   7.276  0.1369  0.1431 -0.1154
 1345ERGO    R516812   1.110  15.516   7.218  0.1877  0.1544 -0.0676
 1345ERGO    C116813   1.038  15.436   7.584  0.2754  0.2630 -0.0258
 1345ERGO    C216814   1.061  15.386   7.917  0.0894  0.0406  0.1201
 1346W        W16815  17.664   2.270  13.639 -0.2995 -0.3426 -0.2401
 1347W        W16816  16.936  12.085  11.279  0.0537  0.1669 -0.0457
 1348W        W16817  11.197  12.402  14.853  0.0153  0.2293  0.0732
 1349W        W16818   1.863  10.896  14.438 -0.1899  0.2775 -0.2023
 1350W        W16819  12.545   4.865  14.255 -0.0079  0.0564  0.0581
 1351W        W16820   0.320   7.456   2.890 -0.1848 -0.0325 -0.3489
 1352W        W16821   5.326  10.057   2.565  0.1000 -0.0567  0.0266
 1353W        W16822   7.161  18.575  13.136 -0.0926  0.1247  0.1018
 1354W        W16823   8.038   2.935  13.737  0.4065 -0.3760  0.1580
 1355W        W16824   8.152  11.251   4.662  0.1640 -0.0091 -0.0501
 1356W        W16825  17.088  18.923  12.886  0.1616 -0.2398 -0.0915
 1357W        W16826  18.742  13.847   4.028 -0.2548 -0.0318  0.0507
 1358W        W16827   4.580   1.982   0.792  0.1484  0.2151  0.0749
 1359W        W16828  17.496   3.478  15.071 -0.1158  0.1051  0.1287
 1360W        W16829  12.182   9.091  14.211  0.1711  0.0421  0.2308
 1361W        W16830  17.517  12.721  13.669 -0.0040 -0.0370 -0.1090
 1362W        W16831  17.040  18.141   0.712  0.0771 -0.0890 -0.4006
 1363W        W16832  13.558  13.057   4.299  0.0191  0.1410  0.1535
 1364W        W16833   5.168   1.966   1.304  0.0706  0.4212 -0.4848
 1365W        W16834   7.799   2.503   4.405 -0.1745 -0.0131  0.0741
 1366W        W16835   4.096   7.784  10.585  0.0974 -0.3325 -0.1600
 1367W        W16836   6.982   3.252   4.544 -0.0514 -0.0777  0.1840
 1368W        W16837  10.926  16.844   2.904  0.2129  0.0946 -0.1433
 1369W        W16838  17.572  15.430  15.469 -0.0320 -0.2243 -0.1291
 1370W        W16839  13.793   9.741   2.956  0.1680  0.2423  0.1857
 1371W        W16840   8.702  18.546  14.840  0.0002 -0.1193  0.2774
 1372W        W16841   3.849  16.049   3.988  0.0274 -0.0251 -0.0203
 1373W        W16842   9.703  15.677  12.098  0.2119  0.0405  0.0275
 1374W        W16843   8.950  12.282  15.250 -0.2400 -0.0556  0.0194
 1375W        W16844   8.487   7.131  10.606 -0.0845  0.1544 -0.3547
 1376W        W16845   2.050  12.472  14.176 -0.1593 -0.1582  0.0784
 1377W        W16846   0.855  11.871  12.081 -0.3358 -0.1740 -0.1758
 1378W        W16847   8.595  15.115   0.969 -0.0487  0.1777 -0.2093
 1379W        W16848  12.650   3.539  15.345  0.2622 -0.0372  0.1222
 1380W        W16849  14.910   9.656   0.839  0.2061 -0.0668  0.1364
 1381W        W16850  14.879  17.227  14.811 -0.2126  0.0839  0.1859
 1382W        W16851   2.019  14.799  14.879 -0.2530 -0.0559 -0.2703
 1383W        W16852   1.401   1.025   2.932 -0.1451  0.2535  0.0767
 1384W        W16853  13.190  10.815   9.777 -0.1594  0.3571  0.0943
 1385W        W16854  14.807   2.250   0.992  0.1401 -0.1582 -0.0463
 1386W        W16855  14.618   5.537   2.727  0.0679 -0.0184  0.2051
 1387W        W16856  14.128  18.713  12.716  0.1966  0.2026 -0.0205
 1388W        W16857  11.113   8.873  12.913  0.1906  0.1533  0.2922
 1389W        W16858   1.682   1.351  12.849 -0.2828  0.0615 -0.1891
 1390W        W16859   2.572  14.040   0.469 -0.1622  0.1377 -0.3120
 1391W        W16860   6.181   8.051  13.097 -0.1012 -0.1755  0.0691
 1392W        W16861   1.234   0.580   1.934 -0.0480 -0.2824  0.1412
 1393W        W16862  17.815   6.651  10.736 -0.1394 -0.0213  0.2507
 1394W        W16863   0.485  14.258   1.394 -0.2290 -0.0953  0.0307
 1395W        W16864   6.551   8.507   1.695 -0.0655 -0.1091  0.1882
 1396W        W16865  10.849  17.524   6.057 -0.0931 -0.1273  0.1308
 1397W        W16866  14.065   1.624  14.005  0.1576  0.0926 -0.0921
 1398W        W16867  15.544  15.531  11.469  0.2672 -0.1548 -0.1461
 1399W        W16868   5.857   2.069   0.870  0.0965  0.2588 -0.1779
 1400W        W16869  13.299  15.643  11.011  0.1238  0.2896 -0.0553
 1401W        W16870  15.061   4.165  15.404  0.2264 -0.2753  0.4826
 1402W        W16871  10.334   6.745   3.837  0.0205 -0.0459  0.4915
 1403W        W16872  15.423  14.015  13.547 -0.2184 -0.0450  0.2159
 1404W        W16873   8.978   0.538  12.239 -0.2763  0.3189 -0.1019
 1405W        W16874  10.939   7.076   0.142 -0.0800 -0.3388 -0.0114
 1406W        W16875  17.467  13.467   0.980 -0.0976 -0.0061  0.0214
 1407W        W16876   7.413   1.384   9.812 -0.2296 -0.1290 -0.1708
 1408W        W16877  10.064   1.067  14.347 -0.1628 -0.2572  0.0402
 1409W        W16878   7.233  17.647   3.624  0.0827  0.4808 -0.0781
 1410W        W16879   9.216  14.678   2.881 -0.2505 -0.1382  0.1004
 1411W        W16880   2.000   7.855   2.457  0.2394 -0.5259  0.0165
 1412W        W16881   4.930   7.095   2.906  0.1010 -0.0875  0.1132
 1413W        W16882   9.898  15.156   1.431  0.2402 -0.1335  0.0357
 1414W        W16883  11.688  11.025  13.870 -0.2383 -0.0359 -0.1345
 1415W        W16884   0.881   3.788   5.377 -0.0543 -0.0607  0.3702
 1416W        W16885   9.652   0.535   3.202 -0.3503 -0.0427 -0.0643
 1417W        W16886  18.758   6.270  13.511 -0.3547 -0.1740  0.6114
 1418W        W16887   6.849  10.369  14.903 -0.1549 -0.2626  0.0959
 1419W        W16888   9.886   9.632  15.343  0.2048  0.2968  0.2083
 1420W        W16889   7.968   7.340   2.836 -0.0704 -0.2278 -0.1733
 1421W        W16890  14.448  14.228   4.076 -0.0855  0.0087  0.0492
 1422W        W16891  10.205  12.089  13.518 -0.0627  0.1899  0.0690
 1423W        W16892  18.774   3.449  10.680 -0.0868  0.1382 -0.1081
 1424W        W16893   8.713  12.768   4.843  0.2238  0.1665  0.2799
 1425W        W16894  15.029   6.923   4.050  0.0981 -0.1031 -0.0748
 1426W        W16895   4.949   7.407   4.380  0.1618  0.1766 -0.0104
 1427W        W16896  10.508  17.273  14.791  0.2708  0.0320  0.1170
 1428W        W16897   3.626  18.291  12.587 -0.2562 -0.0269  0.1356
 1429W        W16898  18.276   1.584  14.668 -0.0672  0.2005  0.0570
 1430W        W16899   4.502   0.549   5.328  0.0571 -0.1112  0.2288
 1431W        W16900  16.027   5.736   0.107  0.1275 -0.2788 -0.2126
 1432W        W16901   0.990   1.838  13.832 -0.1670  0.1741 -0.1451
 1433W        W16902   0.288  10.685   6.090  0.2023  0.2750  0.2511
 1434W        W16903   6.185   7.217   2.341  0.1593  0.1766  0.0138
 1435W        W16904  12.319  16.949   1.778  0.0653  0.0696  0.2103
 1436W        W16905  16.442   6.949  12.495  0.1117  0.2944  0.0906
 1437W        W16906  11.363   0.547   4.685  0.2698 -0.3199  0.1213
 1438W        W16907   4.387   1.827  14.083  0.2252 -0.1505 -0.0231
 1439W        W16908  12.845   2.096  14.802  0.0747  0.0739  0.0290
 1440W        W16909  14.159  11.792  14.499  0.2752  0.1487 -0.0921
 1441W        W16910  13.495   0.923   2.653 -0.2381  0.2568 -0.1285
 1442W        W16911  18.549   7.257   3.549 -0.2192  0.1649 -0.2417
 1443W        W16912  16.034  17.528   1.549  0.2596 -0.0867 -0.1337
 1444W        W16913   8.323  13.362   3.743 -0.2076  0.0795  0.1536
 1445W        W16914   8.662  12.917   6.130  0.1832  0.0489  0.1178
 1446W        W16915   1.587   0.808   6.145  0.2216  0.0230  0.0497
 1447W        W16916  14.731  17.212  13.648 -0.0729  0.0276  0.3047
 1448W        W16917   0.266   0.143   1.591  0.0943 -0.4404  0.3853
 1449W        W16918   9.441   9.271   5.728 -0.3715 -0.3314 -0.0624
 1450W        W16919   2.086  11.965   2.379  0.3146  0.0577 -0.0196
 1451W        W16920   8.742  17.432  15.487  0.4386 -0.4244  0.1162
 1452W        W16921   6.470  10.368   3.747 -0.2154  0.0938  0.3574
 1453W        W16922   8.199  11.839   2.454 -0.1853 -0.2217 -0.0971
 1454W        W16923  15.203   6.694  11.644  0.2989 -0.0313  0.2712
 1455W        W16924  13.890   6.728  15.329  0.1976 -0.0171  0.1641
 1456W        W16925   6.238   4.332   2.130 -0.2750 -0.2109  0.0109
 1457W        W16926   4.768  15.273   0.657  0.1925  0.4585 -0.4057
 1458W        W16927   3.288   8.284  14.279  0.0910  0.1104 -0.5348
 1459W        W16928  16.515  13.793  14.269 -0.2529 -0.2878 -0.4373
 1460W        W16929   1.040   6.586  12.448  0.0088  0.0243 -0.0186
 1461W        W16930  18.149   0.683   4.274 -0.0581  0.3346 -0.0918
 1462W        W16931   3.453  10.456   4.763 -0.5008 -0.1185 -0.3524
 1463W        W16932   7.486   7.361   2.773  0.0806 -0.3588 -0.3627
 1464W        W16933  14.438   7.642   3.641 -0.1744  0.1018 -0.1288
 1465W        W16934  17.232  16.224  13.056  0.0130  0.1463  0.0664
 1466W        W16935   5.421   9.939  12.336 -0.0313  0.1932 -0.0121
 1467W        W16936   5.339  14.621   0.401 -0.2443 -0.2470 -0.0431
 1468W        W16937   2.968   7.490  10.803  0.3210 -0.3888 -0.2532
 1469W        W16938   2.261   6.584   9.862 -0.0707 -0.1048  0.1178
 1470W        W16939   2.345   5.368   3.360 -0.3499 -0.2270  0.1706
 1471W        W16940  12.375  18.283  10.420  0.1456 -0.4542  0.2037
 1472W        W16941  16.662   2.683  13.595  0.0352 -0.1021  0.2402
 1473W        W16942  12.313  18.005   1.456 -0.2249 -0.1852 -0.3491
 1474W        W16943  10.101   9.599   2.267  0.0128 -0.0551 -0.0626
 1475W        W16944   2.265  10.595  12.274 -0.3852 -0.0947 -0.0465
 1476W        W16945   6.196   0.795   5.420 -0.3251 -0.0657 -0.1414
 1477W        W16946   1.948   3.689  13.845 -0.4391  0.1171  0.1229
 1478W        W16947   2.774   3.172  15.006  0.2407  0.1267  0.4085
 1479W        W16948   0.730   3.134   0.514 -0.0657  0.1977 -0.1137
 1480W        W16949  15.257   6.829  11.145 -0.5175 -0.0635 -0.1801
 1481W        W16950  12.076   7.945   3.738 -0.0587 -0.1823  0.1187
 1482W        W16951  14.671  13.203   2.531 -0.2895 -0.1247  0.0304
 1483W        W16952   6.832   9.155   1.115  0.2081 -0.1839  0.0780
 1484W        W16953   7.299  17.191   0.791 -0.2779  0.0619  0.0205
 1485W        W16954  16.082   0.511   3.019  0.3477  0.2810  0.0294
 1486W        W16955  18.131  18.141   5.578 -0.1081 -0.1589  0.5784
 1487W        W16956  18.291  17.943   4.995  0.0959 -0.1312  0.1516
 1488W        W16957  17.624  17.580   1.389  0.0522  0.0382  0.0153
 1489W        W16958  13.295   6.217   4.981  0.2295 -0.0843  0.1732
 1490W        W16959  16.583   4.440  14.067  0.1732  0.0380  0.2028
 1491W        W16960  17.740   7.125   1.461  0.3862 -0.3725  0.1646
 1492W        W16961   5.595  15.735   4.850  0.3461 -0.0604  0.4217
 1493W        W16962   3.168  18.295  11.824 -0.0609  0.2712 -0.1305
 1494W        W16963   3.800   2.184  13.566  0.0287 -0.0802 -0.2855
 1495W        W16964  12.754  15.760  10.962  0.2206 -0.1708 -0.3373
 1496W        W16965   5.153   2.778   4.382  0.3046 -0.2622 -0.1756
 1497W        W16966   9.052  15.341   5.397 -0.0438  0.0910 -0.2265
 1498W        W16967   8.776  16.826  12.404  0.2458  0.2228  0.1042
 1499W        W16968  16.658   3.017   1.290 -0.2011 -0.1976 -0.1858
 1500W        W16969  15.248  18.570   1.510 -0.3150  0.1152 -0.0002
 1501W        W16970   1.147   1.047   1.018  0.0117 -0.2080  0.2426
 1502W        W16971  15.557   6.304  14.187 -0.0783  0.0490  0.2872
 1503W        W16972  11.452   4.672  12.321 -0.1168  0.4519 -0.0232
 1504W        W16973  17.129   0.909   1.075  0.1638 -0.0617 -0.1069
 1505W        W16974  11.639  18.041  10.511 -0.1950  0.1979 -0.2117
 1506W        W16975  17.833  16.078  15.094  0.0177  0.2816  0.2130
 1507W        W16976  17.715  17.751   3.806 -0.4333  0.1548 -0.3326
 1508W        W16977   9.085   4.900  12.753 -0.0392  0.0490  0.1715
 1509W        W16978  15.397   8.269  12.547  0.2470  0.1153  0.1467
 1510W        W16979  12.144  11.131  12.970  0.0612  0.2841 -0.0627
 1511W        W16980   7.695   3.930  15.018  0.2532 -0.0197 -0.0671
 1512W        W16981   4.531   4.623  14.828 -0.1390  0.4567  0.0552
 1513W        W16982  12.538   2.659  13.960 -0.1537  0.3735 -0.0735
 1514W        W16983  10.162   9.040   0.441 -0.1785  0.2572 -0.4159
 1515W        W16984   0.280  16.997  11.085  0.0454 -0.1635  0.0753
 1516W        W16985   4.905   0.706   1.351 -0.0177 -0.1161 -0.3056
 1517W        W16986   2.144   1.392  11.877 -0.1258 -0.1760  0.1873
 1518W        W16987  13.507  17.110  12.109  0.2263 -0.2280  0.2499
 1519W        W16988   4.320   5.525   3.692 -0.1636 -0.1433 -0.1264
 1520W        W16989  15.218   7.184  13.157  0.2454 -0.2418 -0.4260
 1521W        W16990   2.049  15.860   0.859 -0.1742 -0.0481 -0.0909
 1522W        W16991   5.479  16.590   0.223 -0.2005  0.2059  0.0375
 1523W        W16992   6.261   1.480  10.340  0.2687  0.0930  0.1922
 1524W        W16993   5.516  12.209  15.074  0.0526 -0.1409  0.2217
 1525W        W16994  16.241  13.716   0.201 -0.2833  0.0248 -0.0754
 1526W        W16995  11.897  12.386  12.710  0.1052  0.2001 -0.3593
 1527W        W16996  18.129  13.512  13.554  0.0530  0.4514  0.2693
 1528W        W16997   7.664   5.225   3.589  0.3069 -0.0113 -0.1201
 1529W        W16998   3.497   7.843  12.620 -0.1866 -0.4798  0.4022
 1530W        W16999   1.598   3.913   2.467 -0.2224  0.2971  0.1988
 1531W        W17000  14.309   2.013  14.192  0.2054 -0.2428 -0.1633
 1532W        W17001   7.426   3.499  13.717 -0.0168 -0.4976 -0.1630
 1533W        W17002   5.003   9.902   5.160 -0.1334 -0.0243 -0.0869
 1534W        W17003   8.876   8.611   0.361 -0.2452  0.1090  0.4274
 1535W        W17004   9.240  13.823   4.902  0.3316 -0.0539  0.1599
 1536W        W17005  15.992  13.183   2.964  0.5643 -0.2573 -0.0529
 1537W        W17006   1.031   5.595   2.643 -0.0681 -0.2035  0.1741
 1538W        W17007  14.262  10.012  10.934 -0.0212 -0.0179 -0.0137
 1539W        W17008   0.767  15.941   1.488  0.2469  0.3413 -0.0596
 1540W        W17009  10.782   6.450   0.842 -0.0911  0.0441 -0.0252
 1541W        W17010  14.558  14.909  12.597 -0.1853  0.0573 -0.0795
 1542W        W17011  10.720   9.290   2.729  0.4229  0.0444  0.1556
 1543W        W17012  10.176  10.567  14.835 -0.3605 -0.0391  0.1322
 1544W        W17013  18.782   7.955  14.670 -0.0874 -0.0797 -0.0664
 1545W        W17014  11.909  15.252  14.526  0.0286 -0.1014  0.4717
 1546W        W17015  11.640  15.557  15.239  0.1393  0.0578  0.5760
 1547W        W17016   8.032   9.599   4.215  0.0941  0.0232 -0.2282
 1548W        W17017  13.718   5.917   3.183  0.0739 -0.0468  0.0268
 1549W        W17018   7.579  15.218  14.272 -0.0034  0.0385  0.0824
 1550W        W17019   1.913  11.116  14.919  0.3339 -0.1297  0.3501
 1551W        W17020  13.610  15.003  15.175 -0.0167  0.2340  0.2196
 1552W        W17021  18.093   1.695  12.852  0.3963 -0.0348 -0.0290
 1553W        W17022  11.839   5.260   1.324 -0.1778 -0.6653  0.0711
 1554W        W17023   3.965   3.845  11.547 -0.2071  0.2215  0.1711
 1555W        W17024  15.073   1.021  14.822  0.0872 -0.1647 -0.2419
 1556W        W17025   1.190  12.439   5.188  0.3316  0.1577 -0.0259
 1557W        W17026   4.689  13.863   2.304 -0.2870 -0.2537  0.0816
 1558W        W17027  15.937  11.672  12.618  0.3016  0.0764 -0.1348
 1559W        W17028   5.312  10.008   1.155 -0.0252  0.0049 -0.1173
 1560W        W17029  17.195   5.765  11.471  0.3643 -0.1904  0.0485
 1561W        W17030  11.717   1.566  14.474  0.4475 -0.0377 -0.0031
 1562W        W17031   5.346   6.939  11.617  0.1205  0.0544 -0.3922
 1563W        W17032   9.262   0.635  14.138  0.1615 -0.0119  0.0183
 1564W        W17033  17.329  18.007  13.789  0.0721 -0.0790  0.1977
 1565W        W17034  13.945   2.981   1.950 -0.0625 -0.2740 -0.1101
 1566W        W17035  15.710   1.158  14.263  0.0359 -0.1976  0.3158
 1567W        W17036  15.804   4.895  11.687  0.0597 -0.0243 -0.3345
 1568W        W17037  13.680   8.716   3.991 -0.0723 -0.2256 -0.0624
 1569W        W17038   9.864   8.153   2.744 -0.0368 -0.1927 -0.0253
 1570W        W17039   4.210   2.220   4.032  0.1898 -0.1391  0.3574
 1571W        W17040   4.259   3.525  12.126  0.1323 -0.1184 -0.0778
 1572W        W17041  18.648   6.204   4.359 -0.0220  0.0180  0.3179
 1573W        W17042  13.416  17.290  10.469 -0.1897 -0.1320  0.0644
 1574W        W17043   1.990   2.221   2.450  0.0262  0.0706 -0.3002
 1575W        W17044  16.203   5.823   5.499 -0.1566  0.2109 -0.3095
 1576W        W17045   1.837   6.641   1.437 -0.0446 -0.0829  0.5287
 1577W        W17046   0.028  16.726   0.578  0.1652 -0.0613  0.0535
 1578W        W17047   9.285   9.754  11.898 -0.1006  0.1430 -0.1393
 1579W        W17048   5.757  18.574   2.856  0.4571 -0.1697  0.1290
 1580W        W17049  12.587   4.267  13.519 -0.0733 -0.3356 -0.4689
 1581W        W17050  16.826   7.095   2.226 -0.2421 -0.3988  0.0474
 1582W        W17051  12.485   6.213   2.017  0.1115  0.4130 -0.0831
 1583W        W17052  13.418  10.695   0.004 -0.2294 -0.0039  0.0082
 1584W        W17053   4.559  17.212  14.397 -0.3779 -0.2511 -0.1091
 1585W        W17054  17.743  15.070  14.900  0.0867  0.1885  0.2024
 1586W        W17055   7.737   5.493  12.850 -0.0405 -0.3472  0.3664
 1587W        W17056   7.520  14.070   0.413 -0.1059 -0.0434 -0.1121
 1588W        W17057  14.306   5.016   3.343 -0.1365  0.0849 -0.2629
 1589W        W17058  13.535   9.798  12.743  0.4318  0.1008  0.0899
 1590W        W17059   8.760   6.219  14.548  0.0830  0.3267  0.1608
 1591W        W17060  12.757   0.653  14.753 -0.1895  0.3633  0.1955
 1592W        W17061   7.053  18.739   2.437  0.0806 -0.0729  0.1214
 1593W        W17062  10.593   5.181   3.402  0.1278  0.0826 -0.2452
 1594W        W17063   2.008   1.074  14.374 -0.0169  0.2260  0.0073
 1595W        W17064  15.581   6.020  15.420  0.2550 -0.1883  0.3294
 1596W        W17065   5.470   7.515  14.005  0.0729  0.0258 -0.1691
 1597W        W17066   4.243  10.897   0.464  0.0523 -0.2715 -0.0604
 1598W        W17067   7.446  18.051  10.367 -0.1214  0.3748 -0.0345
 1599W        W17068   9.681  11.463  11.883  0.2232  0.1961  0.1919
 1600W        W17069  12.741   2.397   1.804 -0.0943 -0.3803  0.3032
 1601W        W17070  13.923  11.946   3.045 -0.1117  0.1312 -0.2104
 1602W        W17071  18.518   0.168   3.122 -0.0156 -0.2132  0.0062
 1603W        W17072   8.733  15.583  13.173  0.1757  0.0372 -0.0990
 1604W        W17073  11.673   9.402   5.046  0.2972 -0.0908  0.2355
 1605W        W17074  17.113  17.999   3.120 -0.0150  0.2163  0.0104
 1606W        W17075   6.884   4.725   2.792  0.1418 -0.0506 -0.0044
 1607W        W17076   5.773   0.003   1.156  0.0839  0.2372 -0.3444
 1608W        W17077   5.261   2.571   2.678 -0.0638 -0.2577 -0.0235
 1609W        W17078  14.152  14.172  11.027  0.0402  0.3342  0.0299
 1610W        W17079  16.335  11.481  12.942 -0.2185 -0.1322 -0.1100
 1611W        W17080   4.455   4.534  11.217  0.0003 -0.1745  0.2416
 1612W        W17081   6.438  16.618   4.650 -0.0322  0.1081 -0.0156
 1613W        W17082   5.571   7.689  13.486  0.0945 -0.1356  0.0681
 1614W        W17083   2.967   6.575   5.311 -0.2268  0.0269  0.0341
 1615W        W17084   1.527  12.831   0.042 -0.2356  0.0223  0.0773
 1616W        W17085  14.151   4.556  12.741 -0.1379  0.0751 -0.1017
 1617W        W17086   1.603   6.524   0.534 -0.1812 -0.0316 -0.3570
 1618W        W17087  16.026  17.406  13.673  0.4119  0.0264  0.1779
 1619W        W17088  10.085  16.398  15.402  0.0623  0.1104 -0.0570
 1620W        W17089   0.798  14.089  14.781 -0.2259  0.1335 -0.2649
 1621W        W17090  13.207  10.584   4.242 -0.0979  0.3387  0.1950
 1622W        W17091   7.178  16.424   1.133 -0.0182  0.1195 -0.2375
 1623W        W17092   4.555  18.532   3.167 -0.2413  0.0105 -0.1769
 1624W        W17093  18.891   0.447   4.845 -0.0984  0.3601 -0.1650
 1625W        W17094   8.351  15.512  10.977  0.0677 -0.0097 -0.2158
 1626W        W17095   9.652  10.598  14.191  0.0218  0.0297 -0.2591
 1627W        W17096  16.029  12.658   1.730 -0.1718 -0.3301 -0.0924
 1628W        W17097  16.119   8.783   3.832 -0.1362  0.1111  0.4187
 1629W        W17098  11.362  17.721  10.910 -0.2325  0.1138 -0.2739
 1630W        W17099   6.089  13.114  14.988 -0.0806  0.2736 -0.0046
 1631W        W17100  10.806   4.117   4.726  0.2302 -0.0262  0.1680
 1632W        W17101   0.919   0.568  11.914  0.0503 -0.5985 -0.1249
 1633W        W17102   9.381   3.476   0.748  0.0784 -0.2517 -0.3201
 1634W        W17103  12.462  14.404  11.486 -0.0935 -0.1227 -0.1896
 1635W        W17104   7.618  10.755  14.458  0.2197 -0.1348  0.1516
 1636W        W17105  14.277   6.185  10.439  0.2300 -0.0267 -0.1072
 1637W        W17106  16.665  16.450  12.066  0.0173 -0.2760 -0.0557
 1638W        W17107   3.106   5.732   9.945 -0.4529 -0.1342 -0.1259
 1639W        W17108   6.085  14.197   2.772  0.0366 -0.1947 -0.2708
 1640W        W17109   4.603  18.178   0.018 -0.0405 -0.3051 -0.1450
 1641W        W17110  12.716  17.791   2.286  0.2174 -0.0819 -0.0920
 1642W        W17111   8.781  13.267  11.824  0.0958  0.0786  0.3058
 1643W        W17112  12.867  14.892  12.163 -0.0308 -0.1661  0.0965
 1644W        W17113   1.103   6.040  13.043  0.4683  0.0424 -0.4063
 1645W        W17114   1.908  10.397  11.414 -0.1464 -0.0972 -0.1395
 1646W        W17115   9.194  12.505  13.662 -0.1317  0.0884  0.1972
 1647W        W17116  17.424  14.288  10.345  0.0061 -0.0513 -0.1427
 1648W        W17117   8.214   9.536   1.870 -0.1149 -0.1256  0.1509
 1649W        W17118   3.712  18.398  14.472  0.0075  0.2410 -0.0185
 1650W        W17119  15.778  13.193   1.599  0.2620 -0.6125  0.2234
 1651W        W17120  18.422   7.980  10.721  0.1867  0.1919  0.1680
 1652W        W17121   2.499   0.930   4.496 -0.1263 -0.1158 -0.0885
 1653W        W17122   1.553  13.223  13.310  0.0036  0.0144 -0.0897
 1654W        W17123  18.528   4.703   1.842 -0.1294  0.1229 -0.1248
 1655W        W17124  15.014  15.667  10.858  0.3861 -0.1639  0.2513
 1656W        W17125  11.296  16.055   2.323 -0.2627 -0.1740 -0.1330
 1657W        W17126  13.887  12.121  14.197  0.0692  0.2355  0.1126
 1658W        W17127   8.617  13.719  14.469  0.1995  0.5291  0.0638
 1659W        W17128   4.333   0.528  14.285 -0.0679 -0.0053  0.2753
 1660W        W17129  16.928  12.194   4.967  0.0193  0.1061 -0.2952
 1661W        W17130  15.369   1.514   0.559  0.3357 -0.2823 -0.2813
 1662W        W17131   9.311  16.558  14.675 -0.2577 -0.2816 -0.0849
 1663W        W17132   7.171  11.531  14.804  0.0154  0.0337  0.1256
 1664W        W17133   0.035   6.015   1.915  0.0684 -0.3261  0.0358
 1665W        W17134  13.790   6.590  13.242 -0.0579 -0.1840  0.1077
 1666W        W17135  10.912  18.231  13.273  0.0745  0.1839 -0.3310
 1667W        W17136   5.117   2.517   1.164  0.1123 -0.3807  0.0914
 1668W        W17137   3.913   6.813   1.209 -0.2990 -0.0171  0.0752
 1669W        W17138  16.121   0.817  13.446 -0.0359 -0.3441 -0.1811
 1670W        W17139   1.475  11.608  11.030 -0.2849 -0.1476 -0.4600
 1671W        W17140  11.384   8.696  14.280  0.3002  0.4707 -0.0076
 1672W        W17141   3.730   3.595  14.600  0.1780 -0.2989 -0.2654
 1673W        W17142   9.100  11.310   4.928  0.1236 -0.2154 -0.2904
 1674W        W17143  17.218   3.817   1.088 -0.1157  0.1152 -0.2205
 1675W        W17144  13.471   4.598  13.470  0.1197  0.1781 -0.3716
 1676W        W17145   3.486  12.866   4.538  0.3173 -0.3613 -0.1951
 1677W        W17146   4.955   8.194   2.925 -0.2258  0.0720  0.1719
 1678W        W17147  15.041   4.210  13.194  0.2267  0.1888  0.2376
 1679W        W17148   3.855   1.867   5.431  0.1696 -0.2347 -0.2098
 1680W        W17149  16.919  18.146  14.025  0.2668  0.0790 -0.1569
 1681W        W17150   3.057   0.137   4.181  0.0992 -0.2386 -0.0130
 1682W        W17151   9.272   0.381   3.485  0.3830  0.1512 -0.2303
 1683W        W17152   8.349   8.607   3.034  0.0087  0.4827  0.0136
 1684W        W17153  11.427   6.358   0.321 -0.4129 -0.0230 -0.1173
 1685W        W17154  14.146   7.983   0.895  0.1105 -0.0548  0.3605
 1686W        W17155   7.594   6.476   0.117 -0.2678 -0.1112 -0.1730
 1687W        W17156   4.674  18.924   0.489 -0.2859 -0.1006 -0.0634
 1688W        W17157   3.046  17.686   5.876 -0.0726 -0.2081  0.0218
 1689W        W17158   0.628   0.214  13.908  0.1920 -0.1910  0.3205
 1690W        W17159   7.712   0.271   4.794  0.1790  0.4070  0.0535
 1691W        W17160  11.138  13.692   4.671  0.0894 -0.0202  0.2458
 1692W        W17161   9.227   7.138   3.681  0.0812 -0.1001 -0.0944
 1693W        W17162  11.039  18.860  11.161  0.2460  0.3452  0.0775
 1694W        W17163  11.208   4.461   2.332  0.1402  0.0596 -0.0246
 1695W        W17164  11.537   9.911   0.037  0.0867 -0.1212  0.3197
 1696W        W17165  13.828   4.139   2.982 -0.0410  0.2247 -0.0763
 1697W        W17166   7.180  18.044   4.440  0.0383 -0.0607  0.4131
 1698W        W17167  12.094   9.766   2.503  0.1420 -0.2918  0.1553
 1699W        W17168   0.699  15.283   1.988 -0.0334 -0.0009 -0.3083
 1700W        W17169  17.771  12.264   0.946  0.0011  0.0778  0.0443
 1701W        W17170  15.216  11.226   1.887 -0.3525 -0.2312 -0.1709
 1702W        W17171  13.297   3.942   2.080  0.2470 -0.0845  0.1239
 1703W        W17172   1.535   6.293  14.506  0.0174  0.0741 -0.0231
 1704W        W17173  13.029   5.330   2.473  0.0945 -0.1860 -0.0935
 1705W        W17174  14.593   4.574  14.600  0.0978  0.1154  0.2844
 1706W        W17175  17.070   2.870  11.271 -0.1064  0.3157 -0.2256
 1707W        W17176   3.872   1.318  12.063  0.3797  0.1884  0.0856
 1708W        W17177   8.066   9.669   0.290  0.0233  0.1275  0.0765
 1709W        W17178   5.539  14.848   5.456 -0.0513  0.2833  0.2833
 1710W        W17179   8.884   1.591  11.475 -0.4711 -0.1390 -0.0889
 1711W        W17180   1.583   0.703   1.117 -0.0112 -0.1265 -0.0216
 1712W        W17181  16.676   8.201   4.246  0.2844 -0.2193 -0.0470
 1713W        W17182   2.863  11.340  11.000 -0.1397 -0.0487  0.1436
 1714W        W17183   6.913   6.338  11.146 -0.3259  0.0709  0.0690
 1715W        W17184  17.345  13.565   5.378  0.0112  0.2421  0.0184
 1716W        W17185  18.754  15.783  11.381  0.1233  0.2504 -0.1862
 1717W        W17186  14.972   9.784  14.145  0.0362  0.0906  0.1265
 1718W        W17187   9.689  17.583  13.979  0.2141  0.1037  0.0910
 1719W        W17188  17.742  18.178   4.250 -0.1245  0.3244  0.0231
 1720W        W17189  15.275   8.172  11.900  0.0083  0.1757 -0.1681
 1721W        W17190   7.386   3.591   2.494 -0.1139 -0.2223  0.0503
 1722W        W17191   0.137   0.109   2.944 -0.1872  0.0282 -0.3349
 1723W        W17192   7.464  14.301   3.326  0.2620  0.2357  0.1564
 1724W        W17193  15.869   5.627   4.424  0.1417  0.3012  0.0052
 1725W        W17194   4.966   7.987   9.807  0.2837 -0.2230 -0.0647
 1726W        W17195   6.910   7.158   1.803  0.0990  0.1137 -0.2426
 1727W        W17196  15.893  11.975   3.838 -0.3755  0.2009 -0.2446
 1728W        W17197  10.161  11.216   5.242  0.0787 -0.1349 -0.2262
 1729W        W17198  12.595  13.348   0.669  0.3260 -0.1843  0.0131
 1730W        W17199   6.242  13.351   2.175 -0.2397  0.2463 -0.1591
 1731W        W17200  17.290  16.968   4.318  0.2560 -0.1071  0.3498
 1732W        W17201   9.378  17.019  14.498  0.0772 -0.0315 -0.1130
 1733W        W17202  18.272  17.153  14.647  0.1565 -0.2856 -0.1154
 1734W        W17203  10.919   4.464   1.474  0.1833  0.1950 -0.3042
 1735W        W17204  14.005  10.721  13.713  0.3497 -0.2626  0.2634
 1736W        W17205  10.622   5.947   3.259 -0.0958  0.0836 -0.3370
 1737W        W17206   3.529  12.873   1.708  0.0564  0.2190 -0.1955
 1738W        W17207  12.573  16.159  12.112  0.0037 -0.0547 -0.1142
 1739W        W17208  14.957  17.793   1.514 -0.2077 -0.3344  0.1752
 1740W        W17209  11.256   5.627   1.770 -0.2346 -0.0804  0.2671
 1741W        W17210  12.646   3.630   4.377  0.0647  0.0699 -0.6431
 1742W        W17211  13.088  14.290   2.799  0.0313  0.1051 -0.0626
 1743W        W17212  18.640   1.055  15.348  0.0236 -0.0567 -0.3232
 1744W        W17213   3.761  16.763   0.860 -0.3269 -0.0264  0.0197
 1745W        W17214   1.346   2.398   1.490 -0.3262 -0.1021 -0.0236
 1746W        W17215   6.261   2.271   6.257  0.1463 -0.4356 -0.2460
 1747W        W17216  15.142  10.186  15.209 -0.0279  0.0103  0.0527
 1748W        W17217  15.840  14.684   2.181 -0.3754 -0.1242 -0.1702
 1749W        W17218   8.041  14.479   1.476 -0.4266 -0.1584  0.1698
 1750W        W17219  15.183  15.879  12.673  0.0656 -0.0911  0.0351
 1751W        W17220   9.452  16.542  11.722 -0.0193  0.1383  0.1183
 1752W        W17221   2.043   3.904  12.969 -0.0843 -0.0185 -0.3677
 1753W        W17222  12.068  14.501  14.705  0.2951  0.2467  0.0489
 1754W        W17223  13.904   2.848  12.834  0.1681 -0.0951 -0.0193
 1755W        W17224  11.460   1.309   0.466 -0.0842 -0.0317  0.2882
 1756W        W17225   9.998  16.257  12.907 -0.1862 -0.1284 -0.0077
 1757W        W17226  18.321   5.628   5.132 -0.0419 -0.0151  0.0936
 1758W        W17227  11.351  11.068   0.367 -0.1188  0.1104 -0.1407
 1759W        W17228  14.652   1.721  11.345  0.0022 -0.1760  0.0099
 1760W        W17229   7.169   4.062   9.667  0.1171  0.2539  0.1314
 1761W        W17230   3.418   6.500   3.154 -0.0834  0.0891 -0.1404
 1762W        W17231   8.148   5.090  11.446 -0.2830 -0.0147 -0.1539
 1763W        W17232   2.147   1.876   2.788  0.0359 -0.3081  0.0279
 1764W        W17233  15.494  17.217   3.839  0.0759 -0.1553  0.0023
 1765W        W17234   0.044   9.650  13.533 -0.2808 -0.0949  0.0782
 1766W        W17235   0.711   5.307  11.009 -0.0530 -0.0594 -0.4085
 1767W        W17236   5.087   6.755   4.834  0.1703  0.0831 -0.0106
 1768W        W17237   2.858   5.113   4.561  0.5398  0.0869 -0.1661
 1769W        W17238   1.802  14.295  13.077  0.1083  0.3936 -0.0987
 1770W        W17239  16.355  14.822   0.852 -0.2656 -0.2552 -0.1177
 1771W        W17240  17.144  17.764   0.362 -0.2142  0.1221 -0.0542
 1772W        W17241  18.841   1.108   0.414 -0.1953  0.2881  0.2244
 1773W        W17242   2.903  14.221   4.028 -0.0018 -0.0630  0.3805
 1774W        W17243   0.702   8.135  11.982  0.0432  0.1888 -0.1890
 1775W        W17244   4.565   5.467  13.311  0.0083 -0.3003 -0.2211
 1776W        W17245  17.958   5.720  10.991  0.1128 -0.2437  0.4084
 1777W        W17246   3.464  15.051   3.467 -0.3159  0.1602  0.1535
 1778W        W17247   7.454  14.887  12.267 -0.0652  0.2229 -0.3689
 1779W        W17248   4.638  16.592  11.870 -0.0303 -0.0236 -0.0614
 1780W        W17249  17.904   5.807   1.257 -0.3160  0.0260  0.1135
 1781W        W17250  11.349  12.613  10.698  0.1163  0.1568 -0.2668
 1782W        W17251   8.758   8.812   1.368  0.0197 -0.1930  0.0816
 1783W        W17252  18.368   5.933  10.695 -0.1559  0.1259 -0.1236
 1784W        W17253  12.897   4.046   1.645 -0.0682 -0.0397  0.1722
 1785W        W17254  14.073   1.436  15.067 -0.1582  0.3431  0.2081
 1786W        W17255   5.700  13.780   4.479 -0.0913  0.1060 -0.1876
 1787W        W17256   8.191   3.258   2.482 -0.2051  0.1136  0.0104
 1788W        W17257   5.170  15.026  10.663  0.1575  0.2033  0.0961
 1789W        W17258   2.518  16.893   0.780  0.2285 -0.3856 -0.2313
 1790W        W17259  18.450  17.474   4.120  0.1596  0.1121  0.2904
 1791W        W17260   2.793   4.798  11.649 -0.2402  0.0845 -0.1095
 1792W        W17261   4.675  16.524   1.260  0.2169  0.0713 -0.0216
 1793W        W17262   2.838  14.526  11.971  0.2547  0.2275 -0.0416
 1794W        W17263   9.756  16.962   0.955 -0.0131  0.1323 -0.0857
 1795W        W17264  18.087  14.153   4.702 -0.0484 -0.1068  0.1511
 1796W        W17265  10.978   9.134  13.742  0.5059  0.1909  0.2280
 1797W        W17266  13.599  13.212   3.767 -0.3424  0.1107  0.1860
 1798W        W17267   6.479   9.416   3.797  0.0668 -0.0027 -0.0748
 1799W        W17268   8.840   8.638  15.320  0.0781 -0.2461 -0.1698
 1800W        W17269   4.974  11.260   0.500 -0.0702  0.4929  0.0491
 1801W        W17270  16.165   3.148   0.560  0.1158 -0.1963  0.0583
 1802W        W17271  18.480   2.265  10.896  0.2008  0.2808 -0.1592
 1803W        W17272  16.597   7.858  11.653 -0.0236 -0.1640  0.0601
 1804W        W17273  14.971   8.767  15.474 -0.1110  0.1391  0.1423
 1805W        W17274  12.340  17.286  13.981 -0.0108 -0.2859 -0.0693
 1806W        W17275   4.884  17.132  14.838  0.0752 -0.0902 -0.0168
 1807W        W17276   3.043  14.748   4.131  0.0474 -0.1927  0.0254
 1808W        W17277   0.699  11.303  12.181 -0.1053 -0.0187 -0.1410
 1809W        W17278   5.522   3.969  11.191  0.1192 -0.0495  0.2087
 1810W        W17279  10.775  10.166  11.306  0.1598 -0.2412  0.0444
 1811W        W17280   7.713   5.800  13.760  0.0594 -0.2516 -0.0404
 1812W        W17281   6.415   9.740  11.732  0.1809 -0.2548  0.0803
 1813W        W17282  15.014   5.012   1.293 -0.1786 -0.1279  0.4599
 1814W        W17283  16.924   6.934  14.071  0.1141  0.0833  0.2478
 1815W        W17284  17.503   1.305  11.440  0.0611  0.0413  0.1124
 1816W        W17285   9.321  12.811   4.488  0.0069 -0.4587  0.1099
 1817W        W17286  12.401   0.513   0.267 -0.2559  0.1188 -0.2178
 1818W        W17287   3.533   6.019   0.611 -0.2030 -0.2067  0.0002
 1819W        W17288   4.686  11.078   0.158 -0.0473 -0.2262 -0.2164
 1820W        W17289  18.496   6.969  15.204 -0.0256 -0.0379 -0.1815
 1821W        W17290  14.384   1.012   3.174 -0.1845 -0.0954 -0.0494
 1822W        W17291  15.157   0.035   0.362 -0.1449 -0.1350 -0.3722
 1823W        W17292   2.940   7.219   3.268  0.2369  0.0564 -0.1548
 1824W        W17293  17.210  12.412   5.319  0.2795 -0.1485 -0.3026
 1825W        W17294   7.202  11.408   9.955  0.0288  0.0187  0.0277
 1826W        W17295   7.137   5.470   1.487 -0.1116  0.2264 -0.0740
 1827W        W17296  17.086  15.294   0.468 -0.2851  0.3106  0.5206
 1828W        W17297  15.271  17.708  13.021  0.1084  0.3899  0.1204
 1829W        W17298  18.264   2.844  12.115  0.2595 -0.1904  0.0746
 1830W        W17299  12.176   0.103  14.136  0.2283  0.1011  0.3772
 1831W        W17300  12.996   4.333  11.001 -0.2231 -0.0286  0.2202
 1832W        W17301  12.074   7.017   3.982 -0.1267 -0.4728  0.2178
 1833W        W17302  12.368  14.339   4.547  0.0317 -0.2321 -0.0237
 1834W        W17303   8.770   4.489  13.876  0.0341  0.0956 -0.1409
 1835W        W17304   2.819   5.964   1.359  0.1591  0.0880  0.1333
 1836W        W17305   7.378   8.053  11.677  0.0612 -0.0419 -0.0092
 1837W        W17306   6.357  15.001   4.218  0.0696 -0.0231 -0.3204
 1838W        W17307   6.932   0.509   1.318  0.1071 -0.0675  0.0493
 1839W        W17308  12.397   6.147   4.274  0.2584  0.0283  0.0002
 1840W        W17309   6.338   1.644  11.971  0.0291 -0.0942 -0.0292
 1841W        W17310  10.605  15.142  14.598  0.0906 -0.2688 -0.1285
 1842W        W17311   6.240  10.770   4.603 -0.0792  0.1263  0.1373
 1843W        W17312  10.774   0.350   2.087 -0.1955  0.0447  0.0415
 1844W        W17313  15.310  17.865  10.456 -0.3090  0.1158  0.1458
 1845W        W17314   3.960  16.916   3.199  0.5178 -0.0315  0.0986
 1846W        W17315   5.549   6.226  13.824 -0.1250  0.0064 -0.0744
 1847W        W17316   0.909   7.263  12.161  0.0909  0.1040 -0.0580
 1848W        W17317  10.079   1.867   2.858  0.2291  0.1510  0.1160
 1849W        W17318  12.037  18.831  15.008  0.1441  0.0555  0.1901
 1850W        W17319  18.548  14.264   5.570  0.2272 -0.1304 -0.4256
 1851W        W17320  15.207  13.702   1.978 -0.0544  0.2129  0.2326
 1852W        W17321   5.093  11.968  14.248 -0.1103  0.0199 -0.3013
 1853W        W17322  13.217  13.455  14.711 -0.2189  0.0832  0.0847
 1854W        W17323  15.770   0.454  11.702 -0.2555 -0.0002  0.5133
 1855W        W17324  10.481  13.630   0.669  0.1414 -0.1345  0.1246
 1856W        W17325   7.485   2.842   3.096 -0.1972  0.0751 -0.0483
 1857W        W17326   9.786   8.222  12.083 -0.3816 -0.3704 -0.0884
 1858W        W17327  15.540   4.369   1.287 -0.2260  0.0966  0.0462
 1859W        W17328   4.463   9.756   5.169  0.1509 -0.0964  0.3256
 1860W        W17329  15.905   3.106   5.485  0.0153  0.2665  0.1206
 1861W        W17330   3.421  11.029  12.848 -0.2289 -0.1422 -0.0981
 1862W        W17331   7.594   3.096  10.734 -0.0868 -0.2776 -0.2677
 1863W        W17332  15.262   2.900   0.641  0.1470 -0.1347  0.0500
 1864W        W17333   3.447   5.654   9.613  0.2404 -0.1726 -0.2003
 1865W        W17334   1.806  16.302   6.137  0.4702  0.1998 -0.4163
 1866W        W17335  18.210   6.727   3.365 -0.2491  0.0396 -0.2295
 1867W        W17336  15.756   0.055  15.081 -0.0684  0.0725  0.0408
 1868W        W17337  16.302  16.990  12.009 -0.2749  0.0564  0.1724
 1869W        W17338  16.895   0.294   3.793 -0.0733  0.1206 -0.4424
 1870W        W17339  17.102   5.288   4.538 -0.0116 -0.2181  0.4454
 1871W        W17340   0.377  11.818   3.136 -0.1512 -0.1062  0.2084
 1872W        W17341  10.301   6.581   1.570  0.0326 -0.3828  0.0432
 1873W        W17342   3.342   4.227  14.523 -0.0251  0.0314 -0.1189
 1874W        W17343  11.016  17.292  13.534 -0.1420 -0.2102 -0.1272
 1875W        W17344  16.825   8.476   3.283 -0.0765  0.0781 -0.1596
 1876W        W17345   5.031   4.074   2.639 -0.1738  0.1044  0.0799
 1877W        W17346   7.801   1.679  10.643  0.1324 -0.0890  0.2620
 1878W        W17347  15.696  14.475  10.849 -0.0939 -0.1107 -0.0356
 1879W        W17348   4.213  11.867   1.967  0.0473 -0.1491 -0.5076
 1880W        W17349  15.809   9.652   4.002 -0.1977  0.2476  0.0896
 1881W        W17350  15.348   6.007   3.826 -0.0683 -0.1853 -0.3152
 1882W        W17351   4.726  18.779   2.789 -0.2365 -0.1474 -0.1737
 1883W        W17352  12.241   6.615   1.968 -0.0280 -0.0729 -0.1988
 1884W        W17353  15.680   9.472  13.565  0.1799 -0.0718  0.0750
 1885W        W17354  14.297   5.334   1.475 -0.1143 -0.0970 -0.0032
 1886W        W17355   5.526   6.118   2.963  0.0466 -0.0704  0.3068
 1887W        W17356  15.888  11.912   3.327 -0.2171 -0.0016 -0.1207
 1888W        W17357   1.805   6.046   3.588 -0.0794  0.0038  0.0453
 1889W        W17358  11.852   9.821   3.085 -0.0030  0.0789 -0.0992
 1890W        W17359  18.737  10.962   1.573  0.1137 -0.1176  0.2311
 1891W        W17360  17.110   2.172   0.939  0.0504  0.1184 -0.2103
 1892W        W17361   7.907  12.883  12.880 -0.1305  0.1267 -0.0616
 1893W        W17362   1.426   6.877   5.224 -0.3653  0.1213 -0.0723
 1894W        W17363  10.852  16.594  15.501  0.0978  0.0193  0.0410
 1895W        W17364   3.284  16.026   3.835  0.0634 -0.0309  0.2898
 1896W        W17365  10.703   4.220   3.033 -0.0905 -0.1201 -0.1089
 1897W        W17366  10.095   8.601  15.096 -0.0455 -0.2443 -0.2339
 1898W        W17367  11.727  14.496   5.241 -0.1952 -0.0515 -0.3446
 1899W        W17368   1.015   4.893  15.131 -0.3683 -0.0489  0.0555
 1900W        W17369   5.948  13.892   1.113 -0.0397  0.1521  0.3166
 1901W        W17370   8.441  11.056  14.979 -0.0469 -0.0661  0.1123
 1902W        W17371   9.858   5.266   5.213 -0.1181  0.0551  0.1455
 1903W        W17372  12.505   0.419   3.613  0.0425  0.0041  0.4051
 1904W        W17373   7.606   7.266  11.720 -0.0520 -0.0856  0.1061
 1905W        W17374   0.253   6.297   1.339  0.1616 -0.2177  0.1055
 1906W        W17375  10.704   2.233   4.567 -0.2595 -0.0843  0.2147
 1907W        W17376  15.179   4.965   4.430 -0.0222  0.1317  0.0342
 1908W        W17377   4.082  14.843  12.137  0.1700 -0.0979  0.0391
 1909W        W17378   8.465  14.466   5.960 -0.0405 -0.2708  0.2218
 1910W        W17379  16.231   3.640   2.110  0.1036  0.0228  0.3344
 1911W        W17380  11.597   3.206   3.471 -0.0724 -0.2947 -0.0513
 1912W        W17381   1.888  17.936  10.535 -0.0877 -0.2469  0.0788
 1913W        W17382   0.773   7.020   1.041  0.0222 -0.2270 -0.1777
 1914W        W17383  18.788  13.812  11.641 -0.5819 -0.0395  0.1180
 1915W        W17384   1.397   1.749   5.208  0.0415  0.3451  0.1094
 1916W        W17385  11.497  10.820   1.662 -0.0141 -0.2609  0.2035
 1917W        W17386   0.923   3.297   4.672 -0.1829 -0.1878  0.0279
 1918W        W17387  12.235  13.868   2.270  0.1677 -0.2218  0.1203
 1919W        W17388  11.575  18.649  13.530  0.2048 -0.1602 -0.3845
 1920W        W17389  10.683   6.400  10.959  0.1355  0.1766 -0.1635
 1921W        W17390   9.106   8.868   9.417  0.1162  0.0116 -0.1416
 1922W        W17391  17.897   9.932  10.519  0.0894 -0.1931  0.3955
 1923W        W17392   9.103  18.721  14.486  0.0328 -0.1335  0.2754
 1924W        W17393   1.905   9.098   4.180  0.0861 -0.3486 -0.3308
 1925W        W17394   2.274  11.674  14.148 -0.2008  0.3482  0.2087
 1926W        W17395  16.442   1.457   2.761  0.0554  0.0092  0.3387
 1927W        W17396  18.147   3.061  10.195 -0.0230 -0.1440  0.2354
 1928W        W17397  16.695   8.906   0.523  0.1462  0.0630 -0.1396
 1929W        W17398  16.871   5.604   4.954 -0.3464  0.1925  0.1735
 1930W        W17399   4.948   2.490  11.206 -0.0171  0.0035  0.1139
 1931W        W17400  18.289  16.991   2.252  0.0956  0.1894 -0.0391
 1932W        W17401  15.281  14.645  11.186 -0.1599  0.0212  0.3008
 1933W        W17402   5.815  11.576  14.262 -0.1514  0.0826 -0.0308
 1934W        W17403   0.310   4.766   0.884 -0.0414 -0.5644  0.0967
 1935W        W17404  15.630  14.176  13.015  0.1948  0.3063  0.3108
 1936W        W17405   4.792  11.309  13.188 -0.2390 -0.1142 -0.2406
 1937W        W17406  13.008   1.187  14.117 -0.0917 -0.1673  0.3026
 1938W        W17407   1.019  10.093  10.580 -0.2867  0.2290 -0.0286
 1939W        W17408  11.548   5.880   3.801 -0.2124 -0.0571 -0.0826
 1940W        W17409  13.540   4.936  15.353  0.2598  0.1412 -0.1618
 1941W        W17410  11.297  12.730   0.145 -0.4483 -0.0254  0.1748
 1942W        W17411   3.934  17.488   5.009 -0.1380 -0.0707  0.3917
 1943W        W17412   2.055   6.689   3.849  0.2752 -0.1260 -0.1854
 1944W        W17413  16.325   2.369  10.882 -0.1051  0.1595  0.1483
 1945W        W17414   7.336   8.872   1.257  0.1160 -0.0280 -0.1345
 1946W        W17415  15.248  17.985   0.280 -0.0714  0.0710  0.1388
 1947W        W17416  17.300   5.460   0.219 -0.2035 -0.2145  0.1288
 1948W        W17417   3.357  11.780  13.384  0.1481 -0.2620  0.0185
 1949W        W17418   3.205  11.506  12.691 -0.1859 -0.2030  0.2196
 1950W        W17419  13.677   0.833  13.600  0.3814 -0.0534 -0.0463
 1951W        W17420  17.237   6.359   2.913  0.2328  0.1425  0.0144
 1952W        W17421   0.651   4.011   3.872  0.0005  0.0498  0.2816
 1953W        W17422   9.553   2.531   0.947  0.0397  0.0949 -0.0399
 1954W        W17423  12.237   3.619   1.777  0.1973  0.1928 -0.2279
 1955W        W17424  11.330   5.983  11.740 -0.0369 -0.2733 -0.2536
 1956W        W17425   3.068  12.972   1.645  0.2814  0.0252 -0.0195
 1957W        W17426   4.453   3.549   2.086  0.0706  0.1935 -0.0866
 1958W        W17427  18.830   0.582   0.356  0.2158 -0.0297  0.1553
 1959W        W17428  13.555  14.462   0.980  0.0127 -0.0200  0.1976
 1960W        W17429   9.257  16.463  10.759 -0.0804 -0.1254  0.2372
 1961W        W17430  18.316   5.491   9.654 -0.0205  0.1794  0.4020
 1962W        W17431   2.071  16.097  12.261  0.1808 -0.1529 -0.0078
 1963W        W17432   0.475  13.136  11.923  0.2431 -0.0680 -0.1190
 1964W        W17433  16.127   0.671   1.017 -0.1130 -0.0349  0.0305
 1965W        W17434  14.991  18.249   1.249 -0.0644 -0.1762  0.0609
 1966W        W17435  10.487  15.519  10.264 -0.1036  0.0345 -0.2994
 1967W        W17436   5.854  17.563   4.679 -0.0287  0.0881 -0.1776
 1968W        W17437   0.717   6.969  15.258  0.3035  0.2982 -0.3335
 1969W        W17438  10.563   9.869  12.066  0.3915  0.0174 -0.0857
 1970W        W17439   8.129   2.385  13.815  0.2146 -0.2449 -0.0987
 1971W        W17440  11.852  18.536   4.909 -0.0778 -0.4024 -0.1771
 1972W        W17441   8.125   0.742  13.838 -0.0308 -0.1088 -0.1613
 1973W        W17442   0.573  17.287  12.277 -0.0791  0.0970 -0.0450
 1974W        W17443   7.624   6.174   0.958 -0.0016  0.0136  0.0356
 1975W        W17444  15.742   4.951  15.216 -0.2701 -0.2013 -0.3048
 1976W        W17445   7.112  13.796  15.134  0.1014 -0.1709  0.0705
 1977W        W17446   7.620  18.828   2.444  0.0955  0.0622  0.0766
 1978W        W17447  18.120   6.253   5.221  0.2078  0.2286  0.1817
 1979W        W17448  16.464  15.194  13.613 -0.5078  0.4155 -0.0489
 1980W        W17449  13.129  18.691  12.410 -0.1362 -0.0768 -0.0843
 1981W        W17450  17.568   5.027   3.013  0.0354 -0.1801 -0.0803
 1982W        W17451  15.177   3.550   4.102 -0.2289  0.4357 -0.1951
 1983W        W17452   7.961   4.269   9.568  0.2168  0.0012  0.0751
 1984W        W17453   8.683  15.236   4.670 -0.3491 -0.1922  0.3164
 1985W        W17454   7.561   1.915  10.225  0.0079  0.3420 -0.1536
 1986W        W17455   9.648   7.475   2.162  0.0085 -0.0195 -0.2585
 1987W        W17456   4.669  15.357  10.929 -0.3055 -0.1003  0.0940
 1988W        W17457  13.052   3.394  12.637  0.1008  0.4426 -0.0632
 1989W        W17458   3.632   8.334   2.661  0.5747  0.2930 -0.1172
 1990W        W17459   5.223  11.355  13.542 -0.0926 -0.4464 -0.0353
 1991W        W17460  16.689   3.049  15.396 -0.0760 -0.0640 -0.0295
 1992W        W17461  11.673   6.409  13.838 -0.0600 -0.1890  0.3325
 1993W        W17462  17.216   5.387   2.591  0.2128 -0.0131  0.1219
 1994W        W17463   5.163  11.124  14.553 -0.2396 -0.0231  0.2498
 1995W        W17464   1.175  11.530  12.416 -0.2663  0.0242  0.2661
 1996W        W17465   7.549  10.574  13.941 -0.3750 -0.0585  0.0461
 1997W        W17466   5.601  18.881   0.584  0.3143 -0.1969 -0.0466
 1998W        W17467  11.313  17.022   5.510 -0.0069  0.0275  0.1013
 1999W        W17468  10.342  11.891   3.128 -0.3007  0.2199  0.0588
 2000W        W17469  17.046   7.335   3.228 -0.1493 -0.4189  0.2335
 2001W        W17470   6.494   3.775   3.894  0.1284  0.1520 -0.2551
 2002W        W17471   3.070  11.366  13.667 -0.0726 -0.1191  0.2116
 2003W        W17472   5.167  11.112  15.153  0.2672  0.1625  0.0845
 2004W        W17473   3.973  11.425  10.960 -0.1439  0.2899  0.2360
 2005W        W17474  12.151   3.822  14.523 -0.1968 -0.1983 -0.1270
 2006W        W17475   1.142   6.608   0.247 -0.0446 -0.1497  0.1137
 2007W        W17476   6.388   5.692  14.019  0.1612  0.2021  0.3036
 2008W        W17477   7.089  12.993   3.202  0.1035 -0.0690  0.0422
 2009W        W17478   1.759   6.085  12.761 -0.1108  0.1211 -0.0364
 2010W        W17479  16.703   7.244   2.723  0.1014  0.2411 -0.2207
 2011W        W17480  16.385   1.771   4.677  0.0937 -0.2209 -0.1828
 2012W        W17481   2.446  18.630   2.051 -0.0768  0.0604  0.2128
 2013W        W17482  15.761   1.223   4.159  0.0634 -0.1074 -0.1617
 2014W        W17483   1.761  15.174   2.400  0.0687 -0.1405  0.3073
 2015W        W17484   6.290  10.527   6.025  0.1340 -0.0939  0.1359
 2016W        W17485  12.039   8.649  10.708 -0.0576 -0.1423 -0.0744
 2017W        W17486  18.567  17.459   2.161  0.2276 -0.1192  0.0322
 2018W        W17487  13.178  12.344  12.022 -0.0745 -0.1659 -0.0344
 2019W        W17488   0.586   3.063  15.498 -0.0164  0.1109 -0.1962
 2020W        W17489  17.229  11.836  11.917 -0.0736  0.4699  0.0586
 2021W        W17490   7.081  16.781  13.033  0.0142 -0.0160 -0.0084
 2022W        W17491   1.483  13.387  15.278  0.0232 -0.1784  0.0639
 2023W        W17492  11.705  15.227  11.324 -0.2961 -0.0016 -0.0607
 2024W        W17493   7.833  13.790   4.050  0.1073  0.2387  0.2981
 2025W        W17494   5.836  18.652   5.169 -0.0791  0.1377 -0.4833
 2026W        W17495   7.703  11.159   2.105 -0.2113 -0.1418 -0.1919
 2027W        W17496   5.589   2.965   4.589 -0.0094  0.0411 -0.1319
 2028W        W17497  13.022   9.954   0.281 -0.1178 -0.0371 -0.2931
 2029W        W17498   7.397   9.962   2.151 -0.2252 -0.1244  0.1610
 2030W        W17499   2.337  17.335   5.049 -0.1031 -0.1022 -0.0591
 2031W        W17500  13.066   5.107   0.371  0.1632  0.0980  0.2937
 2032W        W17501  11.034  10.124   4.848  0.3689  0.1421  0.1164
 2033W        W17502  13.895   4.425   4.160  0.0575  0.1144 -0.0041
 2034W        W17503   6.897  11.227   3.485 -0.2270  0.0359  0.1205
 2035W        W17504  14.232   9.655  12.804 -0.2001  0.0515 -0.2721
 2036W        W17505  14.978   0.699  12.526  0.0319 -0.2251  0.0044
 2037W        W17506   3.746   8.059  13.190  0.1144  0.3575  0.1555
 2038W        W17507   4.958   8.713   4.110 -0.0820  0.2361  0.0332
 2039W        W17508  11.825   7.442   3.828  0.0498 -0.0446 -0.3372
 2040W        W17509  17.684   5.384  15.217 -0.1807 -0.1185 -0.3054
 2041W        W17510   5.337  15.436   0.696 -0.1674  0.3071  0.0844
 2042W        W17511   3.323   2.269   9.710  0.0817  0.2581  0.2780
 2043W        W17512  13.599  12.880  12.178  0.2450 -0.0016 -0.0740
 2044W        W17513   8.524  10.353  15.391  0.1305  0.0977  0.1167
 2045W        W17514  10.165   1.631  12.321  0.0425 -0.0733 -0.0696
 2046W        W17515  16.287   4.256   0.161  0.3908 -0.1498  0.0527
 2047W        W17516   5.356   2.467   3.288  0.1818 -0.1891 -0.2561
 2048W        W17517   6.186   6.964  11.111 -0.0970  0.0914  0.0113
 2049W        W17518  16.634   2.321   2.707  0.0038 -0.0556 -0.4789
 2050W        W17519  13.567   1.379  11.489  0.1923 -0.0625 -0.1037
 2051W        W17520  18.738   1.252  14.454  0.2569  0.1020 -0.0115
 2052W        W17521  10.467  17.675  10.425 -0.2927 -0.3123 -0.2684
 2053W        W17522  17.211  10.480   2.871 -0.2114  0.0625  0.6211
 2054W        W17523   5.846   7.966  10.879  0.3671  0.4090  0.4058
 2055W        W17524   9.179   4.916   2.091 -0.0017 -0.1252 -0.1128
 2056W        W17525  10.114   9.901   4.440 -0.0987  0.5382 -0.0295
 2057W        W17526  14.684   9.595  11.598  0.2488 -0.1885  0.3028
 2058W        W17527   3.126  12.563   2.543  0.1624  0.0924  0.3273
 2059W        W17528   4.428  11.426  14.197  0.2476  0.0176 -0.2164
 2060W        W17529   7.545   0.836   3.626 -0.1210 -0.0486  0.2038
 2061W        W17530  12.058   8.048  11.065 -0.1104 -0.0450 -0.3989
 2062W        W17531   9.182  12.629   2.357 -0.0754  0.2463  0.1514
 2063W        W17532  10.852   3.676   0.273  0.4433 -0.1755  0.2237
 2064W        W17533   0.216  10.666  12.799 -0.2035  0.0026  0.2046
 2065W        W17534  18.566  14.600  12.975 -0.2030  0.1923  0.1053
 2066W        W17535  18.050   8.398  10.723  0.3134 -0.2661 -0.3163
 2067W        W17536  10.095  11.923   3.724  0.0765 -0.2225 -0.0952
 2068W        W17537   9.957  10.240  11.512  0.0108  0.1383  0.0471
 2069W        W17538   7.173  12.301  12.467 -0.0303 -0.0208 -0.0916
 2070W        W17539  16.351  12.411   4.238  0.0331 -0.0936  0.3134
 2071W        W17540   3.515  12.385   9.956  0.0587 -0.3236 -0.1174
 2072W        W17541  10.977   3.191  11.910  0.2633  0.4393 -0.1013
 2073W        W17542   7.771   8.183  11.257  0.0121  0.4676 -0.0706
 2074W        W17543   8.391  15.599  15.401  0.1540  0.0943  0.2230
 2075W        W17544   6.635  12.887   2.831 -0.3104  0.2009 -0.4564
 2076W        W17545  12.530   0.704  10.232  0.1161 -0.1145  0.0247
 2077W        W17546   4.641   5.482  11.988  0.1524 -0.2366  0.5907
 2078W        W17547   0.137  14.877  11.111  0.2871  0.0347 -0.1132
 2079W        W17548   3.239   8.079  13.407  0.2433  0.0258  0.1153
 2080W        W17549   5.864   9.326  14.197 -0.2014 -0.0755 -0.3134
 2081W        W17550   9.521  17.215   4.434 -0.2335 -0.2521 -0.1119
 2082W        W17551   4.580   2.746   2.019  0.1969 -0.3106 -0.0727
 2083W        W17552   8.956   0.885  11.209 -0.0287 -0.3455  0.1482
 2084W        W17553  10.713   5.165   2.651 -0.0679 -0.0341 -0.1399
 2085W        W17554   6.804   1.818  12.215  0.1396 -0.0928 -0.1572
 2086W        W17555   4.149  15.076  13.835 -0.1763 -0.0970  0.0875
 2087W        W17556  18.938   5.476   3.672  0.0327 -0.0374  0.0210
 2088W        W17557   6.408   0.030   0.259 -0.3860 -0.0079 -0.0275
 2089W        W17558   9.612  15.531   5.095 -0.1393  0.0607 -0.0037
 2090W        W17559   7.244  17.541   2.720 -0.1622  0.4663  0.0199
 2091W        W17560   5.145   8.377  11.180  0.1849  0.0472 -0.2540
 2092W        W17561  12.694   9.258   0.773  0.0307  0.3246 -0.2475
 2093W        W17562   5.434  13.697   3.443 -0.0769  0.1330  0.1437
 2094W        W17563  18.592   1.041   5.389 -0.3757  0.0927 -0.0120
 2095W        W17564   3.382  13.964  11.055  0.1090 -0.0815  0.0073
 2096W        W17565   3.314  12.384   5.083 -0.2855  0.0618 -0.2210
 2097W        W17566  18.036   9.660  14.921  0.5008 -0.2605 -0.2814
 2098W        W17567  12.013  15.617   3.837 -0.0479  0.2537 -0.0744
 2099W        W17568  14.004   0.248  12.749  0.4278  0.1950  0.0131
 2100W        W17569  10.908   8.509   1.714 -0.0781  0.1828  0.0003
 2101W        W17570  13.126  15.998  12.898  0.0976  0.2304 -0.1642
 2102W        W17571   1.217   1.817   4.106 -0.0738 -0.1960  0.0006
 2103W        W17572  15.651   3.999  12.201  0.1090 -0.2406  0.2822
 2104W        W17573   2.551   1.982  15.316  0.0734 -0.0094 -0.0670
 2105W        W17574  16.156   4.449  11.863  0.2345  0.2361 -0.1150
 2106W        W17575   0.264   6.338  11.033  0.2044  0.0555  0.1872
 2107W        W17576   1.873   0.126   1.441  0.1564  0.1515  0.0634
 2108W        W17577   9.580   4.953   3.378  0.2154  0.1427 -0.1576
 2109W        W17578  16.572   5.303  14.040 -0.0932  0.1478 -0.1064
 2110W        W17579   3.653   7.616  10.774 -0.0758  0.1914 -0.4667
 2111W        W17580   1.819   9.514   3.935 -0.0904 -0.0058 -0.1279
 2112W        W17581  14.432   6.869  12.542  0.3520  0.0720 -0.1923
 2113W        W17582  13.442  14.909   5.942 -0.2107  0.0811 -0.1484
 2114W        W17583   7.838   5.832  14.810 -0.1690 -0.1249  0.2450
 2115W        W17584  14.578  12.890   2.934  0.1418  0.1345  0.2410
 2116W        W17585  14.055  10.303  13.065  0.1006 -0.2781 -0.1547
 2117W        W17586   7.171   6.537  15.401 -0.1050  0.2675 -0.1009
 2118W        W17587   4.387   8.529  12.763  0.0707  0.1761  0.2224
 2119W        W17588  12.546   1.443  14.239  0.0430  0.1057  0.2487
 2120W        W17589  16.634   9.582  13.770  0.0642  0.1153 -0.3111
 2121W        W17590  18.058  14.664  12.942  0.3208  0.0997 -0.1547
 2122W        W17591   9.465   5.446  14.759 -0.1342  0.1727  0.1000
 2123W        W17592   0.119   5.252   2.763  0.1299 -0.1902  0.2439
 2124W        W17593   7.986  16.872   4.974 -0.0957 -0.3698  0.2338
 2125W        W17594  15.713  13.742  13.942  0.1039  0.0509 -0.1250
 2126W        W17595  10.088  12.394  13.056 -0.3398  0.0238 -0.2853
 2127W        W17596  11.363   5.088   2.075 -0.3846 -0.3816 -0.0870
 2128W        W17597   1.288   0.288  12.196 -0.2732  0.0314  0.3285
 2129W        W17598   0.425   8.093   4.557 -0.0536 -0.0950  0.1335
 2130W        W17599  15.403   5.332  10.466 -0.2777 -0.0417  0.3907
 2131W        W17600  11.171   0.661   2.055  0.1511 -0.3206  0.0197
 2132W        W17601   8.674   8.614  12.421 -0.0966 -0.0109 -0.2806
 2133W        W17602   9.591  17.211   5.337  0.1138 -0.3851 -0.2131
 2134W        W17603  14.332  13.694   4.388 -0.0132 -0.1222 -0.1733
 2135W        W17604   2.766  15.555   4.984  0.1639  0.0081 -0.2187
 2136W        W17605   7.861   6.062   0.030 -0.1870  0.2425  0.1242
 2137W        W17606   2.406   2.707  12.427 -0.1161  0.0762 -0.2093
 2138W        W17607   4.976  16.198  15.061 -0.1399 -0.1178  0.1748
 2139W        W17608   6.704   9.913   0.006 -0.2741 -0.1618 -0.0348
 2140W        W17609  14.765  10.185  11.601  0.3162 -0.0329 -0.5678
 2141W        W17610  17.960   2.125  14.649  0.0605 -0.3632  0.0520
 2142W        W17611  14.789   7.670   4.370  0.4155  0.3517  0.1785
 2143W        W17612   7.199  18.705   3.651  0.0930  0.0003  0.2490
 2144W        W17613  11.458  14.876  10.541 -0.2648 -0.1456  0.1033
 2145W        W17614  10.698  15.983  10.088 -0.0854  0.0856 -0.0730
 2146W        W17615  15.370  16.665   2.170 -0.0897  0.1449 -0.1806
 2147W        W17616  16.204  13.985  15.223  0.1319 -0.3250  0.2630
 2148W        W17617  11.329  16.963   4.519 -0.1405  0.1208  0.3733
 2149W        W17618   6.282  10.072   4.091 -0.3067  0.0871 -0.1209
 2150W        W17619   6.321   6.727   3.261 -0.3684  0.1009 -0.0780
 2151W        W17620   9.316  14.492  10.514  0.2431  0.2938  0.2988
 2152W        W17621   5.478   3.481  14.283 -0.0293  0.1656 -0.0889
 2153W        W17622   4.235   4.044  10.469  0.1043  0.0993 -0.2136
 2154W        W17623  10.042   0.869   3.010 -0.3487  0.0097  0.1443
 2155W        W17624   6.034   8.829   9.987  0.0651  0.2767 -0.0601
 2156W        W17625  10.304   1.510   4.642 -0.3278 -0.2751  0.0630
 2157W        W17626   6.622  11.062  13.564  0.1910 -0.0829  0.1835
 2158W        W17627   9.153  11.351  14.633 -0.0721  0.1470 -0.1011
 2159W        W17628   0.692   1.163  12.981 -0.1901 -0.0325 -0.0859
 2160W        W17629   1.563   4.981   3.688 -0.1615  0.1004 -0.3303
 2161W        W17630   3.273   2.246  14.678  0.0254  0.0219  0.1894
 2162W        W17631  18.055   8.360  15.208 -0.2917 -0.0719  0.2710
 2163W        W17632  17.085  16.723   2.027  0.3551  0.1809 -0.3920
 2164W        W17633   5.315  18.326  11.336 -0.0038  0.0683 -0.3373
 2165W        W17634  17.253   1.915   2.697  0.1288 -0.1346  0.2201
 2166W        W17635   0.235  13.562   3.218 -0.1107  0.2594  0.1379
 2167W        W17636   4.381   8.311   4.483 -0.0358 -0.1834  0.0554
 2168W        W17637   6.341  14.657  15.357  0.2252  0.2535  0.3185
 2169W        W17638  14.784  18.792  12.639  0.2414 -0.2368  0.0161
 2170W        W17639   6.983   2.834   5.502  0.0251  0.3368 -0.1122
 2171W        W17640   0.520  16.259   5.232  0.0587 -0.0215  0.5421
 2172W        W17641  17.503  15.242   5.218 -0.4267  0.0201 -0.0298
 2173W        W17642   2.910  17.565   4.068  0.2156  0.2466 -0.0081
 2174W        W17643  15.621  14.973   0.431  0.0696 -0.1046 -0.1853
 2175W        W17644  18.143   7.809   5.236 -0.1572 -0.2798  0.1082
 2176W        W17645   1.663  13.821  11.015  0.2966 -0.1282 -0.1938
 2177W        W17646   2.185   1.473  12.917  0.0640  0.2126 -0.1906
 2178W        W17647  11.096   8.936  12.004  0.2609  0.2480 -0.1272
 2179W        W17648   6.861  12.172   4.389  0.1783  0.3565 -0.1162
 2180W        W17649   5.187  11.770   1.147  0.1238 -0.0409  0.2654
 2181W        W17650  11.836   0.648   1.469 -0.1773  0.0586  0.0811
 2182W        W17651   6.296  12.247   0.592  0.3836 -0.1143  0.0858
 2183W        W17652   2.660   9.809   3.397  0.1130  0.2176 -0.1088
 2184W        W17653   8.344   8.638  13.239  0.1128 -0.1815  0.2741
 2185W        W17654  17.279   1.689   3.868 -0.1771  0.1657  0.1435
 2186W        W17655   2.091   5.084  10.100 -0.0494 -0.0269  0.2850
 2187W        W17656  11.063   8.926   2.702  0.0134 -0.0787  0.1140
 2188W        W17657  15.964   4.130   0.583  0.0104  0.0630  0.2161
 2189W        W17658  10.776   4.394  10.163  0.0633  0.0436  0.2206
 2190W        W17659   7.618   1.176  12.660  0.0528  0.1093 -0.3657
 2191W        W17660   5.743  11.866   3.946 -0.0155 -0.1778 -0.0441
 2192W        W17661  10.565  18.535  13.674 -0.1057  0.1134  0.0283
 2193W        W17662   9.265   6.760  10.654 -0.1842  0.0430 -0.1986
 2194W        W17663  17.913  13.065   5.513 -0.2605 -0.3131 -0.0514
 2195W        W17664  16.972  13.349   2.283 -0.1335  0.0665  0.5050
 2196W        W17665  15.837   9.424  15.092  0.1130 -0.1316  0.1746
 2197W        W17666  10.350  18.920   2.667 -0.0944 -0.4027  0.0979
 2198W        W17667  18.761   0.171  12.301 -0.1817 -0.2657 -0.3272
 2199W        W17668   3.914   0.382  14.027  0.0924 -0.1938  0.1060
 2200W        W17669  15.242  17.392   4.967 -0.1623 -0.1313 -0.0339
 2201W        W17670   5.436  12.287   1.197  0.2026 -0.3578  0.0386
 2202W        W17671   0.627   4.812  13.253 -0.1472 -0.1203 -0.1108
 2203W        W17672  11.000  14.233  11.397 -0.0866 -0.0217 -0.2104
 2204W        W17673   4.998   9.369  13.880  0.2867 -0.4471  0.1061
 2205W        W17674   1.775   6.930   4.309  0.0486  0.0579 -0.3677
 2206W        W17675  10.138   0.991  14.877  0.2997  0.1025 -0.5969
 2207W        W17676   5.539  16.434  11.500  0.2001 -0.2998 -0.1666
 2208W        W17677   9.866   5.171  14.699 -0.1534 -0.2516  0.0795
 2209W        W17678  16.970   4.462  12.654 -0.1367  0.0158  0.0914
 2210W        W17679  16.451   4.574   3.151  0.2887  0.2046  0.3839
 2211W        W17680   4.306   9.300  14.459 -0.2070 -0.1870  0.3318
 2212W        W17681   1.228  15.335   0.494  0.1380  0.1388 -0.1633
 2213W        W17682   7.069   2.591  13.381 -0.3586 -0.2817  0.0814
 2214W        W17683  16.815   1.692   2.533 -0.6090  0.2525  0.0628
 2215W        W17684  17.687   9.678  13.224  0.0465 -0.1183 -0.0647
 2216W        W17685   2.142   6.380  14.779 -0.4316 -0.0711  0.4147
 2217W        W17686   9.923  11.203  15.305 -0.0603  0.0023  0.1595
 2218W        W17687   9.317   2.630   0.339 -0.3291  0.0519 -0.0028
 2219W        W17688   2.261  18.923  13.634  0.0652 -0.3691 -0.3321
 2220W        W17689   6.573   9.323  14.702  0.0111 -0.1291  0.1055
 2221W        W17690   7.521  16.048   3.541  0.0781  0.2016  0.0561
 2222W        W17691   2.835  17.502  11.732 -0.4180 -0.0503  0.1899
 2223W        W17692  13.344  11.722  15.311 -0.3680  0.2489 -0.1818
 2224W        W17693   5.091   4.917  13.428 -0.2167 -0.2503 -0.0881
 2225W        W17694   9.183   0.376  12.733 -0.0236 -0.1484  0.0719
 2226W        W17695  13.112   3.648   3.373  0.3864 -0.2909  0.1122
 2227W        W17696   8.174  12.811  14.111 -0.2220 -0.2372  0.2255
 2228W        W17697   8.298  16.370  14.755  0.0230 -0.0251 -0.0142
 2229W        W17698  16.456  10.331   9.843  0.3199 -0.4567 -0.0990
 2230W        W17699  14.986  14.752  12.362  0.0568  0.4152 -0.1459
 2231W        W17700   0.257  13.113   0.004  0.0473 -0.3246  0.2068
 2232W        W17701   9.056   5.709   2.423 -0.5247  0.0045  0.3123
 2233W        W17702   6.109   7.739   2.338 -0.0030  0.0378 -0.1063
 2234W        W17703  13.196   7.019  13.272  0.0179  0.2329  0.0972
 2235W        W17704   5.727   1.947   1.743 -0.1532  0.1108 -0.1777
 2236W        W17705   3.739   8.159   0.775  0.0786  0.1560 -0.1399
 2237W        W17706   9.775  14.016   0.289 -0.1099  0.0480 -0.0027
 2238W        W17707   4.547   0.843   0.178  0.0957 -0.1517  0.2513
 2239W        W17708   1.489   0.933   4.587 -0.0580  0.0438  0.3275
 2240W        W17709  18.388   0.754   3.783  0.1474 -0.0501  0.1721
 2241W        W17710   6.577   0.914   1.440  0.0611 -0.1200  0.1639
 2242W        W17711   3.775   7.286   1.520 -0.1295  0.0180 -0.1567
 2243W        W17712  14.281   6.273   4.901 -0.2181 -0.0256  0.4114
 2244W        W17713  14.648  11.007   4.508  0.1022 -0.2101 -0.1133
 2245W        W17714  10.417   7.150  14.323  0.1806  0.0850 -0.0460
 2246W        W17715   9.332   4.092   3.058  0.0930  0.0430 -0.0081
 2247W        W17716  11.175   7.924   3.893 -0.0686 -0.1245  0.1093
 2248W        W17717  10.113   4.446  15.365 -0.1327  0.0289  0.1562
 2249W        W17718   0.775   3.553  10.634  0.1084  0.1377  0.0809
 2250W        W17719   0.700  15.085   3.294  0.1139 -0.1827 -0.0855
 2251W        W17720   3.730  11.138   0.835 -0.3082 -0.1941 -0.0343
 2252W        W17721  14.561   0.203   1.591 -0.0640  0.1785  0.2647
 2253W        W17722   0.503   5.656   2.759 -0.0816  0.0611 -0.0148
 2254W        W17723   6.901   3.586   4.128 -0.1447 -0.0107 -0.1069
 2255W        W17724   6.231   4.320  12.831  0.0295 -0.1296 -0.1069
 2256W        W17725  13.310   9.038   2.576  0.4701  0.1321 -0.0688
 2257W        W17726  18.556   4.997  11.386 -0.2712  0.2355  0.2631
 2258W        W17727  10.740  16.076   3.059  0.5840  0.0675  0.0098
 2259W        W17728  13.613  15.281  13.170  0.0459 -0.0333 -0.2832
 2260W        W17729   4.325   2.046   5.805 -0.2919 -0.1846 -0.1904
 2261W        W17730  18.745  12.979   1.074  0.7235  0.2115  0.1245
 2262W        W17731  10.713   6.870   2.967 -0.0843  0.0705 -0.0496
 2263W        W17732  17.117   3.070  15.051 -0.2744  0.1506 -0.1230
 2264W        W17733   0.141   1.533  13.745 -0.1870 -0.0329 -0.1753
 2265W        W17734   9.256  17.627   0.786 -0.0088  0.2501 -0.0127
 2266W        W17735   3.182  11.952  12.485 -0.0309 -0.1347  0.0127
 2267W        W17736  10.299   3.960   1.326 -0.4620  0.0083 -0.0962
 2268W        W17737   9.209  16.478   2.032 -0.1083  0.1350 -0.0131
 2269W        W17738   7.249   4.209  12.385 -0.3532 -0.1875 -0.0719
 2270W        W17739   3.605   4.508   2.417  0.0901  0.2455 -0.0260
 2271W        W17740  18.814  14.443  11.687 -0.0378 -0.1436 -0.4364
 2272W        W17741   3.115  10.078   0.362  0.0417 -0.0381 -0.1252
 2273W        W17742  17.102   3.390   5.462 -0.1962 -0.1019 -0.0937
 2274W        W17743   6.849   2.567  11.385  0.2309 -0.2575  0.0423
 2275W        W17744  15.576   0.289  13.916 -0.1647  0.0180 -0.1779
 2276W        W17745   7.741  14.404  13.183  0.0108 -0.0915 -0.0197
 2277W        W17746   0.153  14.558  12.068 -0.2101  0.2683 -0.3059
 2278W        W17747   6.408   8.984   1.857  0.1494  0.1895 -0.5617
 2279W        W17748   7.556  15.380  12.489  0.0597 -0.0132 -0.0207
 2280W        W17749  16.460  17.744   3.506 -0.1013  0.1046 -0.2533
 2281W        W17750   2.829  11.675  11.396  0.1279 -0.2301 -0.2040
 2282W        W17751  17.186  14.843   3.102  0.2323  0.0422 -0.1547
 2283W        W17752   1.064  17.731  13.679  0.0363  0.2937 -0.2968
 2284W        W17753   6.085   8.707   3.442 -0.2625  0.1993 -0.0273
 2285W        W17754   7.202  17.085  11.825 -0.1307 -0.0527 -0.0442
 2286W        W17755  12.543   2.179   9.915 -0.0561 -0.0714 -0.2777
 2287W        W17756  16.931  12.841   0.442 -0.0874 -0.1180  0.0072
 2288W        W17757  15.094   7.911  10.900  0.1798  0.5617  0.1770
 2289W        W17758   2.861  18.571  12.369  0.2203  0.3325 -0.1334
 2290W        W17759  16.586  17.117   5.976 -0.1550 -0.1416 -0.0152
 2291W        W17760  16.486   1.192  14.632 -0.0554 -0.1069 -0.0279
 2292W        W17761  14.237   6.899   4.085 -0.0939  0.3773  0.4876
 2293W        W17762   4.394   9.259   3.159  0.0290 -0.0710 -0.0857
 2294W        W17763   1.783  11.598  14.106 -0.3223  0.3489 -0.1574
 2295W        W17764   0.595   0.304  11.008 -0.3310  0.3081 -0.1991
 2296W        W17765  18.174   5.050   5.040  0.1005 -0.3899  0.3191
 2297W        W17766  11.528  12.365   3.394  0.3248 -0.0409  0.0138
 2298W        W17767   6.555  17.846  11.917  0.4660  0.0847  0.1680
 2299W        W17768   6.348  11.454  14.282  0.0478 -0.0257  0.3375
 2300W        W17769   3.195  17.062  14.239  0.0604 -0.1690 -0.0351
 2301W        W17770   6.398   1.450  14.839  0.0393 -0.0726 -0.2308
 2302W        W17771   5.944  14.450   3.734  0.2109  0.2058  0.3366
 2303W        W17772   1.080   8.083  14.805 -0.1159 -0.1681 -0.4382
 2304W        W17773   1.086   7.726   0.257 -0.1178  0.0042  0.2389
 2305W        W17774  12.252   9.595  14.919 -0.0458 -0.2819  0.1767
 2306W        W17775  14.540   0.347   0.999 -0.0366  0.1489 -0.2130
 2307W        W17776   7.874  16.644  14.717  0.1989 -0.1860  0.0106
 2308W        W17777  10.499   1.049  13.458 -0.1593 -0.5925  0.1703
 2309W        W17778  13.638   7.008   2.801  0.0414 -0.0175 -0.0366
 2310W        W17779  11.900   8.560   3.024 -0.1980 -0.0644  0.1728
 2311W        W17780  17.149   0.339  10.606 -0.2930  0.2764  0.2319
 2312W        W17781   7.300  18.083  12.910  0.0683  0.2206 -0.0889
 2313W        W17782   9.653  14.655  13.756  0.0308 -0.1018 -0.1317
 2314W        W17783   8.558  13.286  12.836  0.1702 -0.0611  0.2341
 2315W        W17784  17.628   4.942  11.759 -0.3506 -0.0693  0.1335
 2316W        W17785  16.464  11.972  11.362 -0.3233  0.1959 -0.0292
 2317W        W17786   7.842  18.769   5.710  0.0297  0.1000 -0.1471
 2318W        W17787  14.165  10.495  12.209  0.1398 -0.0252  0.1812
 2319W        W17788   6.165  16.610   1.517 -0.0352  0.2524  0.0296
 2320W        W17789   8.864  16.032   4.799 -0.0761 -0.1415 -0.0063
 2321W        W17790   4.418  18.511  12.465  0.0474 -0.0310 -0.3054
 2322W        W17791  10.482  11.150  11.554 -0.3444  0.0325  0.2608
 2323W        W17792   0.458   9.139   2.571  0.1789  0.1516 -0.4096
 2324W        W17793   1.765   0.602   2.869  0.1239 -0.1646 -0.0630
 2325W        W17794   6.145  12.921   3.101 -0.0546  0.1711 -0.0164
 2326W        W17795   8.536   6.806  13.811 -0.4430 -0.0926  0.1190
 2327W        W17796  12.544  18.288  14.867  0.0577  0.4988  0.0749
 2328W        W17797  13.010   4.038  14.022  0.3515  0.0119 -0.0168
 2329W        W17798   6.116  15.635   5.678  0.1424 -0.1939  0.1513
 2330W        W17799   8.016   6.253  10.803  0.2784  0.0878 -0.1743
 2331W        W17800   7.615  14.390  14.552  0.1132  0.1713  0.2416
 2332W        W17801  15.652  18.636   3.535  0.0447 -0.4065  0.0001
 2333W        W17802   2.472   4.158  12.873  0.0464 -0.1295 -0.1055
 2334W        W17803  15.707  17.839   4.446  0.1346  0.4454 -0.0396
 2335W        W17804   9.071  14.657   1.564 -0.0468 -0.3069 -0.1720
 2336W        W17805   5.737  14.267   4.746  0.1411  0.0210  0.2383
 2337W        W17806   8.940  12.000  14.337 -0.0834  0.1286  0.0861
 2338W        W17807   3.268   6.727  12.289  0.1636  0.1168  0.0209
 2339W        W17808   1.232   8.135   3.429  0.0249  0.0529 -0.0948
 2340W        W17809  13.823   8.768  14.671 -0.0390  0.1461  0.2296
 2341W        W17810  18.760  13.128   1.619 -0.0749 -0.1665 -0.1383
 2342W        W17811  11.298  16.769   6.044 -0.2310 -0.2241  0.1673
 2343W        W17812  16.599   2.535   2.268  0.3796  0.0508 -0.0338
 2344W        W17813   1.721  11.255  11.723  0.2317  0.2552  0.3478
 2345W        W17814  18.201   5.763  14.860 -0.0266 -0.1501  0.1847
 2346W        W17815   7.269  15.675   5.432  0.0126 -0.2018 -0.1982
 2347W        W17816  12.977   4.334   3.860 -0.2918 -0.3682  0.1163
 2348W        W17817  17.552   2.483   5.209  0.1735  0.2361 -0.0376
 2349W        W17818   8.909  18.256   2.489 -0.0961  0.1265 -0.5749
 2350W        W17819   4.538   4.847   0.255 -0.0376 -0.3216  0.0608
 2351W        W17820  16.389  12.222   4.785  0.2482 -0.4219  0.0830
 2352W        W17821  13.031  17.076   5.018 -0.3919  0.0291 -0.0287
 2353W        W17822  18.542  14.807   1.132 -0.1058 -0.2555 -0.0068
 2354W        W17823   0.616  12.040   1.424 -0.2417  0.1489  0.1906
 2355W        W17824  15.279  12.684  12.975 -0.3081  0.1592  0.0082
 2356W        W17825  17.803   9.673  12.517  0.0267  0.5848  0.0879
 2357W        W17826   5.690   8.935  10.420 -0.1124  0.0181 -0.0863
 2358W        W17827  16.420  13.146   2.549  0.3472 -0.3525 -0.1454
 2359W        W17828  13.939  17.143   4.966  0.1968 -0.2037 -0.0894
 2360W        W17829   7.780  10.396   0.795 -0.1760 -0.0547 -0.0011
 2361W        W17830   5.760  14.078  12.615  0.2936  0.2985 -0.2462
 2362W        W17831   5.655  13.336   4.380 -0.0349  0.0553 -0.0416
 2363W        W17832   8.779  15.334  11.270 -0.0902  0.0056  0.1404
 2364W        W17833   9.744   4.131  11.420  0.1183  0.0477 -0.1198
 2365W        W17834  10.005  17.538  10.716  0.1641 -0.2851 -0.1458
 2366W        W17835  15.585  12.494  14.290  0.0037  0.0718  0.1562
 2367W        W17836  10.526  12.412  12.721 -0.3345  0.1628  0.5689
 2368W        W17837   7.315  14.565   3.977 -0.1607  0.0801 -0.0995
 2369W        W17838   6.523   5.999   4.372 -0.0099  0.4410  0.0228
 2370W        W17839  13.059   2.986   5.151  0.2399  0.1470 -0.0972
 2371W        W17840  15.521   1.383  12.227  0.0547 -0.2055  0.0054
 2372W        W17841   7.214   4.637   2.479 -0.0592  0.2411 -0.0850
 2373W        W17842   8.155   0.678   2.139 -0.2229  0.2548 -0.0719
 2374W        W17843  12.504  13.421  10.706  0.0185  0.0978 -0.0802
 2375W        W17844  16.240   2.007  13.924 -0.1254  0.0947  0.0665
 2376W        W17845  14.035   3.525   4.075 -0.3349  0.2581 -0.1018
 2377W        W17846   2.407  17.656  15.508  0.3879 -0.0853  0.1026
 2378W        W17847   5.860   0.286  12.286 -0.0271 -0.1367 -0.1861
 2379W        W17848  16.243  17.357   5.227 -0.0225  0.2786  0.0166
 2380W        W17849   6.144  13.928   3.864 -0.0562  0.0119  0.1413
 2381W        W17850   1.644  13.012  15.003  0.0138 -0.0221  0.0289
 2382W        W17851  12.894  13.051  15.208 -0.1173  0.2298 -0.2143
 2383W        W17852  11.004  18.732  10.240  0.0087  0.1252 -0.5673
 2384W        W17853   6.196  10.890  14.264  0.1206 -0.0168 -0.0819
 2385W        W17854   2.826  14.267   3.516  0.1046 -0.1370 -0.1512
 2386W        W17855  12.940  12.371  10.938 -0.2456  0.0942  0.1530
 2387W        W17856  16.897   1.298  12.312  0.0833  0.1920  0.0348
 2388W        W17857  11.197  15.090   1.043  0.1653 -0.0900 -0.0418
 2389W        W17858  13.449  13.984  15.431  0.2094  0.0686  0.2790
 2390W        W17859  11.278  12.261  15.431  0.0311  0.0578 -0.0840
 2391W        W17860   1.602   1.232  12.001 -0.1863 -0.2902  0.1359
 2392W        W17861  12.801  16.580   0.654  0.2297 -0.3620 -0.0357
 2393W        W17862   9.626  18.721  12.865  0.4172 -0.3485  0.0912
 2394W        W17863  17.215   8.867   2.417 -0.1113  0.2625 -0.2366
 2395W        W17864   7.457   4.340  11.508 -0.7515  0.0988 -0.1374
 2396W        W17865   6.480   9.361  10.550  0.1758  0.0383  0.0898
 2397W        W17866  10.523  13.006   2.546 -0.0819  0.1372 -0.0462
 2398W        W17867   8.173   1.319  14.851 -0.0177 -0.0156  0.1901
 2399W        W17868   3.523  17.600   4.370  0.3704  0.1575  0.1188
 2400W        W17869   3.664  13.912   0.681  0.2731 -0.2596  0.2061
 2401W        W17870   2.737   9.628   2.024 -0.2817  0.1308  0.2608
 2402W        W17871  10.402   8.682  14.211 -0.2435 -0.1337 -0.2323
 2403W        W17872   1.692  16.888   4.518  0.3793  0.0815 -0.0282
 2404W        W17873   5.268  16.642   4.218 -0.2011 -0.1625  0.0117
 2405W        W17874  18.905  16.627   3.905  0.2509  0.2231 -0.0386
 2406W        W17875  17.640  14.742  12.587 -0.0226  0.0844 -0.0426
 2407W        W17876   3.724   9.595  13.636  0.2483  0.2047 -0.1828
 2408W        W17877  13.818   7.282  10.883  0.0456  0.0330  0.1158
 2409W        W17878   3.221  12.023   2.676 -0.1565 -0.1520 -0.0751
 2410W        W17879   5.477  15.503  14.823  0.0694 -0.2716  0.1161
 2411W        W17880   3.687  11.997  11.290  0.0865  0.0634  0.1395
 2412W        W17881  12.750   5.810  11.004 -0.0109 -0.3813 -0.0598
 2413W        W17882  14.017  15.981   1.865  0.0222  0.0321 -0.2275
 2414W        W17883  13.996  15.674   4.846 -0.1849 -0.0047  0.0352
 2415W        W17884  14.082  10.130  11.770 -0.0969 -0.0705  0.2319
 2416W        W17885   0.350   7.812   2.555 -0.0207  0.0768 -0.0187
 2417W        W17886   4.050  17.248   0.705  0.0269 -0.2117 -0.2357
 2418W        W17887  12.010   3.736  11.678  0.0513  0.1872 -0.0869
 2419W        W17888   5.654   1.728  13.148  0.3165  0.0563  0.1940
 2420W        W17889   4.883  12.439  10.959  0.0624  0.1239 -0.2214
 2421W        W17890   3.492   2.663   4.709 -0.1532 -0.0328  0.1810
 2422W        W17891  12.291   6.782  10.904 -0.0113  0.1000  0.1326
 2423W        W17892   1.725   8.032  10.888  0.1332  0.0827  0.1591
 2424W        W17893   4.425   0.255  10.760  0.0758  0.1915  0.1942
 2425W        W17894   3.990  11.295   5.502  0.0313 -0.2640 -0.0820
 2426W        W17895   1.492  16.182   5.038  0.0459 -0.1965 -0.2325
 2427W        W17896   5.574   2.538  12.586  0.1111  0.0330 -0.2819
 2428W        W17897   9.533   7.488  13.084  0.1331 -0.1781  0.1034
 2429W        W17898   4.145   1.701  14.519 -0.0453  0.0609 -0.0777
 2430W        W17899  15.310  18.436  12.700  0.4899  0.3376  0.0609
 2431W        W17900   2.619  12.240   1.810 -0.2606 -0.1444 -0.2927
 2432W        W17901  15.956  12.871   2.519 -0.0790 -0.0052 -0.1703
 2433W        W17902  15.966  13.447   3.925  0.2474  0.1931  0.2641
 2434W        W17903   9.674   9.347   1.755  0.0176  0.2976  0.2115
 2435W        W17904   9.452   4.763   0.371  0.0525 -0.1079  0.1417
 2436W        W17905  16.372   8.323  10.377  0.0387 -0.2521  0.1245
 2437W        W17906  11.306   4.856  12.811  0.0269  0.1217 -0.0353
 2438W        W17907   3.487   7.228   3.659  0.0169  0.0678  0.1580
 2439W        W17908  18.439  17.112  11.663  0.2886  0.2647 -0.3562
 2440W        W17909  15.663   6.261   4.540  0.0125 -0.2574  0.2215
 2441W        W17910   8.115   3.158   0.706  0.0930  0.2247 -0.0533
 2442W        W17911  11.736  10.633   0.814 -0.0708  0.3390  0.1953
 2443W        W17912   8.945   8.979  14.977  0.0775 -0.4148 -0.1257
 2444W        W17913  10.254   6.436  12.466 -0.3309 -0.3109 -0.0810
 2445W        W17914  11.536  11.446   5.216 -0.2030  0.1720  0.1110
 2446W        W17915   5.132   7.131   1.473 -0.2431  0.3094  0.0242
 2447W        W17916   9.506  17.987  14.877 -0.2041 -0.3643  0.3114
 2448W        W17917   1.670   8.946   5.874  0.2513 -0.0208 -0.1500
 2449W        W17918   0.504   6.672   3.123 -0.1258 -0.0241  0.2253
 2450W        W17919   4.061   0.117  11.810  0.1826 -0.0565  0.4645
 2451W        W17920  10.427   5.930  14.978  0.0697 -0.0300  0.2608
 2452W        W17921   1.678   7.727   0.463 -0.0522  0.3383  0.1328
 2453W        W17922  13.161   6.614   4.022 -0.0208  0.1545 -0.0557
 2454W        W17923  12.557   9.129  10.759 -0.0614 -0.1266  0.0608
 2455W        W17924   7.332   3.686   4.327  0.1203  0.0157 -0.0436
 2456W        W17925   6.534  18.502   0.067  0.2793 -0.1804 -0.0708
 2457W        W17926  11.006   4.119   3.820 -0.1951  0.0033 -0.0464
 2458W        W17927  17.582   9.379  14.741  0.0436 -0.0393  0.1568
 2459W        W17928  13.775  18.510  14.985 -0.0458 -0.0439  0.2007
 2460W        W17929   2.241  17.796   4.783  0.0219  0.0206  0.1534
 2461W        W17930   2.149   0.151  11.154  0.1580 -0.2082 -0.1475
 2462W        W17931  15.385   4.092   0.247 -0.2976  0.2829  0.4662
 2463W        W17932   3.350  17.874  11.004 -0.1180 -0.0503  0.1069
 2464W        W17933  12.867  17.032   2.436  0.1626  0.0726 -0.0900
 2465W        W17934   8.443   1.659   4.870  0.3858  0.1258  0.1386
 2466W        W17935   7.270   0.068   0.221  0.3379  0.1639  0.1576
 2467W        W17936   3.544  18.170   4.288 -0.0857 -0.1898 -0.3003
 2468W        W17937   4.239  10.755   4.919  0.1026 -0.1887  0.1223
 2469W        W17938   2.602   0.736  10.883 -0.1096 -0.3972  0.3781
 2470W        W17939   0.520  16.834  11.495 -0.0108  0.2728  0.3201
 2471W        W17940   2.653  15.344  14.991 -0.0582  0.1082  0.3784
 2472W        W17941  10.378   2.952  13.352  0.3262 -0.0503  0.4432
 2473W        W17942   2.640   6.248  10.724  0.2395  0.3445 -0.2433
 2474W        W17943   5.836  17.519   2.282  0.0731 -0.2336 -0.1315
 2475W        W17944  11.200   1.565  12.977  0.0111 -0.0946  0.0730
 2476W        W17945   6.502   9.329   2.265  0.0268 -0.5631  0.3037
 2477W        W17946   9.745   7.819  11.384 -0.1264  0.1910 -0.3668
 2478W        W17947  17.523  16.311  11.119 -0.2005 -0.0929  0.2838
 2479W        W17948   8.740  18.510  11.432  0.2124  0.0860 -0.0993
 2480W        W17949  12.153  15.983  10.871  0.2106  0.0166 -0.0304
 2481W        W17950  12.534  18.343  13.841 -0.0290  0.0655 -0.2049
 2482W        W17951   3.719  14.507  14.326 -0.1907  0.0358  0.1085
 2483W        W17952   1.245  10.150  12.606  0.0032 -0.3576  0.0865
 2484W        W17953  15.902   4.978  10.677  0.3800 -0.4101  0.1336
 2485W        W17954  10.991   6.495  14.506 -0.0519 -0.3984 -0.1761
 2486W        W17955  13.132   7.615   2.198  0.1640 -0.2540 -0.2920
 2487W        W17956   0.654   4.042  15.047  0.0637 -0.2389 -0.1663
 2488W        W17957  13.144  11.540  14.526 -0.1380  0.1677 -0.0097
 2489W        W17958   0.948   0.981   5.212 -0.0168  0.0599 -0.1549
 2490W        W17959  18.121  16.619  14.927 -0.2897 -0.4009 -0.3882
 2491W        W17960   3.450   3.355  14.149 -0.0229 -0.0620 -0.0853
 2492W        W17961   0.258   9.507   5.269  0.1781  0.1001  0.1434
 2493W        W17962  14.155  12.166   0.542 -0.0399  0.0697  0.1336
 2494W        W17963   3.846   1.445   4.576 -0.1627 -0.3767 -0.1975
 2495W        W17964  14.194  14.730   0.919 -0.0029  0.1680  0.1181
 2496W        W17965   0.789   5.165  14.794  0.0935 -0.0358 -0.0440
 2497W        W17966  14.857   5.230  13.044 -0.1285  0.0015 -0.1745
 2498W        W17967   9.267  10.512   0.114  0.0075  0.0263  0.0673
 2499W        W17968   4.211  13.188  11.035 -0.1771  0.2683  0.0592
 2500W        W17969   0.976  16.827  10.023  0.0392  0.0557 -0.0160
 2501W        W17970  18.501  11.265   3.817  0.0332  0.1535  0.1476
 2502W        W17971  15.918   7.209   0.935  0.0273 -0.0401 -0.1701
 2503W        W17972   5.068   2.578  13.019  0.0235 -0.0734 -0.1062
 2504W        W17973  16.425  12.145  14.302  0.0078  0.2628  0.1111
 2505W        W17974  10.555   7.188  15.293 -0.2032  0.1542  0.1793
 2506W        W17975   2.150   9.218   3.275  0.2169 -0.1967 -0.5787
 2507W        W17976  10.427   1.709  10.872  0.0124 -0.1570  0.0730
 2508W        W17977   0.064   7.066   0.875  0.3246  0.2441  0.0242
 2509W        W17978   3.206  16.696  13.426  0.1000  0.1365  0.1185
 2510W        W17979  15.224  18.739  11.767 -0.4488  0.3494 -0.0528
 2511W        W17980   5.034   0.273  13.272 -0.1794 -0.0066  0.3472
 2512W        W17981  14.513  15.596  12.723 -0.1754  0.0886  0.4360
 2513W        W17982   9.470   1.195   9.512 -0.3646 -0.2140 -0.1680
 2514W        W17983  14.748   3.459   2.537  0.0163  0.1912 -0.0609
 2515W        W17984  13.986   7.825   0.075  0.0141  0.1095  0.0349
 2516W        W17985   0.206  18.327   0.579 -0.4909  0.1355  0.0614
 2517W        W17986  13.745   9.569   5.269 -0.0650 -0.0488  0.1307
 2518W        W17987  16.289   3.665  13.365  0.1615 -0.1542 -0.1866
 2519W        W17988  14.137  15.760   0.710  0.0150 -0.0680 -0.2503
 2520W        W17989  12.811  16.183  13.952 -0.1146  0.1386 -0.1523
 2521W        W17990   6.573  13.392   2.571  0.0456  0.1323 -0.3475
 2522W        W17991   1.105  11.031   2.346  0.1198  0.0207 -0.0944
 2523W        W17992   3.282   0.400   2.010 -0.0493  0.3515 -0.0483
 2524W        W17993  15.379  15.149   1.845 -0.0476 -0.2769 -0.2547
 2525W        W17994   8.557   3.292   2.164 -0.2580 -0.3094 -0.1181
 2526W        W17995   8.156  16.465   0.173 -0.0404  0.1135 -0.0637
 2527W        W17996  15.643   1.499   5.063 -0.0553  0.1223  0.0668
 2528W        W17997   6.133  11.082  12.196  0.0325  0.0096 -0.0004
 2529W        W17998   3.515  10.532  14.227 -0.0182 -0.1566 -0.0412
 2530W        W17999  15.701  17.087   2.497  0.3135  0.4106  0.3168
 2531W        W18000  11.145  12.863   1.895 -0.0883  0.0915  0.2038
 2532W        W18001   1.128  10.649  13.956  0.2314  0.2975  0.1470
 2533W        W18002   5.777  15.722  14.398 -0.1115 -0.2035  0.4443
 2534W        W18003   8.265   2.693   4.227 -0.1045  0.3409 -0.3232
 2535W        W18004   5.641   9.423   3.653  0.1540  0.1460 -0.1011
 2536W        W18005   6.772  11.920  15.188  0.0200 -0.0480  0.0883
 2537W        W18006  18.106  16.210  14.640  0.0767  0.1231  0.0381
 2538W        W18007   9.810  14.892   0.051  0.0730  0.0898 -0.0269
 2539W        W18008   6.946  12.305   4.845 -0.1069  0.0114  0.1584
 2540W        W18009  17.708  18.823   0.515  0.1550  0.1094  0.0113
 2541W        W18010   2.281   6.076   0.198  0.0903  0.2381 -0.2085
 2542W        W18011   9.369   0.139  14.712  0.3105  0.1974 -0.2436
 2543W        W18012  13.131   6.154  12.742 -0.0067 -0.1634 -0.1349
 2544W        W18013   2.911  13.296  14.605  0.0740  0.2687  0.4083
 2545W        W18014  15.589   1.914   5.739 -0.0254 -0.1059  0.0350
 2546W        W18015   8.467   1.262   3.798  0.3144 -0.0912  0.3329
 2547W        W18016  18.408   5.042   4.436  0.4096  0.0046  0.1465
 2548W        W18017   7.221  12.321   1.569  0.0697  0.1568  0.0386
 2549W        W18018   4.263  17.861  13.123 -0.1242 -0.1213 -0.1137
 2550W        W18019   6.884   6.851  10.705 -0.1779  0.1716  0.1358
 2551W        W18020   3.371  12.534   3.663 -0.0804  0.2004  0.7410
 2552W        W18021  11.385  11.712  11.016  0.0558  0.0191  0.1948
 2553W        W18022  10.163  17.157  11.600  0.0119 -0.0995  0.1444
 2554W        W18023   7.168  18.056  13.875  0.0471  0.1639  0.1716
 2555W        W18024   3.337   0.059  13.179  0.0685 -0.0946  0.3165
 2556W        W18025  17.246  14.268   4.070  0.0394 -0.2307  0.2308
 2557W        W18026   6.202   3.562  11.659  0.0443 -0.0528 -0.2851
 2558W        W18027   3.362   8.153   4.006 -0.1315  0.0290  0.1699
 2559W        W18028   6.655   7.428  11.156  0.3327  0.0391  0.1642
 2560W        W18029   2.242  15.920   1.328 -0.0878  0.1815 -0.1138
 2561W        W18030  11.841   6.854   2.152 -0.1455 -0.0294  0.1606
 2562W        W18031  10.758   8.005  14.575  0.0872 -0.1002 -0.1278
 2563W        W18032  14.503  11.084  11.316 -0.3629  0.0144 -0.1979
 2564W        W18033  10.412   3.314  12.860  0.0682  0.1635  0.1236
 2565W        W18034  17.415  17.810  10.518  0.1374  0.3419 -0.0421
 2566W        W18035  18.805  13.456   5.401  0.3301 -0.1045 -0.1378
 2567W        W18036  16.725  13.121  10.546 -0.1167  0.1712 -0.1458
 2568W        W18037  13.934  15.785  11.566  0.2116 -0.4261  0.1055
 2569W        W18038   6.547   8.986  11.065 -0.0955 -0.1175 -0.0829
 2570W        W18039   8.161  11.592  13.419 -0.1784  0.3024 -0.1045
 2571W        W18040   7.107  17.151   1.318  0.0822  0.2082 -0.0734
 2572W        W18041   3.323  14.120  15.418  0.2267 -0.0499 -0.1465
 2573W        W18042   7.510  11.872   4.870 -0.0789  0.0241 -0.0651
 2574W        W18043  10.704  13.149   4.113  0.0043  0.2378 -0.0748
 2575W        W18044  13.907  12.522   5.546  0.2010  0.2027  0.1246
 2576W        W18045  14.419  15.639  12.009 -0.1202 -0.2250 -0.4227
 2577W        W18046  10.047  17.025   2.936  0.1416 -0.2442 -0.3534
 2578W        W18047  13.265  10.871   5.195 -0.0123 -0.2926 -0.0784
 2579W        W18048   3.845   1.175  13.887  0.1055 -0.1756  0.2013
 2580W        W18049   6.164  13.095   5.504 -0.0139  0.1404  0.3044
 2581W        W18050  17.311   9.262  11.813 -0.1298  0.0512  0.0270
 2582W        W18051   1.317   5.683  12.673 -0.1622  0.0169  0.0669
 2583W        W18052  14.818  17.231   4.747 -0.0459 -0.1125 -0.2786
 2584W        W18053   5.137   2.473  12.394  0.0086 -0.4737 -0.0123
 2585W        W18054   4.299  11.353   3.756  0.0184 -0.1229  0.2805
 2586W        W18055  14.622  10.327  10.585 -0.0571  0.0578 -0.0363
 2587W        W18056   7.232  10.499  15.264 -0.1246  0.1555 -0.1544
 2588W        W18057  14.564   4.026  13.234 -0.0795 -0.0384 -0.1986
 2589W        W18058  15.874  13.679  15.311  0.0584 -0.1091  0.1117
 2590W        W18059   6.892   0.947  13.553 -0.3187  0.2586  0.1704
 2591W        W18060  10.284   0.895  15.339 -0.1157  0.0154  0.0841
 2592W        W18061  17.590   2.729   2.342 -0.2569 -0.2334  0.0804
 2593W        W18062   2.579   1.194  12.745 -0.0724  0.0252 -0.2017
 2594W        W18063   6.660   7.997   3.905 -0.0319 -0.1954 -0.4842
 2595W        W18064   1.945  14.187   0.408  0.0282  0.0274 -0.1546
 2596W        W18065   7.595  12.127   1.853  0.3900 -0.1454 -0.3403
 2597W        W18066   4.251  18.888  12.816 -0.0343 -0.1634  0.1202
 2598W        W18067   6.092   6.746  13.612 -0.2048  0.2734 -0.1444
 2599W        W18068  11.831  15.633   1.594 -0.0954 -0.0451  0.2764
 2600W        W18069  17.733   8.650  14.804  0.4620  0.1918  0.1545
 2601W        W18070   2.091   2.972   1.855  0.1446 -0.1326  0.1686
 2602W        W18071  15.258  14.298  12.641  0.2464  0.0671 -0.2268
 2603W        W18072  16.852  11.470   1.765 -0.1817  0.2346  0.0021
 2604W        W18073  13.082  17.893   2.611 -0.3428 -0.2516 -0.3806
 2605W        W18074  16.599   0.858  10.755 -0.2921  0.2320  0.0758
 2606W        W18075  12.449  18.370   0.103  0.3603  0.5522  0.0538
 2607W        W18076   1.883  17.864  14.207  0.3341 -0.1321  0.0589
 2608W        W18077   0.265   6.910   5.790  0.1610 -0.3719 -0.1401
 2609W        W18078   5.112   8.552   5.160 -0.2103 -0.2040  0.0352
 2610W        W18079  14.426   1.028  10.610 -0.0643  0.3688  0.3589
 2611W        W18080   5.022   1.727   0.455  0.2245  0.2956 -0.3454
 2612W        W18081  18.665  17.580  14.299 -0.3863 -0.0015 -0.0761
 2613W        W18082  10.289  15.770   3.425  0.0371 -0.0063  0.4672
 2614W        W18083   1.336   3.321   9.579 -0.0546  0.1957  0.0118
 2615W        W18084   8.955  15.520   3.220  0.3973 -0.2261 -0.0947
 2616W        W18085   2.947   8.765   1.764  0.0341  0.1987 -0.3860
 2617W        W18086   3.218   1.432  14.979 -0.0243 -0.0977  0.1599
 2618W        W18087  17.304  13.874  14.697  0.1987 -0.2059 -0.2623
 2619W        W18088   4.435   9.037  12.127  0.1617 -0.0706  0.1108
 2620W        W18089   2.402   9.624  12.217 -0.0749 -0.3562 -0.1309
 2621W        W18090   3.155   2.013   4.175  0.3558  0.1317 -0.3100
 2622W        W18091  10.412   1.386   2.248  0.3083  0.2510  0.0176
 2623W        W18092  17.271   4.280   0.544  0.3768  0.2781 -0.0302
 2624W        W18093   7.264   2.230  14.115  0.1427 -0.0795  0.0956
 2625W        W18094   5.147   5.006   4.227  0.4484 -0.2447 -0.0834
 2626W        W18095   9.464  15.185  14.634  0.1510 -0.2326 -0.2433
 2627W        W18096  16.399   8.114   2.717  0.1575  0.1858 -0.0633
 2628W        W18097  14.151   5.293  10.792 -0.0543  0.0189 -0.1886
 2629W        W18098  15.864   3.591   1.099  0.0062 -0.0491 -0.4187
 2630W        W18099   1.478   5.997  13.822 -0.0816  0.0980 -0.0266
 2631W        W18100   9.444   5.915  12.095  0.0412  0.3122 -0.0408
 2632W        W18101   2.857  11.400   3.713 -0.0352  0.1593 -0.0175
 2633W        W18102  13.633   9.400   3.871  0.0091 -0.2999 -0.3210
 2634W        W18103   0.756   2.928   3.039 -0.2308 -0.1521  0.0866
 2635W        W18104  17.358   4.865  10.454 -0.0191  0.3112  0.3894
 2636W        W18105  17.232   4.958   1.778  0.4610 -0.0537  0.2041
 2637W        W18106  18.327  16.632   0.276 -0.3066  0.0862  0.1696
 2638W        W18107  14.027  12.791   4.006  0.0511  0.2676 -0.0611
 2639W        W18108   8.459   6.790   2.335  0.2032 -0.2597 -0.0449
 2640W        W18109   1.467   3.747  13.771  0.0981 -0.0396 -0.0196
 2641W        W18110  18.540   9.153   0.689  0.0642 -0.2975 -0.1539
 2642W        W18111  10.990   2.301   5.455  0.2660  0.1270  0.0602
 2643W        W18112   9.422   8.777  13.044  0.0989  0.0895 -0.1736
 2644W        W18113   8.069   1.098  12.322  0.0212 -0.1287 -0.2182
 2645W        W18114   1.913   5.422   4.516  0.3529  0.0989  0.0033
 2646W        W18115  11.758  14.489   2.212  0.1829  0.0286 -0.1250
 2647W        W18116   6.933   9.402  15.110 -0.1203  0.1408  0.0270
 2648W        W18117   0.618   7.115   3.140 -0.2665 -0.0450  0.1080
 2649W        W18118   9.027  14.374   0.434  0.0898  0.1829 -0.0086
 2650W        W18119  12.731   3.152  13.800  0.2146 -0.1800 -0.0751
 2651W        W18120  13.971  14.258   3.224  0.2493  0.2716 -0.0113
 2652W        W18121   0.540   6.225   1.915 -0.0063  0.1515  0.1412
 2653W        W18122   8.274   7.439   0.907 -0.1880 -0.0874  0.3041
 2654W        W18123   2.703   8.008   4.501 -0.1722 -0.0953 -0.1535
 2655W        W18124  15.843   2.506   1.323 -0.0405 -0.1237 -0.0485
 2656W        W18125   4.994   5.432  11.083  0.1496 -0.1234  0.0914
 2657W        W18126  14.981   3.843   2.317  0.2993 -0.2497  0.4184
 2658W        W18127   4.879   4.590   3.875  0.1462  0.1240 -0.0813
 2659W        W18128  12.374  11.743  12.750  0.0614  0.0555 -0.0506
 2660W        W18129  10.900  15.209   4.390 -0.1465  0.0422 -0.3500
 2661W        W18130  12.567   2.409   3.572 -0.0938  0.2846  0.0246
 2662W        W18131   0.244  18.152   0.124  0.2503 -0.2173 -0.3546
 2663W        W18132  15.161   0.038   4.540  0.1070  0.1127  0.1474
 2664W        W18133  16.325   7.505  13.878 -0.1802  0.0727  0.1059
 2665W        W18134  12.499   7.444   1.102  0.0201  0.1696  0.3054
 2666W        W18135   7.509  12.881  13.697  0.3223  0.0186  0.3980
 2667W        W18136  14.609   2.609  11.418  0.1120  0.5242 -0.0558
 2668W        W18137   4.510  11.357   0.582  0.1361  0.0359 -0.1831
 2669W        W18138  11.547  12.520   1.004 -0.3497 -0.0763 -0.0673
 2670W        W18139  17.757  15.908  11.336 -0.3047  0.2320  0.0090
 2671W        W18140   5.894  11.600   2.700 -0.1219  0.2699 -0.0899
 2672W        W18141  17.523   0.304  11.635 -0.0993 -0.2416 -0.0750
 2673W        W18142  11.242  12.322  13.176  0.2010 -0.0615 -0.2874
 2674W        W18143   5.307   7.618   0.980  0.1570  0.0519  0.1908
 2675W        W18144  12.969  13.476  14.215 -0.3308  0.0759  0.1413
 2676W        W18145   9.797  13.959  11.265 -0.1281 -0.0717  0.3048
 2677W        W18146  14.284   8.416  10.594  0.2624  0.2100 -0.1269
 2678W        W18147   3.845   3.129   2.662  0.3005  0.0327 -0.1082
 2679W        W18148  11.362   7.777   4.812 -0.1867 -0.2485  0.0051
 2680W        W18149  12.394  16.289   4.820  0.2160 -0.2141  0.1114
 2681W        W18150   2.841   7.464   2.766 -0.1104 -0.1181  0.2217
 2682W        W18151  18.436  17.728  13.438  0.0798 -0.1905 -0.2034
 2683W        W18152  17.621   8.959   4.741 -0.0884 -0.0009  0.1722
 2684W        W18153   4.898   5.147  12.900  0.0985  0.3073  0.0538
 2685W        W18154   6.128  18.161   4.640  0.0112  0.1494 -0.1965
 2686W        W18155   0.156   9.143  11.982 -0.4075  0.0892  0.2841
 2687W        W18156   8.108  17.363  13.684  0.0874  0.1737 -0.1375
 2688W        W18157   5.884  14.619   5.702 -0.0593  0.0270 -0.1599
 2689W        W18158  13.200  15.490  13.330  0.0249  0.1056  0.1589
 2690W        W18159  15.541  14.108  15.354  0.4573 -0.1393 -0.0934
 2691W        W18160  17.863   7.648  14.701  0.3643 -0.6396  0.0559
 2692W        W18161  15.512   0.172  12.009  0.0385  0.1133 -0.2620
 2693W        W18162   7.239  17.131  11.304 -0.2165  0.0582  0.2003
 2694W        W18163  14.310   6.880  11.215  0.0454  0.2128  0.0829
 2695W        W18164   1.580   9.832  12.309  0.0729  0.0099 -0.0173
 2696W        W18165  15.893  17.257   0.611  0.2346 -0.1340  0.2482
 2697W        W18166   5.523   2.430   5.701  0.0786  0.1618  0.2304
 2698W        W18167  18.674  16.940   9.801  0.1319  0.2092  0.1192
 2699W        W18168  18.477   5.707   3.520  0.1183  0.0745 -0.1781
 2700W        W18169   3.732   8.492  14.180  0.1642  0.3298  0.2004
 2701W        W18170  16.321  13.224  11.795 -0.0161 -0.0193 -0.0503
 2702W        W18171  12.814   8.613  12.274 -0.3696 -0.2896  0.0515
 2703W        W18172   3.657  12.604  14.795  0.1588 -0.1015 -0.1277
 2704W        W18173  15.857   2.072   1.697 -0.2593  0.3111  0.0804
 2705W        W18174  11.376  10.534   4.210  0.1273  0.1245  0.0812
 2706W        W18175  11.435   0.623  11.342  0.1687  0.0928 -0.0983
 2707W        W18176   2.417  17.113  10.538 -0.2761 -0.1628  0.0367
 2708W        W18177  15.249   6.673  14.068  0.1399 -0.3175  0.4315
 2709W        W18178   6.983   2.110  13.156  0.0727  0.1191 -0.1352
 2710W        W18179   8.169  11.949   1.920 -0.4455  0.3679 -0.0888
 2711W        W18180   6.967   9.493   4.058 -0.1745  0.0670  0.2498
 2712W        W18181   7.533  12.546  14.142 -0.1530 -0.1139  0.4543
 2713W        W18182   2.344  11.127  10.999  0.5564  0.0371  0.1577
 2714W        W18183   1.776   7.271   5.894 -0.0039  0.1944  0.0701
 2715W        W18184   3.797  10.764   3.282 -0.1210  0.2858  0.3411
 2716W        W18185  17.109  17.109  11.420 -0.0371 -0.1671  0.0520
 2717W        W18186   4.828   3.876  14.759 -0.2540  0.3967 -0.1968
 2718W        W18187  17.946   9.435   0.315 -0.1483  0.0582  0.2704
 2719W        W18188  17.194   2.466   1.438  0.1739 -0.0135  0.1951
 2720W        W18189  16.395  18.466   2.407 -0.2131 -0.0854 -0.1790
 2721W        W18190   5.460  17.807   4.901  0.0327 -0.1315  0.0377
 2722W        W18191   9.827   2.989  13.492 -0.1249 -0.0792  0.1556
 2723W        W18192  15.189   4.743   0.378 -0.1398 -0.0365 -0.1713
 2724W        W18193   8.246   2.907  11.759 -0.0883  0.0918  0.1118
 2725W        W18194   4.749  13.654   1.779  0.0730  0.1142 -0.1721
 2726W        W18195  13.605   9.928   4.813 -0.1501  0.0595  0.0156
 2727W        W18196   5.341   2.296   1.668 -0.0740  0.1319 -0.0074
 2728W        W18197   9.232   2.510  12.277  0.1840 -0.1298 -0.2181
 2729W        W18198  13.235   2.406   2.004  0.1774  0.1180 -0.2246
 2730W        W18199  13.044   5.498   0.782 -0.2636  0.0198 -0.2398
 2731W        W18200   3.092   5.409  13.219  0.3355  0.0507 -0.2055
 2732W        W18201  11.873  12.128   1.156  0.0447  0.2468 -0.3704
 2733W        W18202  16.667   8.236  13.499 -0.2498  0.2232 -0.0308
 2734W        W18203  11.382  18.480   0.362  0.0560  0.0816  0.0740
 2735W        W18204   9.304   4.489   4.277 -0.0215  0.2386  0.1693
 2736W        W18205   9.737   7.239   3.587  0.1684 -0.0522  0.1511
 2737W        W18206   4.220   5.359   2.460 -0.2187 -0.0777  0.0025
 2738W        W18207  10.181   3.347   0.081  0.0839  0.2730 -0.2265
 2739W        W18208   7.225  15.942   4.055  0.2821 -0.0801 -0.1138
 2740W        W18209   5.536   7.135  10.471 -0.2195 -0.0830  0.4094
 2741W        W18210  17.343   6.412   1.199 -0.0584  0.2670  0.0693
 2742W        W18211   6.885  13.716  11.884  0.0525  0.3012  0.0946
 2743W        W18212  18.097   3.759   1.643  0.1269  0.0104 -0.3191
 2744W        W18213   5.439   0.969  10.992 -0.1318  0.2465  0.1145
 2745W        W18214  10.297  14.942   3.705  0.1237 -0.1941  0.2739
 2746W        W18215   7.682  13.186   1.806 -0.0686  0.0334 -0.2208
 2747W        W18216   7.136   0.593   3.700  0.0847  0.0626  0.5443
 2748W        W18217   7.377   5.055  13.077  0.1017 -0.1799 -0.0440
 2749W        W18218  12.818  11.494   6.207  0.0227 -0.2226  0.0745
 2750W        W18219   1.886  18.860  14.010  0.4683  0.2805 -0.2640
 2751W        W18220   2.106  12.610   5.130  0.2281  0.2434  0.1011
 2752W        W18221   8.127   4.074   3.653 -0.0570  0.1972  0.1733
 2753W        W18222  13.176   0.577   0.175  0.3678  0.2400 -0.2091
 2754W        W18223  16.962   0.131  12.404 -0.2872 -0.1100  0.0773
 2755W        W18224   8.632  12.057  10.769 -0.0271 -0.1578  0.0366
 2756W        W18225  14.190  16.072   4.340 -0.0459 -0.3661  0.1621
 2757W        W18226  11.437  18.471  11.446  0.1572  0.1122 -0.0414
 2758W        W18227   4.847  11.356   0.972  0.0922 -0.1463  0.2271
 2759W        W18228   7.459   7.858   0.278 -0.2296 -0.2697 -0.0560
 2760W        W18229   9.627   9.252  13.051 -0.0279 -0.0490  0.4744
 2761W        W18230   8.509   7.993   3.360 -0.0081  0.1611  0.0153
 2762W        W18231  10.548   2.254  11.490 -0.1770  0.1343  0.4139
 2763W        W18232  10.386  12.305   5.282 -0.2388  0.3354  0.0809
 2764W        W18233  11.101  14.080   3.102 -0.2168 -0.3316  0.0270
 2765W        W18234  12.798   4.699  10.668  0.2212 -0.0420 -0.0743
 2766W        W18235  17.704  14.095   1.683  0.0660  0.1371  0.2012
 2767W        W18236  14.573   0.807  12.863  0.2342 -0.2357  0.0315
 2768W        W18237  14.928   4.150   1.230  0.1187 -0.0896 -0.3727
 2769W        W18238  12.807   6.953  14.829 -0.0442 -0.0564 -0.3168
 2770W        W18239  12.151  12.760  14.085  0.0955 -0.1603  0.0740
 2771W        W18240  16.015   7.679  11.013 -0.1027 -0.3025 -0.0947
 2772W        W18241   0.548   7.671   3.972 -0.2160 -0.1205 -0.1196
 2773W        W18242  16.421  11.133   4.456  0.0981 -0.2447 -0.5192
 2774W        W18243  11.969   4.324   4.848 -0.0019  0.0128  0.1621
 2775W        W18244  10.625  18.157  15.077 -0.1290  0.4872  0.1408
 2776W        W18245  18.490  15.144   2.603  0.0956 -0.2731 -0.1438
 2777W        W18246  16.596  12.797  10.876 -0.0808  0.0607  0.0520
 2778W        W18247   4.801   9.746   2.136 -0.0785 -0.2245  0.0140
 2779W        W18248  13.765  18.053  12.100 -0.0428 -0.0261 -0.0792
 2780W        W18249   2.743  15.291  12.178  0.2688 -0.0187 -0.0480
 2781W        W18250  13.389   5.544   1.691 -0.1390 -0.0691 -0.1200
 2782W        W18251  12.725   5.473   3.710  0.0847 -0.3577 -0.2396
 2783W        W18252   1.201  16.857   4.537  0.1209 -0.1821  0.1449
 2784W        W18253  16.978   4.031   3.878  0.2672  0.3732 -0.2170
 2785W        W18254  12.132   6.959  10.413 -0.0458 -0.3278  0.2091
 2786W        W18255   3.890  18.374  11.415  0.2482  0.1567 -0.0910
 2787W        W18256  13.739   5.557  11.928  0.2460 -0.0688 -0.3314
 2788W        W18257   1.440   8.881   5.172 -0.0469  0.3372 -0.0445
 2789W        W18258  17.736   2.058   0.993 -0.2058 -0.1023 -0.2837
 2790W        W18259   4.752   6.961   1.764 -0.1830  0.0995  0.0766
 2791W        W18260   3.647   1.244   1.071 -0.1667 -0.1691  0.1376
 2792W        W18261   1.686   6.415  13.996 -0.0363 -0.0057  0.3131
 2793W        W18262  15.163  17.518   0.187  0.2583  0.0912  0.1119
 2794W        W18263  16.590  14.589  10.793  0.0925  0.2351  0.2025
 2795W        W18264   0.603   2.868  14.932  0.1890 -0.1682 -0.0372
 2796W        W18265   6.513   9.419   4.296  0.0721  0.2589 -0.0367
 2797W        W18266  14.532   2.710  13.740 -0.3143 -0.0603 -0.0167
 2798W        W18267   1.462  10.470   4.595 -0.0132  0.1541  0.1512
 2799W        W18268   7.494   4.147   4.512  0.0356 -0.0551  0.2833
 2800W        W18269   2.783   3.455  13.450  0.0839 -0.0031  0.2900
 2801W        W18270   3.107  12.222  14.997  0.2984  0.0158  0.1390
 2802W        W18271  17.076   4.607  15.440 -0.1789 -0.0127 -0.5361
 2803W        W18272  13.190   6.324   0.494 -0.1712 -0.2869 -0.0758
 2804W        W18273  14.332   0.328  15.413  0.0860 -0.1866 -0.0198
 2805W        W18274  14.849  16.939   3.395 -0.1509 -0.1635 -0.1338
 2806W        W18275   2.883  16.371  13.217 -0.1106 -0.0579 -0.0597
 2807W        W18276   7.149  18.487   1.971  0.1541  0.1404 -0.0280
 2808W        W18277  17.377   6.312   5.014  0.0472  0.1784 -0.2743
 2809W        W18278  11.460  16.300   1.076 -0.1902  0.2732 -0.0944
 2810W        W18279  10.760  13.792  14.824 -0.4380  0.1758 -0.5810
 2811W        W18280  16.464  12.939   0.828  0.5711  0.0829  0.3850
 2812W        W18281   5.278  16.496  12.730  0.0294  0.3223  0.0413
 2813W        W18282  11.774  14.679   5.988 -0.0256  0.1043 -0.3544
 2814W        W18283  17.967  11.679   0.797  0.0601 -0.0338 -0.2283
 2815W        W18284   3.696  10.237  13.561  0.3356 -0.2457 -0.0331
 2816W        W18285   1.817   3.267   5.472 -0.1205  0.2062  0.2653
 2817W        W18286   5.020   5.027  11.983  0.0717  0.2322 -0.1931
 2818W        W18287   1.145   3.883  14.254 -0.0353  0.6172 -0.1195
 2819W        W18288   2.315   2.944  13.361  0.0174  0.2694 -0.2503
 2820W        W18289   9.766   2.389   1.387  0.0587 -0.0953  0.1801
 2821W        W18290  12.099  18.027   3.306 -0.0018  0.1056  0.1151
 2822W        W18291  16.902  14.763  14.223 -0.0290 -0.0266 -0.1036
 2823W        W18292  16.045   8.140   1.028  0.0094  0.1113  0.0424
 2824W        W18293   9.963  15.088   3.280  0.0743 -0.2258  0.0358
 2825W        W18294   0.669  16.414   0.400  0.0408  0.2247  0.3782
 2826W        W18295   4.518  14.647   2.783 -0.0426  0.0501 -0.0085
 2827W        W18296   2.754   6.201   0.905  0.1056 -0.2794 -0.0853
 2828W        W18297   4.756  12.886  15.454  0.1093 -0.2853 -0.3271
 2829W        W18298   1.945   1.756  11.503 -0.0074 -0.1241  0.2498
 2830W        W18299   4.422   2.781  12.886 -0.2796 -0.1246  0.2322
 2831W        W18300  18.622  10.417  13.582 -0.0207  0.1669  0.2103
 2832W        W18301  18.578   6.175  14.908 -0.2039  0.0087 -0.1282
 2833W        W18302   5.636   4.432  10.493  0.0275  0.2078 -0.2596
 2834W        W18303   4.245  16.444   0.359  0.0666  0.3345 -0.1748
 2835W        W18304   5.028   8.545  13.314 -0.1560  0.0071 -0.1017
 2836W        W18305   5.632   9.792  14.702  0.1145 -0.1906 -0.1453
 2837W        W18306   1.603   2.511   2.250  0.1514 -0.1806 -0.2844
 2838W        W18307  18.586  15.775   4.282  0.0790 -0.1654 -0.1309
 2839W        W18308   7.332   3.124  12.589 -0.0229  0.1699 -0.0875
 2840W        W18309  13.468  13.930  13.465 -0.1044 -0.1181 -0.1959
 2841W        W18310   0.380   7.601   0.595  0.1171 -0.0145  0.2883
 2842W        W18311   2.421  11.575  12.043  0.0534  0.1373 -0.1550
 2843W        W18312   6.395   1.334  15.444 -0.0632 -0.1194 -0.0310
 2844W        W18313   5.246  18.919   4.351 -0.0063 -0.1055 -0.2847
 2845W        W18314  10.081   1.104  13.207 -0.2591  0.3130  0.0312
 2846W        W18315  11.067   5.419  14.923  0.2887 -0.1901 -0.0373
 2847W        W18316   9.436   8.967  12.569  0.0677  0.1232 -0.2922
 2848W        W18317  16.433  12.603  15.089  0.1115  0.0353  0.1627
 2849W        W18318  10.921   5.131  13.648  0.0075  0.2722  0.1401
 2850W        W18319  17.888  15.154   1.588  0.0270 -0.2684  0.1336
 2851W        W18320   4.012  13.876   4.921 -0.1525  0.1830 -0.1216
 2852W        W18321   8.724  15.441   6.011  0.1317  0.1041 -0.1519
 2853W        W18322  12.948   5.573   4.373 -0.0688 -0.2988 -0.1644
 2854W        W18323  18.481   2.912  13.928  0.0271  0.0333  0.1050
 2855W        W18324  10.320   1.305   2.762 -0.2013  0.2056 -0.2036
 2856W        W18325   4.548  10.981  15.174 -0.1718 -0.2628  0.2237
 2857W        W18326  18.790   0.514  11.965  0.2048  0.3877  0.0628
 2858W        W18327  12.815   8.071   2.084  0.0220  0.0590 -0.1083
 2859W        W18328   0.107  12.674  10.248  0.1964 -0.1564  0.2318
 2860W        W18329   3.985   1.299  11.486  0.0023  0.0963 -0.0432
 2861W        W18330   7.892   7.798  12.925 -0.3427  0.0038 -0.0884
 2862W        W18331   7.228   2.851  15.056  0.0182  0.3312 -0.3372
 2863W        W18332  11.683  16.483  12.145 -0.0627  0.2555 -0.1372
 2864W        W18333  13.047  17.645   5.285  0.1096  0.2205  0.0338
 2865W        W18334   0.372  15.734   5.054  0.1589 -0.1140 -0.0268
 2866W        W18335   1.276  17.548  12.992  0.0949 -0.1912 -0.0242
 2867W        W18336   3.101  11.566   4.896  0.3853 -0.1095 -0.1610
 2868W        W18337  17.512   7.334  15.095  0.0439 -0.1730  0.0086
 2869W        W18338  18.236  15.022  11.539  0.0461  0.0293  0.0915
 2870W        W18339   3.101   1.152   4.371  0.1214  0.2321  0.1691
 2871W        W18340  18.585  10.806  15.504  0.1742  0.0761  0.2172
 2872W        W18341  17.988  12.071  14.647  0.1474 -0.0473  0.3915
 2873W        W18342  15.570  10.804  13.740  0.0977 -0.0686 -0.1194
 2874W        W18343  14.242   5.490  11.593 -0.0949 -0.1881 -0.2157
 2875W        W18344  17.082  18.521   1.671  0.0047 -0.2101  0.0092
 2876W        W18345   6.366   1.262  11.205  0.0663  0.3095  0.1344
 2877W        W18346  16.673   1.399   4.839 -0.1041 -0.1835 -0.0299
 2878W        W18347   5.413   8.499   1.159  0.2519 -0.2013 -0.4498
 2879W        W18348   7.014   4.555  14.576  0.0996 -0.4290 -0.1449
 2880W        W18349   2.596  11.250  13.386  0.1592 -0.1087 -0.1107
 2881W        W18350  17.769   5.404  12.575  0.3092 -0.2289  0.1294
 2882W        W18351  18.846   4.218   3.167 -0.2234  0.1725  0.0246
 2883W        W18352  12.406  10.614  12.951 -0.0350  0.1546  0.1057
 2884W        W18353   6.103   7.980  14.647 -0.2469  0.0753 -0.2113
 2885W        W18354  11.367  16.406   4.936 -0.0264  0.0564 -0.0334
 2886W        W18355  17.161  14.880  12.092 -0.0689  0.1098 -0.2642
 2887W        W18356  10.141   9.314  12.996  0.0297  0.3751 -0.0966
 2888W        W18357  18.195   2.897  14.886 -0.0391 -0.1417  0.0463
 2889W        W18358  13.055   3.067  10.973 -0.2541  0.1953  0.2743
 2890W        W18359   4.472  11.842   3.044 -0.0678  0.0838  0.0711
 2891W        W18360  12.683   7.896  11.319  0.0374 -0.0178 -0.0750
 2892W        W18361   3.248   6.189   0.059 -0.1164  0.4229 -0.0020
 2893W        W18362  10.194   6.753   2.014 -0.1990  0.3943  0.2254
 2894W        W18363  18.593   4.538  12.572  0.1760 -0.2331  0.3055
 2895W        W18364  15.266  12.954   5.088  0.4285 -0.0481  0.0408
 2896W        W18365  17.165  16.404   4.636  0.1808 -0.0313  0.2832
 2897W        W18366   7.694  18.041   1.107  0.0493 -0.0763 -0.2363
 2898W        W18367   7.758  16.389   2.130  0.1467 -0.1863  0.1481
 2899W        W18368   9.922  12.558   5.145 -0.2719 -0.0143 -0.5259
 2900W        W18369   6.976   7.158   3.289 -0.1179  0.2476  0.0070
 2901W        W18370   1.063   4.695   0.058  0.0377  0.1718 -0.2202
 2902W        W18371  16.887   2.053  13.090  0.0886  0.1663  0.1720
 2903W        W18372   4.042  15.715  14.643 -0.0021 -0.4379 -0.2253
 2904W        W18373  13.031   2.069   1.493 -0.1481  0.0920 -0.1027
 2905W        W18374  17.375   2.081  11.777  0.3310 -0.3399  0.1026
 2906W        W18375   7.887   5.102  12.199  0.0706 -0.3569  0.2391
 2907W        W18376  15.115  10.104   4.495 -0.1851  0.1349  0.2551
 2908W        W18377  10.957   2.465   2.466 -0.0060  0.1883 -0.0035
 2909W        W18378   4.005  16.318  14.131  0.2040 -0.0374  0.1450
 2910W        W18379   4.747   3.147   0.674 -0.0547  0.0134 -0.2816
 2911W        W18380   3.748   0.257  12.933 -0.0683 -0.0039  0.0849
 2912W        W18381   5.533   3.220   9.850 -0.3147 -0.1459 -0.0543
 2913W        W18382   9.745   0.320   0.303 -0.5753  0.3954 -0.0539
 2914W        W18383  10.873   8.040   4.878 -0.0634 -0.0251  0.1609
 2915W        W18384   6.483  16.873   1.779  0.0015 -0.0108  0.0669
 2916W        W18385  17.216   2.978  10.709 -0.2244  0.0414  0.0122
 2917W        W18386   0.594   0.960   3.385 -0.0410  0.5367 -0.0445
 2918W        W18387  11.298  13.950  11.794  0.1004 -0.2074 -0.1254
 2919W        W18388   2.461  11.189  15.177  0.1702 -0.2807  0.3770
 2920W        W18389   1.187   7.889   5.555 -0.2977  0.1101  0.0832
 2921W        W18390  18.625   8.131   2.759  0.1454  0.1364  0.3024
 2922W        W18391   5.850  15.594   3.554  0.1569 -0.1568  0.1845
 2923W        W18392  18.566   8.756   0.368  0.0018  0.0160  0.0718
 2924W        W18393  11.135  14.532  14.162  0.2271 -0.1628 -0.2292
 2925W        W18394  10.155  10.580   3.166  0.0085  0.0923  0.1681
 2926W        W18395  15.941  16.167  12.985 -0.1741  0.0080 -0.0981
 2927W        W18396   8.826  18.702  13.252 -0.2762  0.0398 -0.4521
 2928W        W18397  13.801   5.814   1.885  0.4656 -0.1472  0.2394
 2929W        W18398  12.949  15.679   4.099  0.3725  0.1110  0.0180
 2930W        W18399  10.101  11.210  11.257 -0.2565 -0.1577 -0.1020
 2931W        W18400   9.090  16.922   0.223  0.0061 -0.1657 -0.0366
 2932W        W18401   9.160   2.371   4.458  0.1123 -0.0520  0.2449
 2933W        W18402   2.433  14.257   3.816 -0.1102 -0.0871  0.0687
 2934W        W18403   9.634   7.697  11.884  0.2604 -0.1136 -0.2030
 2935W        W18404   4.755   7.948   0.983 -0.0407  0.1717 -0.0906
 2936W        W18405   0.335   2.350  14.505 -0.1005 -0.1116  0.1665
 2937W        W18406  11.170   2.632  10.447 -0.1659 -0.3697 -0.0282
 2938W        W18407   1.035  18.779  12.290 -0.0510  0.0164  0.4546
 2939W        W18408   3.790  12.859  12.756 -0.0457 -0.0846 -0.2226
 2940W        W18409  15.041   6.465   3.820 -0.0888  0.1589  0.0345
 2941W        W18410  14.713  10.618  14.379  0.0027  0.0975 -0.3175
 2942W        W18411  11.076   1.288   1.006  0.0681 -0.0721  0.1512
 2943W        W18412  16.420   4.753   4.604 -0.1107 -0.0145 -0.0544
 2944W        W18413   7.476  14.755   2.556 -0.0716 -0.0456 -0.0625
 2945W        W18414   5.138  11.857   5.036 -0.0694 -0.0309  0.0156
 2946W        W18415   8.958  12.949  13.551  0.1672  0.2414 -0.1227
 2947W        W18416  10.140   7.594   2.021  0.1512 -0.1695 -0.2093
 2948W        W18417  12.148   2.350   1.132 -0.0653 -0.0746  0.4656
 2949W        W18418  17.112  15.634   2.453  0.0585 -0.1504  0.1379
 2950W        W18419   7.304  10.974   2.320  0.0850  0.4822 -0.3400
 2951W        W18420   8.049  10.990  10.954 -0.1662  0.0550 -0.0587
 2952W        W18421   5.718   0.611  13.742 -0.0342 -0.3177  0.1405
 2953W        W18422   4.097  11.407  12.496 -0.0230 -0.0628 -0.4739
 2954W        W18423   7.945   8.940  12.442  0.1166  0.1725  0.0932
 2955W        W18424   0.709  17.305  13.761  0.2041  0.0535 -0.1916
 2956W        W18425  11.741   9.169   4.040 -0.0454  0.2292 -0.1305
 2957W        W18426  14.985   0.533   4.442  0.1956 -0.1511  0.0664
 2958W        W18427  17.670   7.020  13.553 -0.1521 -0.0342  0.2327
 2959W        W18428   3.329  16.917   1.010  0.3868  0.3009  0.2404
 2960W        W18429  16.976  10.319   4.362 -0.0814  0.0885  0.1077
 2961W        W18430  16.024   5.013  13.774  0.2273  0.0130  0.0755
 2962W        W18431  12.032   5.575   2.188  0.0347 -0.1100  0.1087
 2963W        W18432   8.379   4.065  10.022 -0.1274 -0.1111  0.1270
 2964W        W18433   7.614   9.095  10.575 -0.1495 -0.2273  0.0036
 2965W        W18434   0.900   4.031   0.506  0.0690  0.3157  0.0433
 2966W        W18435  11.117  17.045  15.245 -0.0232  0.0296 -0.1594
 2967W        W18436   4.607   2.472   0.742 -0.1890  0.0004 -0.2400
 2968W        W18437   2.837   1.567  15.388  0.1705 -0.1654 -0.4182
 2969W        W18438  10.941   8.903   0.855  0.1832 -0.0757  0.1303
 2970W        W18439   2.090   3.910   3.427 -0.1232  0.0155 -0.1751
 2971W        W18440   6.155   0.402  13.907 -0.0179  0.0081  0.1582
 2972W        W18441  10.222  14.953   4.216 -0.1258 -0.0024 -0.0063
 2973W        W18442   9.050  16.456   1.456 -0.4358  0.4244 -0.0252
 2974W        W18443   4.944   7.445  12.433 -0.2243 -0.0635  0.0098
 2975W        W18444   9.672  11.341  14.486  0.0631  0.1016  0.1579
 2976W        W18445  14.442   4.444   1.704 -0.0863  0.0006  0.4971
 2977W        W18446   9.840  13.519   3.852 -0.3235  0.1762  0.0325
 2978W        W18447  14.827   6.201  13.227 -0.4422  0.1478  0.2938
 2979W        W18448  13.297  12.554   9.853 -0.0270 -0.0943 -0.0161
 2980W        W18449  15.631  11.556   2.254 -0.1464 -0.0403  0.1800
 2981W        W18450  16.800   3.598   4.105 -0.0033 -0.1111 -0.1960
 2982W        W18451   6.257  12.465   1.702  0.1949 -0.1405  0.3906
 2983W        W18452   4.752   5.004   2.923  0.3786  0.0063 -0.1540
 2984W        W18453  14.382   9.942  11.433  0.1662  0.1558 -0.1113
 2985W        W18454   4.765   5.657   0.843 -0.4289  0.0087  0.0765
 2986W        W18455  10.194   0.772   3.816 -0.2942  0.1009  0.2556
 2987W        W18456  14.181  12.925  13.766 -0.0670  0.2554 -0.0892
 2988W        W18457   8.840   6.430   0.174 -0.1733 -0.0876  0.1672
 2989W        W18458   2.704  18.714   0.357 -0.0374  0.1084 -0.4150
 2990W        W18459   4.887  13.923   4.459  0.2246  0.0301  0.0475
 2991W        W18460  11.306  14.453  15.346 -0.1384  0.0420  0.1285
 2992W        W18461  14.370   0.870   1.861  0.0755  0.1534 -0.0555
 2993W        W18462  10.728   9.748   2.953  0.3536 -0.1460 -0.0943
 2994W        W18463  12.752  14.800  14.832  0.3262 -0.0508  0.1344
 2995W        W18464  17.555   8.363  10.439 -0.0006  0.1087  0.0343
 2996W        W18465   7.166   0.268   6.108  0.1733 -0.2311 -0.2811
 2997W        W18466  12.536   4.703   4.460  0.0801  0.0342  0.1252
 2998W        W18467   0.016   4.667   0.516 -0.0578  0.0537 -0.1649
 2999W        W18468  14.839  12.447  11.380  0.0100  0.1016  0.0417
 3000W        W18469   1.305  11.947  10.677 -0.2111 -0.2679  0.1753
 3001W        W18470  12.852   9.373   2.519  0.1608 -0.0293 -0.3110
 3002W        W18471  17.167  17.759  11.946 -0.0583 -0.2425 -0.2763
 3003W        W18472  10.156   3.775   2.295 -0.0678 -0.0505 -0.2490
 3004W        W18473  15.509  11.289   4.609 -0.0029 -0.1234 -0.2820
 3005W        W18474  11.385  17.490  15.241 -0.4556  0.1715 -0.0318
 3006W        W18475  12.856   3.476  13.234 -0.1505  0.2558 -0.2244
 3007W        W18476   2.382  17.669  11.383  0.0101 -0.1935 -0.0563
 3008W        W18477   5.158  17.313  12.330 -0.1101  0.0103  0.0277
 3009W        W18478  13.715  17.594  10.754 -0.2729 -0.3825 -0.3581
 3010W        W18479  16.354   9.563  10.448  0.0906 -0.3862 -0.0021
 3011W        W18480  11.960  17.464  12.615 -0.2315 -0.4278 -0.0338
 3012W        W18481  12.218   6.144   2.889  0.1777 -0.0130  0.3493
 3013W        W18482  10.710   6.988   0.637 -0.2817 -0.1834 -0.0197
 3014W        W18483  11.709  17.210   2.880 -0.3797 -0.1866 -0.1001
 3015W        W18484  18.348   2.692   2.431  0.1353 -0.0407  0.2253
 3016W        W18485  12.273  17.594  13.610 -0.1438 -0.2792  0.0305
 3017W        W18486   2.072   9.572  14.020 -0.0742  0.0252 -0.0763
 3018W        W18487  15.866   9.873   0.494  0.2894  0.1623  0.1889
 3019W        W18488  15.577   1.724   3.054  0.0775  0.3452  0.2270
 3020W        W18489   3.324   1.824   3.763  0.2241  0.0880 -0.0149
 3021W        W18490   3.801   9.346  15.282  0.1600 -0.0584  0.1829
 3022W        W18491   7.122   4.586  13.646  0.1601  0.4249  0.0974
 3023W        W18492   6.604   7.489  11.639  0.1661 -0.2340  0.2763
 3024W        W18493  18.899  17.026  11.488  0.1246  0.0772 -0.2106
 3025W        W18494  10.777  17.397   0.670 -0.2441 -0.0492  0.0485
 3026W        W18495  15.053   8.967   3.062  0.3219  0.4329 -0.2763
 3027W        W18496   4.644   8.638   4.820  0.3473 -0.0287 -0.0731
 3028W        W18497  15.279  14.780   4.937  0.2643 -0.2328  0.3379
 3029W        W18498   5.786   8.343   4.449 -0.3058 -0.1439  0.4033
 3030W        W18499   7.460  17.986   3.990  0.2194  0.0773 -0.4380
 3031W        W18500   4.767   3.276   5.066  0.0916 -0.1349  0.1110
 3032W        W18501   5.324  10.797  12.116 -0.2211  0.1026  0.2647
 3033W        W18502  10.819   7.362  12.766 -0.2169  0.3277  0.1208
 3034W        W18503   9.362  11.724  14.367  0.1863 -0.0759 -0.0526
 3035W        W18504   6.168   8.759   4.708  0.0888 -0.2769 -0.0172
 3036W        W18505   7.091   3.919   4.768  0.2874 -0.0614 -0.0181
 3037W        W18506   6.862  13.967  11.294  0.1073  0.2697  0.1465
 3038W        W18507   7.342   1.446  10.469 -0.2153  0.1291 -0.0688
 3039W        W18508   0.768  11.983  10.345 -0.3797  0.2745 -0.0148
 3040W        W18509  17.817   2.830   4.373  0.0269 -0.1544  0.1858
 3041W        W18510  17.368   1.339   1.998  0.1182  0.3916 -0.3548
 3042W        W18511   2.143  13.697  11.942 -0.0151  0.0071  0.1921
 3043W        W18512   6.068   4.040   0.674 -0.0057 -0.0996  0.2541
 3044W        W18513  12.592  12.598  11.177 -0.1419  0.1384 -0.0872
 3045W        W18514   1.487  11.205  14.611 -0.0203  0.1073 -0.2235
 3046W        W18515   9.365  12.226   3.260  0.1096  0.0600  0.0805
 3047W        W18516   5.624  15.182   1.666 -0.0663  0.2149 -0.1944
 3048W        W18517   6.056  13.412   4.109  0.0583 -0.0271  0.0352
 3049W        W18518  13.232   0.519  10.377 -0.0538  0.0660  0.0586
 3050W        W18519   0.571   6.113   3.424  0.3845  0.3486  0.2220
 3051W        W18520   6.625  15.315  14.323  0.2996 -0.3222 -0.1429
 3052W        W18521   3.845  10.865   2.755  0.2907  0.1410  0.0535
 3053W        W18522   3.249  17.186   4.037  0.2864  0.2450 -0.1651
 3054W        W18523   0.272   9.019  15.201 -0.4559 -0.0031  0.2868
 3055W        W18524  18.730   6.282   1.595  0.2579 -0.1073  0.0703
 3056W        W18525  17.647  11.297  14.284  0.1150 -0.0256  0.1754
 3057W        W18526   3.333   0.498   3.065 -0.2297  0.4352 -0.0772
 3058W        W18527  12.472   8.003  14.199 -0.3159 -0.1693 -0.0947
 3059W        W18528  10.856  11.799  10.928 -0.0022  0.1849 -0.1123
 3060W        W18529  16.083  17.929  13.818  0.0203  0.1372 -0.0093
 3061W        W18530  11.012  13.442   5.579  0.0768 -0.0508 -0.1904
 3062W        W18531   1.288  14.925  12.495  0.2021  0.2996 -0.0111
 3063W        W18532  11.021  18.805   0.178  0.1696  0.1665  0.2698
 3064W        W18533  17.851  14.141   0.024  0.0834 -0.2870 -0.3731
 3065W        W18534   5.492   1.582   0.345  0.3086  0.0212 -0.2775
 3066W        W18535  15.868   7.324   3.826 -0.3124  0.0096  0.1903
 3067W        W18536  17.102   1.116  15.272  0.1487 -0.2049 -0.3551
 3068W        W18537   2.374   9.321   3.692  0.0981 -0.0532  0.1827
 3069W        W18538  17.039   2.459   2.040  0.0677  0.0849  0.1612
 3070W        W18539  17.383   1.977   1.366  0.0014  0.1134  0.0434
 3071W        W18540  16.285  18.905   1.671 -0.1312 -0.2436  0.0118
 3072W        W18541   2.886   2.560  11.325  0.0239  0.0477 -0.1698
 3073W        W18542   6.696  12.923   1.017 -0.0139 -0.2019 -0.1173
 3074W        W18543   9.777   6.758   1.777 -0.0940  0.0957  0.0204
 3075W        W18544  13.028   3.481   2.182  0.0221 -0.3070 -0.0582
 3076W        W18545  14.575   3.917  14.264 -0.0899 -0.0227  0.2429
 3077W        W18546   2.171  10.683   1.134 -0.3125  0.1462 -0.0380
 3078W        W18547   1.389   5.194  15.507  0.0332  0.1653  0.0169
 3079W        W18548   4.827  12.713   3.396  0.1061 -0.4107  0.1096
 3080W        W18549   3.525  10.000   2.495  0.0493  0.1936  0.0306
 3081W        W18550  12.098   7.113   0.989 -0.2776 -0.3876 -0.0717
 3082W        W18551   6.122   9.049   2.963 -0.2484 -0.0860  0.0936
 3083W        W18552   8.570   5.136  14.512 -0.0076 -0.0710 -0.0240
 3084W        W18553  13.196   9.300   2.987 -0.1597  0.0854  0.2832
 3085W        W18554  10.783   0.363  13.209  0.2542  0.1081  0.2061
 3086W        W18555  15.235   4.469  12.276  0.2184 -0.2103 -0.2395
 3087W        W18556   0.415   3.375   0.805  0.0387 -0.3235 -0.0085
 3088W        W18557  10.763  16.544  11.734 -0.1939  0.1261  0.3016
 3089W        W18558   4.218   1.391   0.040  0.6013 -0.0293 -0.0262
 3090W        W18559   9.148  13.720   2.115 -0.0857 -0.3583 -0.0625
 3091W        W18560  18.876   6.212  11.409 -0.0984  0.3036 -0.2582
 3092W        W18561  14.641   2.719  15.353 -0.0201  0.1984 -0.0243
 3093W        W18562  15.214  12.682   4.607  0.0117 -0.1518  0.2675
 3094W        W18563   3.090  14.096  14.560 -0.0522  0.3162  0.0279
 3095W        W18564  11.505  14.917   2.976 -0.0466 -0.1116  0.2951
 3096W        W18565   9.140  11.042   1.249  0.2006 -0.1011 -0.1000
 3097W        W18566   2.268   2.447   2.890 -0.2722  0.3110  0.3116
 3098W        W18567  16.552  16.511  13.588 -0.1705  0.1074  0.1645
 3099W        W18568  17.316  14.757   4.047  0.0101 -0.2552  0.0095
 3100W        W18569  17.278  14.632   1.161 -0.3578 -0.1974  0.1781
 3101W        W18570  11.427  14.321   4.252  0.1084 -0.1976  0.0694
 3102W        W18571  11.563   8.785   3.376 -0.1349  0.1428 -0.0139
 3103W        W18572  15.362   0.792  13.880 -0.0986  0.4761  0.0194
 3104W        W18573   1.386   5.665   2.959 -0.0355 -0.0524 -0.0263
 3105W        W18574  10.364  10.105   0.953 -0.0881  0.0727 -0.1041
 3106W        W18575  15.008  15.225  11.137 -0.3843  0.0600 -0.4097
 3107W        W18576  13.400  17.034   4.213  0.2477 -0.0913 -0.1925
 3108W        W18577  17.085   9.312  14.323  0.0070  0.2202  0.0389
 3109W        W18578  15.983  17.787   2.449 -0.4029  0.0220 -0.0646
 3110W        W18579  11.104   2.195  13.748  0.1314  0.1422 -0.1114
 3111W        W18580  11.255   6.568  11.786  0.1234 -0.2371  0.1660
 3112W        W18581  17.692  16.721   2.074  0.0547  0.1833  0.0454
 3113W        W18582  17.597   2.882  11.016 -0.2386  0.0831 -0.2257
 3114W        W18583  11.646   8.976  12.614 -0.0139  0.1499  0.3152
 3115W        W18584   3.115   0.844   5.354 -0.1542 -0.2923  0.0754
 3116W        W18585   6.075   2.049   4.969 -0.0806  0.0178 -0.1532
 3117W        W18586   0.642   7.082  11.259 -0.1725 -0.1717  0.0064
 3118W        W18587  13.403  12.198   2.472 -0.0308 -0.0472  0.1489
 3119W        W18588   3.809   2.085   1.705  0.1096  0.0505  0.1409
 3120W        W18589  11.879   8.740   1.028 -0.0462  0.4465  0.0391
 3121W        W18590   4.367   9.554  12.454  0.0734  0.3518 -0.2438
 3122W        W18591  15.009  17.376  10.537  0.3003 -0.2212  0.1303
 3123W        W18592  16.829  16.769   1.608 -0.0495 -0.3980  0.2560
 3124W        W18593   0.638  17.240   2.680 -0.0212  0.0226  0.0443
 3125W        W18594  12.141   2.697  14.684  0.2018 -0.1224  0.2153
 3126W        W18595  14.835  13.484  15.348  0.1761  0.0755  0.1494
 3127W        W18596   9.569   9.872  12.279 -0.2500 -0.0549 -0.0189
 3128W        W18597   8.598  11.857  13.421 -0.0496 -0.1094 -0.0553
 3129W        W18598   5.843   2.802   0.674  0.1786  0.2360 -0.2822
 3130W        W18599   2.892   3.388  14.021 -0.1092  0.1375  0.1842
 3131W        W18600   9.772   5.975   4.271 -0.0646  0.0107  0.2815
 3132W        W18601   0.653   1.807  14.393 -0.3867 -0.0108  0.4561
 3133W        W18602   8.142   7.141   0.446  0.1216 -0.2012 -0.1152
 3134W        W18603  17.999   3.178  11.145 -0.2605 -0.3190  0.0456
 3135W        W18604   9.349   5.584   3.752  0.1537  0.1226 -0.2481
 3136W        W18605   9.546   5.091  12.727 -0.0097 -0.1426  0.0070
 3137W        W18606   2.674  14.175  14.306  0.0685 -0.1448 -0.1202
 3138W        W18607   3.950   4.229  13.649 -0.0323 -0.2417  0.1307
 3139W        W18608  16.499   4.685   1.031  0.2456  0.0553 -0.0141
 3140W        W18609   5.501   6.049   4.204  0.0920 -0.0362  0.0505
 3141W        W18610   4.741   3.144  13.875  0.0884 -0.1925 -0.0599
 3142W        W18611   1.827  11.177  12.587 -0.3138 -0.1177  0.2001
 3143W        W18612  10.717   3.916   2.243  0.1592 -0.3085 -0.0018
 3144W        W18613  18.518   6.008   4.886  0.1735  0.0861 -0.1492
 3145W        W18614   7.355   5.089  12.242 -0.1434 -0.0878 -0.2099
 3146W        W18615  17.463   9.902  11.330 -0.1112 -0.0301 -0.1884
 3147W        W18616  15.556  13.727   5.382 -0.1534  0.1283 -0.1595
 3148W        W18617  16.620   0.518   3.453 -0.1081 -0.1199 -0.1066
 3149W        W18618  18.060  15.430  12.445 -0.0868 -0.1814 -0.1792
 3150W        W18619   2.827   2.516   2.949 -0.2091 -0.1059  0.2810
 3151W        W18620   0.787  17.722  13.259  0.1382 -0.2639 -0.3054
 3152W        W18621  11.803  14.033   2.112  0.1108  0.1361  0.4322
 3153W        W18622  14.750   5.830   5.329 -0.0112  0.0815  0.0967
 3154W        W18623   8.403  11.138  11.818 -0.0762 -0.1324 -0.0848
 3155W        W18624   7.074  12.181   2.081 -0.0046 -0.1049  0.2720
 3156W        W18625   4.327  15.425   3.218 -0.2207  0.2239  0.1465
 3157W        W18626  16.553   7.551   5.094  0.2900 -0.1007  0.2704
 3158W        W18627   7.625   4.781  11.333  0.1287  0.0299  0.4209
 3159W        W18628  13.713   8.270  15.495 -0.2336 -0.1837  0.0630
 3160W        W18629  15.401  10.506   4.370 -0.2579 -0.1364 -0.2086
 3161W        W18630  12.346   3.892   9.635 -0.1746  0.0180 -0.1631
 3162W        W18631   7.483  18.446  13.507  0.0548  0.0503 -0.0807
 3163W        W18632  13.305   7.169   0.622  0.1340  0.0462  0.0363
 3164W        W18633   9.257  14.617   5.083  0.1204  0.1789 -0.0510
 3165W        W18634  11.479  15.000  11.943  0.4060 -0.0646  0.0918
 3166W        W18635  11.366  12.176  11.898 -0.0825 -0.1691  0.0443
 3167W        W18636  12.687   1.956  10.824  0.0749  0.2622 -0.2384
 3168W        W18637  18.134  16.275   0.573  0.2009  0.2728 -0.1503
 3169W        W18638  17.443   6.581   4.145  0.0181 -0.1389 -0.0716
 3170W        W18639  13.822   6.704  13.894  0.1080 -0.0282 -0.2334
 3171W        W18640   5.033   9.088   9.826 -0.0641 -0.1643  0.0730
 3172W        W18641   4.958   5.775  12.445 -0.0305  0.3747 -0.1807
 3173W        W18642   2.543  16.669   3.921  0.0333  0.1057 -0.1038
 3174W        W18643  17.838  13.717   5.324  0.0642 -0.1094 -0.0980
 3175W        W18644   2.937  14.942  12.735 -0.2107  0.0043 -0.1624
 3176W        W18645   4.429   7.311  12.708 -0.2183 -0.1199 -0.2157
 3177W        W18646  14.646  17.305  15.384 -0.1051  0.1947 -0.1198
 3178W        W18647   9.264   8.779  11.165  0.0804  0.1930  0.2170
 3179W        W18648  17.184   9.785  12.524  0.0883  0.0294  0.1948
 3180W        W18649   3.631  13.617  15.489  0.0320 -0.2386 -0.0791
 3181W        W18650  11.224   8.428   3.571 -0.0410  0.0180 -0.3308
 3182W        W18651  11.509  10.437   0.251 -0.0696  0.2136  0.1071
 3183W        W18652   2.199  13.311   2.050  0.3287 -0.0890 -0.0744
 3184W        W18653   1.911  15.437  11.398  0.0445 -0.2048 -0.0379
 3185W        W18654  12.052   5.711   5.531  0.0247  0.1743 -0.1721
 3186W        W18655   4.496   2.557   3.656  0.2216 -0.0536  0.2188
 3187W        W18656   5.274   7.167  14.905 -0.0899  0.0277  0.0739
 3188W        W18657  17.439   3.570   3.354 -0.1562 -0.0970 -0.0220
 3189W        W18658   7.564   0.267   5.779  0.1530 -0.2070 -0.0474
 3190W        W18659   6.536  12.320   3.426 -0.2619  0.3040 -0.2180
 3191W        W18660  14.904   8.147  14.472  0.2192  0.3030 -0.2500
 3192W        W18661   4.070   0.887  15.384  0.1252 -0.0311 -0.2116
 3193W        W18662  16.888   5.893   1.160  0.1871  0.2450  0.2123
 3194W        W18663  16.904  15.191  15.499  0.0637  0.0505 -0.2788
 3195W        W18664  12.931   4.735   0.011  0.3341 -0.0046  0.0721
 3196W        W18665  17.300   7.883  12.349  0.0783 -0.2336 -0.1233
 3197W        W18666  13.177   2.464   1.104 -0.2706  0.1258  0.3085
 3198W        W18667   1.826  14.629   0.344 -0.1457 -0.1100 -0.1038
 3199W        W18668  15.987  12.194   1.999  0.2607  0.3342 -0.0217
 3200W        W18669   5.341  16.069   0.472 -0.1712  0.0460 -0.0948
 3201W        W18670  11.722  18.834   5.273  0.2732  0.1895  0.0578
 3202W        W18671   9.477  14.210  10.883  0.0668  0.4682  0.1805
 3203W        W18672  14.180   3.215   9.660  0.0550  0.4635  0.0510
 3204W        W18673  15.092  12.044   5.190 -0.2723  0.3017  0.0897
 3205W        W18674  12.730  13.255  14.705 -0.0718 -0.2891  0.2643
 3206W        W18675  18.639   4.548  12.104 -0.0844  0.0928  0.0309
 3207W        W18676  17.187  11.525  14.009  0.1299 -0.0492  0.3211
 3208W        W18677  17.819  15.921   0.517  0.1103  0.3025  0.0590
 3209W        W18678   8.110   3.127  10.819  0.1112 -0.0041  0.1333
 3210W        W18679  16.608   8.607   3.918 -0.1606 -0.0609 -0.3520
 3211W        W18680  15.109  13.871  15.157  0.0149  0.0429  0.0016
 3212W        W18681  18.314   4.146  12.293  0.2958 -0.0950  0.1239
 3213W        W18682  10.742   4.837   4.259 -0.3339 -0.0605 -0.3391
 3214W        W18683   1.890  15.043  11.712  0.0876 -0.2788 -0.0334
 3215W        W18684  14.715  11.031   3.862 -0.0737 -0.0254 -0.1608
 3216W        W18685   9.909   4.531  10.539 -0.0753  0.0955  0.0314
 3217W        W18686   9.394   7.639   1.493  0.0630  0.1410  0.1205
 3218W        W18687   4.054   6.430  13.151  0.0091  0.0869  0.2171
 3219W        W18688  17.864  10.237   4.557  0.1644  0.1279 -0.0186
 3220W        W18689   3.583   5.017   2.141  0.0882  0.3044 -0.2715
 3221W        W18690  12.346  10.377   4.356  0.0622 -0.2593  0.1487
 3222W        W18691   6.421  12.773  12.643 -0.3109  0.0930  0.2490
 3223W        W18692   4.691  16.926   2.768 -0.6186  0.3167 -0.0456
 3224W        W18693   3.330  10.190   5.299  0.1736 -0.2133  0.1399
 3225W        W18694  13.032   5.158   3.496  0.1068 -0.0899  0.1023
 3226W        W18695   5.617   5.434  10.603 -0.1417  0.0825  0.2198
 3227W        W18696   9.465   2.675   4.764 -0.0820  0.3095 -0.6590
 3228W        W18697   8.655  10.415  10.971  0.1211 -0.0743 -0.0982
 3229W        W18698  17.116  11.719   5.013 -0.2385 -0.5078 -0.0824
 3230W        W18699  12.389  17.051   2.286  0.0473 -0.1204 -0.0979
 3231W        W18700   4.018   5.649  13.582  0.2725 -0.0416  0.2305
 3232W        W18701  14.005   0.632   3.257 -0.5072 -0.0928 -0.0131
 3233W        W18702   6.246   2.972   5.204 -0.2019 -0.1483 -0.2291
 3234W        W18703   8.282  10.888   1.437 -0.2463 -0.2401 -0.3368
 3235W        W18704   2.644   4.983   3.262  0.1308 -0.5512 -0.1059
 3236W        W18705  11.813  11.876  11.892  0.1496 -0.1942  0.3404
 3237W        W18706  12.725   1.887   0.582 -0.0936  0.0775  0.3853
 3238W        W18707   5.258  17.416  13.602  0.0969 -0.1376 -0.4644
 3239W        W18708  17.650  18.271  11.895 -0.1545  0.0196  0.3881
 3240W        W18709  12.355   2.310   2.108  0.1600 -0.1646 -0.1714
 3241W        W18710   6.887   0.856   4.617 -0.0677  0.0099 -0.1493
 3242W        W18711   0.361  15.813  13.824  0.2241  0.0913  0.2166
 3243W        W18712  17.667   5.040   5.203 -0.3103 -0.1712  0.0653
 3244W        W18713  12.122  17.035   4.915  0.0320 -0.1138 -0.0782
 3245W        W18714  17.599   9.867   3.741  0.1364  0.0783  0.0413
 3246W        W18715  18.203   5.009   1.642  0.0009 -0.0449 -0.0195
 3247W        W18716   9.075  13.409   4.245 -0.0366 -0.4166  0.0531
 3248W        W18717  13.506  17.899   0.555  0.1268  0.2139  0.1410
 3249W        W18718  16.243  15.755   3.633 -0.0511 -0.0448  0.2665
 3250W        W18719  16.435   7.869  12.686 -0.1343  0.1166  0.2225
 3251W        W18720   5.861  13.771  11.078  0.0129  0.2580  0.0991
 3252W        W18721  18.281   8.003   5.939 -0.1383  0.2141 -0.1669
 3253W        W18722   6.884   4.819  12.434 -0.0982 -0.2930  0.0756
 3254W        W18723   6.822  13.562   3.029  0.2630  0.1876  0.0270
 3255W        W18724   3.495   3.495  13.660 -0.0421  0.1884 -0.1030
 3256W        W18725  11.773  12.244  11.630  0.3004  0.4313 -0.0866
 3257W        W18726   0.644  12.210  10.825  0.1360  0.0731 -0.2125
 3258W        W18727  17.785  18.137  10.606  0.2757  0.1736 -0.0343
 3259W        W18728   7.963  15.443   0.102 -0.0125 -0.1792  0.2142
 3260W        W18729  13.737  16.542  13.545  0.4692  0.1838 -0.1715
 3261W        W18730   5.964  12.954   4.387 -0.0353 -0.0028 -0.0879
 3262W        W18731  10.017   5.604   4.560  0.1762  0.0658 -0.2831
 3263W        W18732   9.016  18.116  11.548 -0.0391  0.0283  0.0530
 3264W        W18733  10.825  12.515   1.724 -0.0002  0.3176  0.2481
 3265W        W18734   1.669  11.457   4.591 -0.0456 -0.3705  0.0578
 3266W        W18735   8.932  16.689  11.552 -0.2082 -0.0167 -0.5307
 3267W        W18736   7.295  13.765   2.439 -0.0526  0.0863  0.3450
 3268W        W18737   8.107   4.149   0.912  0.1658  0.0971 -0.3240
 3269W        W18738  12.538   9.788   0.295  0.2184  0.0967 -0.0176
 3270W        W18739   9.314  14.638   4.394 -0.0859 -0.0547  0.1198
 3271W        W18740   0.454  12.726   2.060  0.2279  0.1406 -0.1286
 3272W        W18741   4.154  11.016  14.826 -0.3377  0.4242  0.1109
 3273W        W18742  11.181   2.921  11.463  0.1193 -0.3189  0.0590
 3274W        W18743   9.926   2.563   3.410 -0.2166  0.4144 -0.1279
 3275W        W18744  10.034   0.298   4.062  0.1766  0.2336 -0.0107
 3276W        W18745  18.079  18.169  11.040  0.1937 -0.1164 -0.0585
 3277W        W18746   4.664  10.683  10.023 -0.2854  0.3426  0.2271
 3278W        W18747   9.657   9.854  11.457 -0.0490  0.0418 -0.1155
 3279W        W18748   5.881  16.723  13.451 -0.5171  0.1300  0.2683
 3280W        W18749  12.942  14.712   2.511  0.0854  0.0631  0.0793
 3281W        W18750   9.013  17.373   0.457 -0.1465  0.2671  0.2041
 3282W        W18751   7.063   8.826   0.758  0.0162 -0.0757 -0.1548
 3283W        W18752  13.869  12.588  11.849 -0.0807  0.1334 -0.0954
 3284W        W18753   0.445   3.425  11.960  0.0267  0.2124 -0.2298
 3285W        W18754   9.517  14.984  14.187  0.1498  0.0211 -0.1869
 3286W        W18755  17.960  17.237   1.235 -0.1649 -0.3342 -0.0665
 3287W        W18756   8.973  11.257   4.424 -0.1221 -0.0140 -0.0617
 3288W        W18757  18.233  15.859  11.058  0.1000  0.2603  0.1673
 3289W        W18758  18.834  11.080  13.919  0.2333  0.0265 -0.0380
 3290W        W18759   4.772   1.606   5.138 -0.1056 -0.1213  0.0979
 3291W        W18760  16.525   9.864   4.454 -0.2188 -0.0079 -0.2901
 3292W        W18761   6.085  15.560  12.261 -0.1163 -0.4299  0.2862
 3293W        W18762  12.184   5.185  14.159  0.0720 -0.2066 -0.2058
 3294W        W18763  16.605  10.678  13.381  0.1450  0.0680  0.5503
 3295W        W18764  17.970   0.574  10.292  0.4356 -0.1168  0.0427
 3296W        W18765   6.124   4.154   3.224 -0.1996 -0.2905 -0.0621
 3297W        W18766   4.977   3.854  15.432  0.0950  0.4418 -0.1743
 3298W        W18767  15.723  15.185  12.839 -0.1370  0.1854  0.0354
 3299W        W18768   2.466   2.267  13.979  0.1702  0.3031 -0.1354
 3300W        W18769   6.191   8.260   3.604  0.1372 -0.1623  0.1990
 3301W        W18770  14.025   3.820   5.006 -0.0235  0.2937  0.5514
 3302W        W18771  13.392   7.068   4.222  0.1488  0.1044  0.3022
 3303W        W18772   3.329  13.831   2.809 -0.2457  0.3062  0.2660
 3304W        W18773   0.416  18.356  14.712 -0.1925  0.2465 -0.0326
 3305W        W18774  14.640  13.976  15.200  0.0343 -0.0831  0.0406
 3306W        W18775  17.030   1.986   1.777  0.1124 -0.3088  0.1910
 3307W        W18776   8.247  12.501   1.801  0.5368  0.1209 -0.0073
 3308W        W18777   9.909   4.407  12.393  0.4796 -0.0368 -0.0299
 3309W        W18778  15.299  13.618  11.909  0.0670  0.2180 -0.2579
 3310W        W18779   0.681   9.271  13.916 -0.0967  0.0100 -0.0757
 3311W        W18780  15.788  18.709  12.097 -0.0631 -0.1890 -0.0692
 3312W        W18781  18.132   9.647  13.527  0.1903 -0.3204 -0.1324
 3313W        W18782  13.971   6.526  14.373 -0.3522  0.3480  0.0473
 3314W        W18783  12.758  11.652   3.547 -0.0516 -0.0809  0.4049
 3315W        W18784   4.704   6.051  15.502  0.2117  0.0680  0.0968
 3316W        W18785   5.695  11.834  12.056 -0.2439  0.1500  0.0996
 3317W        W18786   5.385   7.606  10.810  0.0484  0.1754  0.0067
 3318W        W18787   5.310  13.839  12.466  0.2657 -0.1384  0.3234
 3319W        W18788  11.584   3.174   0.542  0.0607  0.0444 -0.1883
 3320W        W18789  14.234  12.557   3.630 -0.3117  0.3439 -0.0159
 3321W        W18790   3.329   1.585   4.265  0.1063  0.0795  0.0342
 3322W        W18791  17.948   3.720   5.546 -0.2650  0.4139  0.0987
 3323W        W18792  12.702   8.751   3.807 -0.0421 -0.0421 -0.1041
 3324W        W18793  12.907  10.308   2.129  0.0163  0.1908  0.3188
 3325W        W18794  18.059   4.261  14.579  0.0240 -0.0592  0.0584
 3326W        W18795  15.277   0.772   2.901  0.1006 -0.1553 -0.0457
 3327W        W18796   8.635   8.287  11.509  0.1993 -0.0873 -0.0059
 3328W        W18797  16.714   4.076   3.370 -0.0507  0.0031  0.4094
 3329W        W18798   1.999  12.420   3.969  0.2778  0.0405  0.0036
 3330W        W18799  18.942  16.150  11.052  0.2136 -0.1076  0.1636
 3331W        W18800   3.690   6.081  13.017  0.0974 -0.1756  0.2598
 3332W        W18801  10.287  12.776   2.941 -0.1515 -0.1731  0.1201
 3333W        W18802   8.107  14.544  14.537  0.1573  0.0098  0.0911
 3334W        W18803   7.052  18.509  14.626  0.0644  0.0552 -0.0456
 3335W        W18804  12.568   4.339   0.370  0.0603  0.2923  0.2126
 3336W        W18805   1.317  11.115   4.605 -0.0432 -0.0877  0.0273
 3337W        W18806  11.106   7.435   1.137  0.0278 -0.0997 -0.1351
 3338W        W18807  16.792  16.186  13.914 -0.1687 -0.2534  0.0280
 3339W        W18808   9.603  11.984   0.156 -0.0423 -0.0641 -0.2559
 3340W        W18809   4.911   7.086   5.319  0.3416  0.0767  0.0955
 3341W        W18810   5.977  11.534   5.645 -0.3899 -0.1320  0.0384
 3342W        W18811  14.551  18.267   2.113  0.1051  0.3815  0.0490
 3343W        W18812   5.129  15.890   0.879 -0.0190  0.1848  0.1135
 3344W        W18813   6.190   7.522  10.759 -0.1081 -0.2026 -0.1489
 3345W        W18814   0.656   8.591   4.257 -0.0390  0.2552  0.2243
 3346W        W18815  12.808  10.583  13.774  0.0580  0.2243 -0.0747
 3347W        W18816   8.924  14.043   1.522 -0.0915  0.0484  0.0518
 3348W        W18817   7.223  16.636  10.218  0.0662 -0.0494 -0.0012
 3349W        W18818  16.053  13.128   0.312 -0.1069 -0.2274 -0.0528
 3350W        W18819   3.242  16.677   4.164  0.1241  0.5322 -0.1037
 3351W        W18820  15.183   3.935  12.423  0.0083  0.3586 -0.3422
 3352W        W18821  11.781   9.987  11.788 -0.0675 -0.3975 -0.1745
 3353W        W18822   3.712  16.365  12.151 -0.0715 -0.1422 -0.1935
 3354W        W18823  18.880   1.473  11.678 -0.1845  0.0935 -0.3111
 3355W        W18824  16.953  17.826  10.686 -0.2220  0.0908 -0.0735
 3356W        W18825  12.048  11.537   5.129  0.1366 -0.1212  0.2554
 3357W        W18826   9.043   6.842   5.468 -0.0627  0.1576  0.0869
 3358W        W18827   9.295  14.663   3.421 -0.1821 -0.0667 -0.1007
 3359W        W18828  12.463  13.176   5.282 -0.0446 -0.2453 -0.1163
 3360W        W18829   3.565  12.255   4.606 -0.0209 -0.2835 -0.4588
 3361W        W18830   1.196  16.010   4.358 -0.0213  0.0697  0.3313
 3362W        W18831   6.962  11.002  12.153  0.0973  0.0801  0.0261
 3363W        W18832  14.396  17.725  15.440 -0.0895 -0.0517 -0.4030
 3364W        W18833   4.964  12.625  13.674  0.3593  0.0429 -0.1232
 3365W        W18834  13.527   6.469   2.680 -0.0854  0.0074 -0.2321
 3366W        W18835   6.012  11.164  10.455  0.3088 -0.0267  0.0520
 3367W        W18836  14.495   6.290   1.535  0.0162 -0.2015  0.3716
 3368W        W18837  14.556  10.785  13.097  0.2880 -0.1196 -0.1033
 3369W        W18838   4.523  10.653  10.885  0.2643  0.2378  0.4174
 3370W        W18839  13.285   4.242  14.806 -0.2145  0.0424 -0.1968
 3371W        W18840   7.227  16.684  11.447  0.2768 -0.0867  0.1891
 3372W        W18841  16.148   2.199   3.558  0.0242 -0.1142 -0.0572
 3373W        W18842   5.089   6.289   3.897  0.4169 -0.0536 -0.1536
 3374W        W18843   6.371   0.721   3.276  0.1674  0.1150  0.0596
 3375W        W18844  14.978  13.266   2.121 -0.2722 -0.0555  0.0797
 3376W        W18845   4.481   9.301  11.660 -0.1803 -0.0134  0.0859
 3377W        W18846  16.072   9.229   2.289 -0.2502  0.0612 -0.1003
 3378W        W18847   6.485   8.390  10.393  0.2039 -0.3328  0.3323
 3379W        W18848  16.218  12.742  11.739  0.1668 -0.1044  0.0294
 3380W        W18849   7.906  12.854  14.600 -0.0708 -0.0806 -0.0491
 3381W        W18850  14.467   8.381   5.037  0.2640  0.1641  0.0929
 3382W        W18851   3.643  11.783   0.956 -0.1201 -0.1930 -0.0720
 3383W        W18852  13.875   5.983   4.953  0.0231  0.0509 -0.0460
 3384W        W18853  18.391   4.629  14.516 -0.1351  0.0512 -0.1580
 3385W        W18854   2.303   3.343   3.387  0.2859 -0.1727  0.1225
 3386W        W18855   1.967  10.519   0.693 -0.0249  0.2690 -0.1570
 3387W        W18856  12.945  14.143   1.229  0.2762 -0.0509  0.0839
 3388W        W18857  18.326  16.003   2.898 -0.2410 -0.1842  0.0102
 3389W        W18858  14.165   1.451   3.044  0.0000  0.0633  0.1418
 3390W        W18859   5.957   3.081   3.136 -0.2179  0.1465 -0.0413
 3391W        W18860   7.225  10.521   4.121  0.4299 -0.0034 -0.3413
 3392W        W18861  14.669  14.486  15.311  0.3258  0.2232  0.1858
 3393W        W18862   1.115   5.180  10.649 -0.1095  0.5266 -0.2454
 3394W        W18863  10.857  14.386   4.141 -0.1940 -0.4541 -0.3414
 3395W        W18864   0.778   6.029   2.440  0.0302  0.0817  0.2309
 3396W        W18865  14.983  18.544  13.584 -0.1757  0.2536 -0.3536
 3397W        W18866   6.235  18.337   5.180  0.1076  0.1106  0.3450
 3398W        W18867  13.150   9.720  14.364  0.3295 -0.1091 -0.2749
 3399W        W18868   5.086  13.842  13.797 -0.3855 -0.2203  0.0529
 3400W        W18869  17.440  17.169  12.700  0.1490 -0.1739 -0.1411
 3401W        W18870  18.261   4.637   1.278 -0.1241  0.1686  0.0639
 3402W        W18871   0.230   6.003   2.418  0.1500  0.0107  0.2216
 3403W        W18872  17.446  18.008  11.518 -0.3400 -0.0240 -0.3565
 3404W        W18873  10.529  17.979   1.491  0.0411 -0.0595 -0.0217
 3405W        W18874   2.398   7.497  11.042 -0.0365 -0.1412  0.2193
 3406W        W18875   2.754   1.059  11.262 -0.0546 -0.1112 -0.3386
 3407W        W18876   4.420  17.830   1.128  0.1095  0.0884 -0.2823
 3408W        W18877  10.732  18.844   1.506  0.2616 -0.1587 -0.1832
 3409W        W18878  16.455   0.343   1.941 -0.0267 -0.4945  0.0954
 3410W        W18879   7.123  14.134   1.204 -0.1328  0.3689 -0.0553
 3411W        W18880   5.412   4.345   2.527 -0.1666 -0.1394  0.2588
 3412W        W18881   2.779   8.731  12.139 -0.0316 -0.0475  0.1371
 3413W        W18882  11.531   6.792   2.586 -0.2571  0.3432 -0.0159
 3414W        W18883   2.176  14.728   3.868  0.0808 -0.1480 -0.1026
 3415W        W18884  13.819   2.982  10.785 -0.0346 -0.3257  0.1235
 3416W        W18885  14.486   0.421  12.598 -0.3108 -0.1330  0.1331
 3417W        W18886  17.888   4.762   1.940 -0.1685 -0.1799  0.1326
 3418W        W18887  18.577   3.830  11.937 -0.0216 -0.0132  0.1697
 3419W        W18888  10.366  13.859   1.927 -0.1378 -0.0203  0.2573
 3420W        W18889  15.980  17.350   1.108  0.1722 -0.1226 -0.1535
 3421W        W18890  10.043   5.645  14.945 -0.0451 -0.0267  0.0791
 3422W        W18891  17.258  10.154  11.791  0.0627 -0.1665  0.1402
 3423W        W18892  10.336   8.435  11.557  0.0646  0.1081 -0.0894
 3424W        W18893   0.102   6.845   2.242 -0.2504  0.1908 -0.2146
 3425W        W18894  10.961   0.605  12.755  0.0610  0.0700 -0.1373
 3426W        W18895   5.291   5.096   6.333 -0.0707 -0.4704  0.2023
 3427W        W18896   0.488  15.883   2.573 -0.4466  0.2666  0.1153
 3428W        W18897   8.886  11.495   5.802  0.0543 -0.1661 -0.0793
 3429W        W18898   4.834   8.171  10.824  0.1528 -0.1116  0.1567
 3430W        W18899  13.848   0.384   3.802 -0.0527  0.1097  0.0573
 3431W        W18900   1.946   4.187  12.563  0.0260 -0.1535 -0.0493
 3432W        W18901   8.241  10.453   1.782  0.0891  0.1032 -0.1508
 3433W        W18902   6.784   9.729   2.082  0.1309 -0.3518  0.2202
 3434W        W18903   5.108   3.428   1.694 -0.0079  0.0349 -0.0085
 3435W        W18904   5.060  17.820  11.887 -0.1582  0.0812  0.3025
 3436W        W18905   7.527  18.592  12.404 -0.0285 -0.0450 -0.1609
 3437W        W18906  15.145   3.536  13.389 -0.0193  0.1382 -0.1163
 3438W        W18907  18.045   8.503   0.827  0.1405 -0.1830 -0.0663
 3439W        W18908   7.577   1.214   1.101  0.0712 -0.2827  0.0042
 3440W        W18909   1.390  15.901  12.092 -0.0796 -0.1244 -0.2539
 3441W        W18910   1.017  12.027   0.197 -0.3949  0.2985 -0.1575
 3442W        W18911  13.470   1.994   1.266  0.1491 -0.0140  0.0906
 3443W        W18912   0.161  18.049   3.988  0.2975  0.5072 -0.2429
 3444W        W18913   6.982   9.212  11.283 -0.1170 -0.1246 -0.3726
 3445W        W18914  13.443  18.134  15.099  0.2882 -0.1456 -0.0273
 3446W        W18915   6.541  17.934  10.830 -0.2112 -0.0257  0.2295
 3447W        W18916  17.310  17.231  14.199 -0.1895 -0.0578  0.1710
 3448W        W18917  13.316   6.935  12.621  0.1177 -0.2681  0.0751
 3449W        W18918  14.662  11.771  13.121  0.1508 -0.0854  0.0558
 3450W        W18919  16.959  12.638   1.023 -0.3139 -0.1274  0.4147
 3451W        W18920   3.944  12.921  13.691  0.0518  0.1622  0.2644
 3452W        W18921  18.572  12.413   3.401  0.0870 -0.2645  0.0429
 3453W        W18922   7.318  10.600  12.101  0.0086 -0.0385  0.0650
 3454W        W18923  16.455   8.733   2.949  0.0193  0.1436 -0.1187
 3455W        W18924   4.300   5.260  14.080  0.0401 -0.1976  0.0349
 3456W        W18925  13.260   8.878  11.315 -0.2374  0.0479 -0.2101
 3457W        W18926   7.616  10.174   3.932  0.0815  0.2823  0.0781
 3458W        W18927  17.104  14.769   0.291  0.4386 -0.1179 -0.0475
 3459W        W18928  18.604   1.498   4.727 -0.0231 -0.3493 -0.7035
 3460W        W18929  12.007  18.740  11.840 -0.1002 -0.0856 -0.0420
 3461W        W18930   6.640   6.439  10.767 -0.0563 -0.1009 -0.0338
 3462W        W18931   7.122  13.230  13.386 -0.0942  0.1516 -0.2652
 3463W        W18932   1.065   3.698   4.420  0.2789 -0.2503  0.2027
 3464W        W18933   9.544   7.800   4.600  0.1459  0.0097 -0.2613
 3465W        W18934   3.653   6.934  14.005  0.0622  0.0225  0.1828
 3466W        W18935  15.863  18.636  14.107  0.5041  0.0252 -0.2030
 3467W        W18936   0.047  13.509  14.902 -0.0655 -0.0500  0.1505
 3468W        W18937  14.660   9.355   3.279 -0.3140  0.3496 -0.0883
 3469W        W18938  18.783   1.641  13.246 -0.0968  0.0125  0.0560
 3470W        W18939  12.963   4.507   9.721  0.0391 -0.2980 -0.3854
 3471W        W18940   9.236  10.295  13.828  0.1256  0.1149  0.1205
 3472W        W18941  11.318  16.108   4.353  0.1239  0.0050  0.0028
 3473W        W18942  17.667  14.514   3.298  0.0700  0.0102  0.0915
 3474W        W18943  17.277   6.941   1.184  0.2445 -0.0094 -0.4085
 3475W        W18944  11.632   3.940   0.314  0.1975 -0.2648  0.0960
 3476W        W18945   1.195   4.768   4.973  0.3276  0.1178 -0.0567
 3477W        W18946   2.802  17.534  11.166 -0.0903 -0.2035  0.0188
 3478W        W18947  10.713  11.046   3.305 -0.0891 -0.1986 -0.2636
 3479W        W18948  18.654  14.852  11.395 -0.1752 -0.2504  0.1063
 3480W        W18949   0.373   8.021  12.518  0.2146 -0.2694 -0.1099
 3481W        W18950  11.301  10.292  12.469  0.0321 -0.2018 -0.0004
 3482W        W18951   8.900   8.232   2.065 -0.0424  0.1133  0.0573
 3483W        W18952  14.801   7.353   0.887 -0.2125 -0.3668  0.2761
 3484W        W18953   6.726   5.017  11.552 -0.0240 -0.0703  0.0987
 3485W        W18954  10.181   9.977   1.982  0.3396  0.1677 -0.1859
 3486W        W18955  11.281   1.949  15.343  0.1667  0.0725 -0.2261
 3487W        W18956   9.508   4.229  10.733  0.0689 -0.2375 -0.0788
 3488W        W18957  13.944  13.682  12.137 -0.2781 -0.0915 -0.2702
 3489W        W18958  16.536  16.567   0.525  0.1648  0.2729 -0.2216
 3490W        W18959  16.015  10.563  13.988 -0.0752 -0.2909  0.0407
 3491W        W18960   9.536  18.769  13.845 -0.0475  0.1663  0.2123
 3492W        W18961   1.125   0.777  14.850  0.3285 -0.4841 -0.1858
 3493W        W18962   0.130  12.835  11.647  0.1678 -0.0487 -0.2661
 3494W        W18963  15.531   6.700  12.052 -0.2755  0.3157 -0.1200
 3495W        W18964   8.084   4.751  14.219 -0.2291 -0.0592  0.3157
 3496W        W18965  14.158   2.879   1.062  0.1758 -0.2428  0.0633
 3497W        W18966  13.106   7.969  10.958 -0.0622 -0.0745  0.2063
 3498W        W18967  12.067  10.418   3.285 -0.0050 -0.1489 -0.0435
 3499W        W18968   5.312   4.341  13.133  0.0664  0.0884 -0.1090
 3500W        W18969   9.862  12.224  15.314  0.1821  0.1236 -0.0239
 3501W        W18970   6.442   1.538   0.542  0.1295  0.6348 -0.1967
 3502W        W18971  13.028  15.551   5.117 -0.2484  0.2475 -0.0186
 3503W        W18972   9.414  12.463   0.021 -0.4234  0.1207  0.1107
 3504W        W18973  16.297  18.873  11.244 -0.0966 -0.0332 -0.0166
 3505W        W18974  10.408   3.983  12.214  0.2429 -0.0019  0.0878
 3506W        W18975   1.824   8.937   1.842  0.0355 -0.4696  0.3397
 3507W        W18976   7.914  18.704   4.715  0.1601  0.0246 -0.1021
 3508W        W18977  12.460  10.067   3.129  0.1557  0.1510  0.0273
 3509W        W18978   1.633  12.374   3.149  0.2129  0.2015 -0.1735
 3510W        W18979   4.680  10.492   1.068  0.3735 -0.0036  0.0740
 3511W        W18980  11.835  13.056   1.686  0.1166  0.3295 -0.0758
 3512W        W18981  10.829   3.547  10.528 -0.0063  0.1835 -0.2596
 3513W        W18982  17.915   8.496  11.177 -0.1460 -0.0854  0.0365
 3514W        W18983   6.276   2.365  11.547  0.2080  0.2682  0.0458
 3515W        W18984   3.427  17.330  14.671  0.1149 -0.1675 -0.3404
 3516W        W18985  13.944  14.815  13.815 -0.0406  0.0107 -0.0251
 3517W        W18986  18.395   0.295   4.070  0.2289  0.0193  0.0131
 3518W        W18987  16.098  17.724  14.357 -0.0602 -0.0140  0.0115
 3519W        W18988   2.478  15.571  13.641 -0.4525  0.0151 -0.1686
 3520W        W18989  11.405   9.006   0.987  0.0808  0.5265 -0.0389
 3521W        W18990   6.699  18.555   4.009 -0.4257 -0.1258  0.4937
 3522W        W18991   7.236  12.945   4.114  0.0543 -0.1066 -0.0500
 3523W        W18992  17.416  15.459  11.487 -0.2726 -0.3394 -0.0518
 3524W        W18993   0.413  10.250   0.472 -0.1232 -0.1605  0.1099
 3525W        W18994  10.555  15.758   2.770 -0.0346  0.0486  0.2082
 3526W        W18995  12.557   3.256   2.983 -0.0878 -0.1618 -0.1872
 3527W        W18996   6.498   4.758  10.488  0.0326  0.0653  0.1171
 3528W        W18997  11.529   4.077  12.529 -0.0591  0.1428  0.3496
 3529W        W18998   5.818   8.418  10.797 -0.3030  0.2269 -0.1038
 3530W        W18999   3.607  13.413   5.696 -0.2408 -0.0271  0.4297
 3531W        W19000  13.850  14.802  11.727 -0.2050  0.0716  0.2108
 3532W        W19001   1.543   4.909   2.444  0.2060  0.0174  0.1859
 3533W        W19002   6.201   8.230   4.815 -0.0714  0.2478  0.2739
 3534W        W19003  15.277  18.488   0.387 -0.1333 -0.1796 -0.3361
 3535W        W19004   5.214   7.745   4.750 -0.1756  0.0061 -0.0847
 3536W        W19005  18.152   8.479   3.430 -0.1305  0.2147  0.1005
 3537W        W19006  17.052   8.876   1.827  0.0221 -0.0536 -0.1199
 3538W        W19007   9.234   5.655  11.007 -0.2654  0.2146 -0.1656
 3539W        W19008  15.905   5.423   3.445  0.0496  0.0199  0.1515
 3540W        W19009   1.083   2.795  15.328  0.1093 -0.0033 -0.1605
 3541W        W19010   1.007   6.452   3.231 -0.3610  0.4091 -0.1038
 3542W        W19011  17.161  11.922   0.208 -0.0500 -0.1005  0.3437
 3543W        W19012   4.305   8.267  15.310  0.3074  0.1814  0.1705
 3544W        W19013  11.807   5.084   3.647 -0.1107 -0.0394 -0.1692
 3545W        W19014   3.891   7.687  12.302 -0.1983  0.0752  0.1721
 3546W        W19015   3.660  13.299   0.932  0.1744 -0.0927 -0.0476
 3547W        W19016   2.401  11.684  14.634 -0.1277 -0.0579 -0.4070
 3548W        W19017  17.784   6.241   0.071  0.1278  0.1118 -0.1323
 3549W        W19018   8.948  16.143  10.994 -0.1750 -0.1077  0.0962
 3550W        W19019  16.113   3.007   2.239 -0.0684 -0.2417 -0.0983
 3551W        W19020   0.114   3.811  14.346 -0.1413  0.0905 -0.2652
 3552W        W19021  13.722   7.148   0.067 -0.1930 -0.3340  0.1005
 3553W        W19022   8.137   5.653  10.437 -0.2771  0.3502  0.0272
 3554W        W19023  16.784   1.234   5.352 -0.2093 -0.1816  0.0621
 3555W        W19024  11.416   7.062  12.788  0.0506 -0.1871  0.0800
 3556W        W19025  13.446  12.777   5.308  0.1454 -0.4596 -0.0544
 3557W        W19026   1.467  13.326  11.350  0.0054 -0.1845  0.3857
 3558W        W19027   4.969  13.444  11.444  0.0891 -0.1463  0.2302
 3559W        W19028  17.689   6.010   5.301  0.0839 -0.1952  0.2356
 3560W        W19029  12.484  17.576   4.012 -0.0690 -0.4512 -0.1110
 3561W        W19030   4.526  16.841  14.010  0.0989 -0.2367 -0.0482
 3562W        W19031  10.777  18.352   4.892 -0.3058 -0.1833  0.0966
 3563W        W19032  13.887   3.950  11.360 -0.0999  0.0433  0.7011
 3564W        W19033  18.850   0.800  11.509 -0.1155  0.1405  0.2712
 3565W        W19034  18.533   2.859   0.221  0.1452 -0.0291 -0.0137
 3566W        W19035   3.266   9.257  15.345  0.0509  0.3097  0.3356
 3567W        W19036   8.577  17.141   0.453  0.0851 -0.3708  0.0575
 3568W        W19037  18.726   9.640   4.150 -0.0197 -0.0284  0.2070
 3569W        W19038   6.632   5.306   4.154 -0.2079  0.0524  0.1847
 3570W        W19039  10.897   3.516   3.890 -0.0653 -0.1076 -0.1274
 3571W        W19040  14.595  17.646  11.557  0.1577 -0.0952  0.1314
 3572W        W19041  11.746  12.591   1.479 -0.0573  0.6383  0.3875
 3573W        W19042   1.896  17.248  11.186  0.0088  0.2775 -0.1220
 3574W        W19043  16.607  15.449   0.316  0.0703 -0.0391  0.1519
 3575W        W19044  12.844  12.854  10.810  0.0541  0.3259 -0.0809
 3576W        W19045   2.975  10.869   2.489  0.0142 -0.1961  0.0885
 3577W        W19046  17.488   4.652  14.138  0.1353 -0.2447  0.0819
 3578W        W19047  10.562   3.512   2.456  0.2931  0.6411 -0.1458
 3579W        W19048   5.455   2.174   5.177 -0.1632 -0.1988 -0.2594
 3580W        W19049  13.770  11.231   3.637  0.1583  0.1816 -0.3093
 3581W        W19050  13.048  11.696   4.901 -0.0145 -0.4164 -0.0713
 3582W        W19051  11.843   4.337   5.289 -0.4730  0.2513 -0.1929
 3583W        W19052  11.996   0.941  12.442  0.1032  0.1393  0.0711
 3584W        W19053   2.630   7.162  10.588 -0.0377  0.2384  0.1520
 3585W        W19054  16.120  11.527   4.582 -0.1547 -0.3711 -0.2474
 3586W        W19055   3.750   8.718   5.128  0.0667  0.2403  0.0031
 3587W        W19056  18.557  15.620  12.653  0.1211  0.0787 -0.5590
 3588W        W19057   5.258  17.334   0.865 -0.0934 -0.0391  0.1679
 3589W        W19058   1.702  17.532  13.360  0.2019  0.2023 -0.0948
 3590W        W19059   1.605   7.689   5.333  0.1818 -0.0459 -0.1211
 3591W        W19060  13.631   0.230   1.973 -0.1796  0.3355 -0.2076
 3592W        W19061  14.951   4.242   9.410 -0.0733  0.0244  0.1801
 3593W        W19062  14.148  13.871  12.901  0.1408 -0.0198  0.1051
 3594W        W19063  16.933  17.173   1.266  0.0599  0.3115 -0.1124
 3595W        W19064   7.428  18.043  12.344  0.1606  0.1641  0.2192
 3596W        W19065  13.303  10.918  12.032  0.1981 -0.1270 -0.2409
 3597W        W19066   6.019   5.276  12.391 -0.2250  0.0960 -0.2952
 3598W        W19067   9.178  13.898   0.721  0.0314  0.1453 -0.0439
 3599W        W19068  16.845  18.768   1.033 -0.0444  0.1912 -0.2197
 3600W        W19069   0.497   3.805  13.688  0.0450  0.0409 -0.0513
 3601W        W19070   2.846   0.409   3.807  0.2435  0.1486  0.0689
 3602W        W19071  17.647   3.056  12.709 -0.2830 -0.1825  0.1253
 3603W        W19072  11.433  14.438  11.736  0.1805  0.1098 -0.4054
 3604W        W19073   2.809  14.462   2.572 -0.1835 -0.1969  0.4796
 3605W        W19074   3.480   1.278  11.166  0.0169  0.1352 -0.1352
 3606W        W19075  18.798   8.081  12.401  0.2045 -0.2274  0.3104
 3607W        W19076  13.004   1.614   9.395 -0.0868 -0.0652  0.2689
 3608W        W19077  11.817  17.746  13.504  0.0113  0.0721 -0.0389
 3609W        W19078   2.663  17.357   0.615  0.1184  0.0617 -0.1681
 3610W        W19079  10.307   6.194  12.015 -0.1339  0.1496  0.0352
 3611W        W19080  18.845   3.379   2.608  0.3096  0.0216  0.2049
 3612W        W19081  15.495  17.311  12.201 -0.5865  0.0037 -0.1323
 3613W        W19082   7.960  13.707  15.221  0.1517  0.2150 -0.1427
 3614W        W19083   7.683  14.129  11.180  0.2257 -0.0209 -0.3051
 3615W        W19084  14.909  10.073   5.416 -0.0529 -0.2804 -0.0922
 3616W        W19085  10.954  11.245   2.058 -0.2577  0.0882 -0.1557
 3617W        W19086  15.711  11.809   1.288  0.0100 -0.3301  0.1539
 3618W        W19087   3.836   2.963  13.625  0.0379  0.3341  0.1242
 3619W        W19088   5.780   6.644  14.620 -0.0813  0.0831 -0.0992
 3620W        W19089  10.063   4.988  13.757 -0.1095  0.2368  0.2620
 3621W        W19090   4.584   2.486  11.672 -0.0682 -0.1685 -0.1742
 3622W        W19091  13.151  15.417   1.722  0.1368 -0.1343  0.0295
 3623W        W19092   1.079   5.853   9.627 -0.0642  0.1248 -0.2594
 3624W        W19093  16.686  13.781   1.534 -0.0102 -0.0288 -0.2044
 3625W        W19094  11.669  12.852   0.507  0.0063  0.0621  0.0584
 3626W        W19095   5.241   3.797   2.996 -0.0306  0.5212  0.2881
 3627W        W19096   6.311  11.985   3.064 -0.0139  0.2065 -0.1123
 3628W        W19097   9.218  17.730   2.376 -0.3923  0.0361  0.0927
 3629W        W19098  10.860   5.817  11.585 -0.0646  0.3852 -0.0895
 3630W        W19099  11.426  13.183   4.979  0.0072  0.1310  0.0029
 3631W        W19100  18.005   1.165  14.566 -0.2423  0.5537  0.2417
 3632W        W19101   8.590   3.136  12.930 -0.0035  0.2505  0.1706
 3633W        W19102   5.576   6.644  11.988  0.0785  0.0174  0.1602
 3634W        W19103   5.811  17.770  15.163 -0.0291  0.0054 -0.2698
 3635W        W19104   9.329   1.168  11.525  0.0787 -0.1488 -0.0996
 3636W        W19105   6.700  14.667   0.206  0.2366 -0.0780  0.2500
 3637W        W19106  18.291   6.173  15.322  0.1475 -0.2801  0.1630
 3638W        W19107  18.486   4.381  13.195  0.1287 -0.1601 -0.2066
 3639W        W19108  17.509  18.409   0.845 -0.2289  0.3067  0.0923
 3640W        W19109  16.413   4.076  13.734  0.3568 -0.1581 -0.3392
 3641W        W19110   4.420   7.034  11.799 -0.2267 -0.1685 -0.0176
 3642W        W19111   7.938   2.615   3.870  0.0315 -0.0764  0.4588
 3643W        W19112   8.367   1.271   1.409 -0.1697  0.1335 -0.0786
 3644W        W19113  15.727  14.738  10.463 -0.1341 -0.1718  0.1398
 3645W        W19114   9.072   2.992  12.766 -0.0563  0.2143  0.2224
 3646W        W19115  11.870  13.160  14.382  0.1430  0.4141 -0.1362
 3647W        W19116   2.797   8.330  12.809 -0.2136  0.0277  0.4984
 3648W        W19117  17.484  17.242   4.669 -0.0361  0.0993  0.1115
 3649W        W19118   2.673   4.749   4.147  0.3170  0.0370  0.0879
 3650W        W19119  12.661   7.534   2.086  0.2310 -0.1474 -0.1677
 3651W        W19120  14.763   3.448   2.002 -0.1830 -0.3147 -0.1684
 3652W        W19121   0.780   0.697   0.567 -0.2855  0.1144 -0.1392
 3653W        W19122  10.942   1.252  14.225  0.1073 -0.4028  0.1912
 3654W        W19123   7.978   0.399   2.550  0.2483 -0.0257 -0.2329
 3655W        W19124  11.245  16.847  14.677  0.2758  0.0929  0.0970
 3656W        W19125  14.254   5.713   4.524  0.3229  0.4492  0.4450
 3657W        W19126  17.877  10.720   1.618 -0.0280  0.2506  0.1500
 3658W        W19127  14.806   4.403  14.106 -0.0972  0.1337 -0.1295
 3659W        W19128  11.433  16.717  14.032  0.0747 -0.1620 -0.0559
 3660W        W19129   6.163   6.348  10.208  0.0232 -0.1098 -0.0439
 3661W        W19130  12.187   9.574  14.396  0.0253 -0.0838  0.0831
 3662W        W19131  10.312  12.849  12.854 -0.4198  0.4504  0.0391
 3663W        W19132   7.543   6.097  12.167  0.0313  0.0154 -0.2990
 3664W        W19133   3.255  12.093   1.801  0.2611  0.0805 -0.0752
 3665W        W19134   0.939   4.825  10.969 -0.1478 -0.2855  0.1833
 3666W        W19135  17.597   4.666   5.560 -0.0801  0.2609 -0.0378
 3667W        W19136   1.449  14.700   2.459 -0.2011  0.3530 -0.0453
 3668W        W19137   8.852   3.203   1.395 -0.3952  0.2903 -0.1920
 3669W        W19138   9.966  13.499   1.893 -0.1954  0.1163  0.3816
 3670W        W19139  13.511   5.410   0.129  0.0354 -0.3285  0.3612
 3671W        W19140  10.127   2.770   1.607  0.2486 -0.1840  0.1251
 3672W        W19141   7.807  13.332   3.088 -0.2623  0.1074 -0.0725
 3673W        W19142   5.748  10.483   4.638  0.2694 -0.4672  0.3606
 3674W        W19143  16.928  15.237  10.802 -0.1064  0.0809 -0.1227
 3675W        W19144   6.713  10.288   5.369 -0.0299 -0.0593 -0.4126
 3676W        W19145   3.336  14.164   3.380  0.0695  0.1584 -0.0519
 3677W        W19146  14.168   7.608   2.147 -0.1944 -0.1749 -0.2051
 3678W        W19147  16.376  10.456  12.307  0.0501 -0.2301 -0.0531
 3679W        W19148  17.944  12.976   2.115  0.0257 -0.0782  0.2951
 3680W        W19149  16.940  10.028   0.954 -0.2393  0.2630  0.0961
 3681W        W19150   6.794   7.344  10.595 -0.3982  0.1895 -0.1492
 3682W        W19151  18.778  11.835   2.138  0.0778  0.4252 -0.0716
 3683W        W19152  11.256   1.784   4.796  0.0307  0.2766 -0.4531
 3684W        W19153   8.669  15.749   0.960 -0.0826 -0.1420  0.1551
 3685W        W19154  15.455  12.870   3.385 -0.0537 -0.3367  0.0756
 3686W        W19155  11.254   4.278  15.046 -0.0434  0.0547  0.1788
 3687W        W19156  13.704   2.462   1.037 -0.2723 -0.2332  0.3186
 3688W        W19157   8.491  13.660   0.640  0.1595 -0.0914  0.0776
 3689W        W19158  14.018   1.927   3.374 -0.1887 -0.4989  0.3375
 3690W        W19159   1.680   8.074   0.788  0.0913  0.2904 -0.0365
 3691W        W19160  17.456  12.908   2.719  0.0162  0.2337  0.0527
 3692W        W19161  15.662   3.585   2.366 -0.1862 -0.1709 -0.3989
 3693W        W19162   3.633  15.732  11.077  0.3035 -0.0516  0.0110
 3694W        W19163   1.387  13.325  14.288 -0.0623  0.0993  0.1619
 3695W        W19164   8.515   4.585  14.353  0.0150 -0.0268  0.0524
 3696W        W19165   2.056   3.599   1.789  0.0040  0.1192 -0.0326
 3697W        W19166   7.523   9.953  10.903 -0.0753  0.1432 -0.0177
 3698W        W19167  18.645   0.649  14.980 -0.1623  0.0899 -0.4963
 3699W        W19168  17.181   9.341   3.970 -0.3406  0.1995  0.0893
 3700W        W19169   5.176   8.193   3.883 -0.0289  0.1499  0.1888
 3701W        W19170   7.285   5.705   0.863  0.1739  0.1723  0.0342
 3702W        W19171   6.048  14.637  13.320 -0.3780  0.0547  0.0498
 3703W        W19172  12.746  10.281   0.626  0.1091  0.2400  0.1599
 3704W        W19173  11.034   2.952  14.377 -0.1837  0.0735 -0.1436
 3705W        W19174   6.551  16.157  11.903  0.2127 -0.0114 -0.4156
 3706W        W19175  12.733  16.703   1.502 -0.1884 -0.0009  0.0924
 3707W        W19176  13.963  10.835   0.697  0.2023 -0.1538  0.2556
 3708W        W19177   0.903  10.858  13.046  0.2166  0.4164 -0.0464
 3709W        W19178   4.880   2.975  15.076 -0.0587 -0.1935  0.0874
 3710W        W19179  18.010   2.205  12.703  0.2201  0.2768 -0.2212
 3711W        W19180  18.502  18.828  13.344  0.1199 -0.1978  0.1649
 3712W        W19181   0.358  14.221   0.457 -0.1028 -0.1282  0.0820
 3713W        W19182  13.849   1.159  11.111  0.0167 -0.0780  0.0149
 3714W        W19183   4.172  16.607   5.073 -0.1756  0.2972 -0.1394
 3715W        W19184   4.318  17.140  15.287 -0.1136  0.1436 -0.1372
 3716W        W19185  18.713  16.428   5.082 -0.1634  0.1046  0.0290
 3717W        W19186  11.314   7.390   9.465  0.2272  0.0215  0.2834
 3718W        W19187   0.420   9.790  15.076  0.1848  0.0933 -0.1394
 3719W        W19188  10.845   3.245  14.753  0.2612 -0.0242  0.1256
 3720W        W19189  10.122   5.244   3.803  0.1776  0.2819  0.2035
 3721W        W19190  12.163   2.087   4.776  0.1358 -0.0795 -0.2219
 3722W        W19191  17.732  17.068   3.525 -0.3049 -0.0604  0.0560
 3723W        W19192   7.346   2.107  14.602  0.1530  0.5255 -0.2369
 3724W        W19193  16.947   8.234   1.069  0.3145 -0.2209  0.0512
 3725W        W19194   2.812  15.097  11.336 -0.0194 -0.1680  0.1834
 3726W        W19195  16.179  13.069   4.881  0.0096  0.1854  0.3616
 3727W        W19196  16.622  16.530   4.197 -0.0442 -0.0599  0.2915
 3728W        W19197  13.015   6.595  11.541  0.2428 -0.4108 -0.0413
 3729W        W19198  15.092   3.398   2.985  0.0690  0.0553 -0.2229
 3730W        W19199   8.230   5.914  15.116 -0.0363 -0.2831 -0.3654
 3731W        W19200   4.532   2.059   3.179 -0.1937  0.2946  0.1023
 3732W        W19201  12.523  15.292  11.530 -0.2572 -0.0187 -0.0109
 3733W        W19202  16.481  17.689   2.954  0.2171  0.1582 -0.4746
 3734W        W19203   9.803   0.062   3.332  0.0007 -0.2307  0.0090
 3735W        W19204   3.717   0.838   5.583 -0.0858 -0.0063 -0.0974
 3736W        W19205   2.677   4.000  11.207 -0.4319 -0.1337  0.6332
 3737W        W19206   1.167  15.936  15.111 -0.2014 -0.1973 -0.0539
 3738W        W19207  15.467   7.473   0.098 -0.1072  0.1287 -0.2051
 3739W        W19208  15.882   0.961   3.146  0.0768  0.2441  0.3132
 3740W        W19209   9.921  11.264  13.889 -0.1473  0.0279  0.0466
 3741W        W19210  17.200  10.115   1.782  0.0650 -0.5349  0.2281
 3742W        W19211  14.033   0.537   4.882  0.0540  0.2125  0.1566
 3743W        W19212  14.174   5.167   4.637  0.0104 -0.1140  0.0828
 3744W        W19213   4.404  17.911   4.070 -0.3495 -0.2728 -0.2539
 3745W        W19214  16.516   9.944  11.903  0.0445  0.2697  0.1258
 3746W        W19215  11.512   9.358   0.154  0.1182 -0.1726  0.0182
 3747W        W19216  12.337  18.565   3.236 -0.1117 -0.5774  0.0768
 3748W        W19217  12.548  11.880  15.105  0.1079  0.1413  0.0177
 3749W        W19218  18.146   7.017   3.753 -0.1778 -0.0090  0.1466
 3750W        W19219   2.678  10.439   2.555  0.1088 -0.1003 -0.0289
 3751W        W19220   9.364  17.066   0.710 -0.0269 -0.1170 -0.0575
 3752W        W19221   6.012  15.844  12.681 -0.1101 -0.0271  0.1385
 3753W        W19222  18.347   1.952   2.432  0.0005  0.0493 -0.1733
 3754W        W19223  14.609  18.658   3.989 -0.0789  0.2241  0.2170
 3755W        W19224   9.784  18.209   5.869 -0.1031  0.1443 -0.0132
 3756W        W19225   6.326   8.857  13.813 -0.1249  0.2632 -0.1188
 3757W        W19226   3.561   7.045   4.702  0.0409 -0.0865  0.0122
 3758W        W19227   2.901   5.097   6.146  0.0473 -0.2233  0.0850
 3759W        W19228   5.980   7.561   1.878  0.0522 -0.0025  0.0394
 3760W        W19229   2.398   7.608  14.275  0.2835  0.2725 -0.1799
 3761W        W19230   1.700   5.974  10.401  0.0867  0.2719 -0.3557
 3762W        W19231   7.565   5.188   4.947  0.3829 -0.3851  0.0346
 3763W        W19232  17.273  14.332  11.729  0.2548  0.1148 -0.1288
 3764W        W19233   6.385  14.687   1.261 -0.1623  0.0182 -0.0706
 3765W        W19234   5.474   7.122  15.344 -0.0117  0.1194  0.2093
 3766W        W19235  17.349   7.321  10.976 -0.0426 -0.2205  0.1440
 3767W        W19236  14.193  16.977  14.205  0.1831 -0.2094 -0.3645
 3768W        W19237  12.873   7.124   3.391  0.0164  0.2305 -0.0288
 3769W        W19238  10.181  12.264  11.207 -0.0971  0.2280  0.0406
 3770W        W19239  18.354   6.581  13.347 -0.1384  0.1297 -0.0154
 3771W        W19240  11.407   1.460   2.533 -0.2877 -0.3412 -0.1098
 3772W        W19241  18.912  16.816   3.421 -0.1369  0.1004 -0.2570
 3773W        W19242   0.977   1.630  12.586  0.0274  0.0288 -0.1385
 3774W        W19243  14.551  15.092  11.184  0.0956  0.1757  0.2690
 3775W        W19244  18.569  12.019   3.778 -0.0304 -0.0125  0.1088
 3776W        W19245  11.017  14.203  14.915 -0.1041  0.1541 -0.1718
 3777W        W19246  13.223  17.236  13.769  0.1940  0.2918 -0.0377
 3778W        W19247   7.069   5.125  11.121  0.4015  0.1007  0.0651
 3779W        W19248   8.397   6.822  13.050 -0.0778  0.1405  0.0644
 3780W        W19249  16.616  10.192   3.509  0.0876 -0.0400  0.1833
 3781W        W19250   5.917  17.015   4.054 -0.2371 -0.2637  0.1692
 3782W        W19251  13.482   1.499  10.989 -0.0891  0.2057 -0.2997
 3783W        W19252   3.177  10.619  12.768  0.2702  0.4700 -0.0084
 3784W        W19253  14.790   3.020   0.781 -0.2134 -0.1044  0.1799
 3785W        W19254   9.902   5.912  13.465 -0.1721 -0.1253 -0.0037
 3786W        W19255  18.865   9.642  15.107 -0.2739  0.2816  0.0816
 3787W        W19256  16.223   5.215   2.789 -0.1840 -0.0999  0.4896
 3788W        W19257  18.154   8.840  15.085 -0.2537  0.0694  0.0871
 3789W        W19258   3.403   9.157   4.481 -0.1371  0.1936 -0.1482
 3790W        W19259  18.154  11.281  12.513 -0.2637 -0.1247 -0.1309
 3791W        W19260   4.946  14.805  12.536 -0.0140  0.1266 -0.0636
 3792W        W19261   5.697  13.993   4.001  0.2267  0.2151  0.0667
 3793W        W19262   3.718  10.938  15.065 -0.1350  0.2081 -0.3123
 3794W        W19263  14.493   2.442  14.607  0.1973  0.1555  0.1435
 3795W        W19264  11.343   8.770   1.852 -0.1394 -0.1796  0.1206
 3796W        W19265  11.373  13.170   2.991  0.0376  0.0312  0.3123
 3797W        W19266   8.215  12.512  14.768  0.0779 -0.0110  0.2354
 3798W        W19267  12.847   3.212  15.031  0.1208 -0.1941 -0.0007
 3799W        W19268  15.039  12.614   0.806 -0.1048  0.3767 -0.3421
 3800W        W19269  13.842  17.873   5.637 -0.0090  0.3145  0.0015
 3801W        W19270   0.490   3.618   9.730 -0.2772 -0.0416  0.1359
 3802W        W19271  11.923  15.075  10.481  0.3275  0.2789 -0.0361
 3803W        W19272   3.509   1.898  14.944  0.1654 -0.0310 -0.4592
 3804W        W19273   1.333  11.157  10.845 -0.0032  0.1426 -0.0174
 3805W        W19274  15.000   3.114   4.397 -0.2836  0.2211 -0.1291
 3806W        W19275  10.364   2.789   0.212  0.1007 -0.0038  0.1077
 3807W        W19276   9.904  14.381  12.565 -0.1262  0.0164  0.2016
 3808W        W19277   0.863   5.627  12.795  0.4069  0.1631  0.0358
 3809W        W19278   7.138  11.540   3.176  0.1996 -0.1539  0.1056
 3810W        W19279   7.427   6.718  13.894  0.3617 -0.2988 -0.1451
 3811W        W19280   3.525   8.771  11.955  0.0391 -0.2673  0.0015
 3812W        W19281   3.371   7.831  12.094  0.0967  0.1114  0.0400
 3813W        W19282  16.733  16.333   5.758 -0.1611 -0.4639 -0.2108
 3814W        W19283   9.394  15.687   0.058 -0.3086 -0.1568 -0.1880
 3815W        W19284   8.681  10.887  12.450  0.0130 -0.1702 -0.2092
 3816W        W19285  15.038  16.609  11.939 -0.0453 -0.2572 -0.1140
 3817W        W19286  17.500  13.145   1.728 -0.3619 -0.0261 -0.0187
 3818W        W19287   3.803   8.235  15.377 -0.1964  0.0122  0.0470
 3819W        W19288  11.631  18.565  12.286 -0.1793  0.1024  0.2491
 3820W        W19289   2.732   3.437   4.161 -0.0391  0.3756  0.1085
 3821W        W19290  11.568   3.549   2.526 -0.2729 -0.0544 -0.1433
 3822W        W19291  11.766  10.360  14.595 -0.0798  0.1227 -0.2655
 3823W        W19292   5.953   0.349  14.616  0.2704  0.0380  0.2797
 3824W        W19293  14.498  15.138   1.654  0.0015  0.0392 -0.2108
 3825W        W19294  10.379  14.464   4.075 -0.2606 -0.1741  0.3497
 3826W        W19295  17.143  10.634  11.723  0.3355 -0.1723  0.0451
 3827W        W19296   8.819   8.988   9.963  0.1652 -0.1145 -0.0126
 3828W        W19297   7.495  16.946  15.032  0.1308 -0.3251  0.1048
 3829W        W19298   3.349   6.646  14.966  0.2246  0.3449 -0.0738
 3830W        W19299  14.450   8.455   1.453  0.1265  0.0558  0.1921
 3831W        W19300  18.359  15.935   0.290  0.1554 -0.2688  0.0920
 3832W        W19301  18.856   5.923  13.174 -0.1025  0.0339 -0.1708
 3833W        W19302   6.623   0.016   2.659 -0.2154  0.0499 -0.2359
 3834W        W19303   4.115  16.518   1.292  0.0048  0.0973 -0.1248
 3835W        W19304   8.977  14.846  11.160 -0.0220  0.0846 -0.0607
 3836W        W19305  14.128  18.899   1.842 -0.0403  0.0189  0.0885
 3837W        W19306  13.873   8.551   3.520 -0.5597  0.1591 -0.0332
 3838W        W19307  10.568   6.019  14.045  0.0045  0.3012 -0.1220
 3839W        W19308   1.756   1.444   5.055 -0.2019  0.1534  0.1777
 3840W        W19309   0.168   5.046  13.249  0.0756  0.2247 -0.4372
 3841W        W19310  11.740  14.745  14.449 -0.0748 -0.0985 -0.0429
 3842W        W19311  11.590  11.986  15.129  0.0706 -0.0924  0.1520
 3843W        W19312   4.266   0.548  11.625  0.3960  0.1475 -0.0943
 3844W        W19313   8.639  12.615  11.599 -0.2158 -0.1197 -0.0542
 3845W        W19314   7.900  15.924   0.870  0.1761 -0.0447 -0.1514
 3846W        W19315  12.282  10.150  12.197  0.0179 -0.2018  0.0031
 3847W        W19316   3.437   9.367  12.050 -0.0369 -0.0722 -0.3077
 3848W        W19317   7.624  18.678  11.563  0.0403  0.0116 -0.1936
 3849W        W19318  14.970   2.517  14.449  0.3443  0.1072 -0.3653
 3850W        W19319   8.805   1.254   5.523  0.1361 -0.1731  0.3307
 3851W        W19320   9.188   3.892  15.470 -0.0442  0.3582 -0.0906
 3852W        W19321  11.061  13.391   0.907 -0.0323  0.2461  0.1152
 3853W        W19322  17.652  10.956  13.016  0.0425  0.0017  0.1894
 3854W        W19323  12.826  10.947   0.609 -0.0502 -0.0465  0.0727
 3855W        W19324   0.961   6.295   1.610 -0.3856  0.1300 -0.0394
 3856W        W19325   7.702  10.339  15.227  0.3785 -0.2443 -0.1513
 3857W        W19326   3.055   1.592  11.166  0.2301  0.0132 -0.3893
 3858W        W19327   4.125  10.588  15.053  0.1017  0.2501 -0.0697
 3859W        W19328  16.970   8.554   0.678 -0.1757  0.2615  0.1374
 3860W        W19329   2.433   9.612  13.651  0.0360  0.1086  0.3294
 3861W        W19330   3.275   5.854  13.389 -0.3648  0.2450 -0.2024
 3862W        W19331   4.017  12.199   4.123 -0.3489  0.1773  0.0033
 3863W        W19332   4.252  17.576  12.005 -0.0296 -0.2281  0.5507
 3864W        W19333   0.581   6.464   4.116  0.0213  0.1584  0.2717
 3865W        W19334   6.752  14.441   2.920  0.0758 -0.0101 -0.1586
 3866W        W19335  10.341   7.912  10.144  0.3961 -0.1258  0.0158
 3867W        W19336  18.168   9.997  15.320 -0.4003  0.0042 -0.0816
 3868W        W19337   4.391  13.152  13.915 -0.2433  0.4039 -0.0174
 3869W        W19338  15.585   0.427  14.543 -0.2121 -0.0933 -0.0187
 3870W        W19339   7.020   7.493   2.536  0.0269 -0.2217  0.3307
 3871W        W19340  14.357  18.910   3.047  0.0181  0.0763  0.1331
 3872W        W19341  15.803   8.505  14.714 -0.1682 -0.1063 -0.0832
 3873W        W19342   7.678   7.179  11.122  0.1378 -0.0518 -0.1421
 3874W        W19343  18.336  14.837  15.245 -0.2538  0.0096  0.0141
 3875W        W19344   5.672  13.160  13.247 -0.2259 -0.1321 -0.1233
 3876W        W19345  15.573  16.505  11.521 -0.1063 -0.2525  0.3487
 3877W        W19346   4.635  18.399   3.990 -0.3194  0.1479 -0.1702
 3878W        W19347   9.656   4.512   1.347  0.0419 -0.2842  0.3238
 3879W        W19348   7.024   2.484   5.150 -0.1078 -0.0383  0.1335
 3880W        W19349   5.283  14.203   4.519  0.0397 -0.2800 -0.0074
 3881W        W19350   4.636   7.321  14.323  0.1241 -0.0517 -0.0192
 3882W        W19351  18.794   8.416  13.928 -0.3788 -0.0734 -0.3464
 3883W        W19352  10.911   6.889  11.798 -0.2066  0.3032 -0.0486
 3884W        W19353   2.884  15.529   3.852  0.1203 -0.1582 -0.0344
 3885W        W19354  17.635   2.684   5.676 -0.3060  0.2594 -0.1740
 3886W        W19355   8.822  18.825   4.200  0.0534 -0.0950 -0.0754
 3887W        W19356  15.682   5.582   1.778 -0.2504 -0.0067  0.1150
 3888W        W19357  16.706  15.968   2.448 -0.1772 -0.1059  0.3919
 3889W        W19358  12.396   6.006   3.365  0.0976  0.0615  0.2482
 3890W        W19359  18.471  15.678   3.825  0.2341  0.1238 -0.0052
 3891W        W19360  17.635  17.371  10.492 -0.1930 -0.2335 -0.2379
 3892W        W19361  16.624  12.340   2.721  0.2207  0.1261  0.0376
 3893W        W19362  13.231  17.491   0.385  0.0854  0.2843  0.0803
 3894W        W19363   9.800  10.595   5.594 -0.0297 -0.0486  0.4430
 3895W        W19364  12.352  18.672  11.308 -0.0256  0.0240 -0.1033
 3896W        W19365   4.432  17.326  13.119 -0.1164  0.1408 -0.0793
 3897W        W19366   3.772  16.402   1.667 -0.0903 -0.2121 -0.3828
 3898W        W19367   2.251   0.486   2.835 -0.3041 -0.1689 -0.2276
 3899W        W19368  10.730  17.963   3.416 -0.2137  0.0108  0.4662
 3900W        W19369   1.721   8.035   1.602  0.0694  0.0621  0.5443
 3901W        W19370   7.761   7.750  11.551 -0.0381  0.2974 -0.0015
 3902W        W19371  14.556  15.949   3.941  0.1549 -0.0158  0.1539
 3903W        W19372   0.732  13.804   0.678 -0.1725  0.0857  0.1329
 3904W        W19373  10.911   5.010   1.796 -0.0836 -0.1616 -0.2684
 3905W        W19374   5.467  14.921  12.339  0.2176  0.2771 -0.0909
 3906W        W19375  18.486  18.209  13.331  0.1516 -0.2011  0.0779
 3907W        W19376  10.952  11.427   4.050 -0.3244 -0.4281 -0.3187
 3908W        W19377  16.303  17.733  13.418 -0.1796  0.2898 -0.1610
 3909W        W19378   8.581   4.998  11.209 -0.1456 -0.1233  0.0164
 3910W        W19379   3.661   3.680  10.574  0.0526  0.3487 -0.2308
 3911W        W19380  11.961  15.109  12.263  0.2340  0.0059 -0.4270
 3912W        W19381  18.037   7.613   2.472 -0.3216 -0.2407  0.0754
 3913W        W19382   6.945   7.775  11.375 -0.3219  0.0443  0.0310
 3914W        W19383  15.060  16.196  11.591 -0.2339 -0.1005  0.0072
 3915W        W19384  17.707  18.312   3.808 -0.2032  0.2938  0.0096
 3916W        W19385  10.562   9.128  14.066 -0.1680  0.1670 -0.2865
 3917W        W19386   6.098   2.860   1.588  0.0726 -0.1962  0.1252
 3918W        W19387  17.905   0.435   3.918  0.1457 -0.0935  0.1570
 3919W        W19388   5.272  13.519  14.377  0.0267  0.3122 -0.0900
 3920W        W19389  14.155   0.205  11.174 -0.1663 -0.1753 -0.3878
 3921W        W19390  12.465  15.390   1.035 -0.2450  0.0547  0.0628
 3922W        W19391   4.146  15.686   2.839  0.1597  0.0019 -0.0144
 3923W        W19392  18.844   2.553  12.217 -0.1360  0.1994 -0.2176
 3924W        W19393  12.183  17.578   0.092  0.2242  0.1621 -0.0174
 3925W        W19394  10.579   3.558   5.100  0.2408  0.0502 -0.0541
 3926W        W19395  18.742   5.534   1.998 -0.0020 -0.2361 -0.2085
 3927W        W19396   7.832   2.390   1.144 -0.0429 -0.2019  0.0286
 3928W        W19397  13.924  15.871  14.716  0.0650 -0.1335  0.0732
 3929W        W19398  14.095   8.040   3.069 -0.2721 -0.0443 -0.2842
 3930W        W19399   3.979   2.564  13.334 -0.0598 -0.1644 -0.0771
 3931W        W19400  11.040  17.643   0.160 -0.0770 -0.0024  0.0358
 3932W        W19401  14.942  17.722   2.848 -0.2726 -0.0575  0.0249
 3933W        W19402   5.161  15.480  10.839  0.1505  0.0251  0.1533
 3934W        W19403  12.721   5.987   1.609  0.4294 -0.0028  0.1259
 3935W        W19404   3.980   4.302  11.322  0.2876  0.0370  0.0510
 3936W        W19405  11.360  12.887   9.733  0.0437 -0.0217 -0.0484
 3937W        W19406  14.578  12.071   1.408 -0.1301 -0.3621  0.0426
 3938W        W19407  17.991   2.017   1.996  0.3604 -0.1332  0.0017
 3939W        W19408  11.992  11.318   3.024 -0.0515 -0.1764  0.0628
 3940W        W19409   8.107   7.293  11.552  0.2134  0.2498 -0.2118
 3941W        W19410   0.922  14.008   2.758  0.0308  0.0853  0.1900
 3942W        W19411   9.097  18.077   4.397 -0.2019  0.0694  0.2477
 3943W        W19412   3.744   1.113   0.279 -0.0380 -0.2450  0.1794
 3944W        W19413   3.217   0.630   2.472 -0.2924  0.0015 -0.0370
 3945W        W19414  11.299   9.503  13.866 -0.4537  0.1909  0.1166
 3946W        W19415   9.271  10.752  12.237  0.3869 -0.2241  0.1294
 3947W        W19416   6.892   4.488   1.616 -0.0746 -0.1813  0.0624
 3948W        W19417   9.451  11.525  12.786 -0.0776  0.2684 -0.1406
 3949W        W19418  12.195   9.014   0.594  0.1157 -0.0441  0.2707
 3950W        W19419   4.071   1.607  13.715 -0.2770 -0.2597 -0.0544
 3951W        W19420   6.842  13.074   5.231 -0.0992 -0.0865  0.2215
 3952W        W19421   3.434   6.791   5.166  0.1808 -0.0832 -0.0267
 3953W        W19422   6.375   0.332   3.673  0.2288  0.1755 -0.0218
 3954W        W19423  11.972  14.852   0.369 -0.0759 -0.0673  0.3334
 3955W        W19424   1.375   8.638  13.373  0.0504  0.1399 -0.0769
 3956W        W19425  18.864   4.027   2.292 -0.2477 -0.2571 -0.1230
 3957W        W19426   5.021   0.848  13.319 -0.1289 -0.0331  0.3289
 3958W        W19427  10.892  12.282  14.432  0.2110 -0.0457 -0.1753
 3959W        W19428  13.539  11.904  13.878 -0.2898 -0.0741  0.1044
 3960W        W19429  10.691  10.069   3.790 -0.2658 -0.0481 -0.1392
 3961W        W19430   2.899  15.265   1.789 -0.1229  0.1745 -0.1179
 3962W        W19431  14.842  11.626   4.801 -0.0160  0.1414  0.2144
 3963W        W19432   5.225  15.990   4.734  0.1821 -0.2271  0.2802
 3964W        W19433   4.459  15.751  15.015  0.2660  0.1474 -0.0109
 3965W        W19434   8.216  14.765  12.822  0.1673 -0.0102 -0.1171
 3966W        W19435  16.611   7.576   3.068 -0.2213  0.0227  0.1242
 3967W        W19436   7.336  11.720   2.250  0.0825 -0.1267 -0.0796
 3968W        W19437   6.837   8.708  13.851  0.0063  0.1213 -0.5360
 3969W        W19438  13.771   8.369   3.073  0.2375 -0.0725  0.0069
 3970W        W19439   8.158  18.921  10.750 -0.3882 -0.1246 -0.0745
 3971W        W19440   3.840   5.054   1.134  0.1210 -0.1319 -0.1852
 3972W        W19441  16.613  16.180  10.661  0.3067 -0.2619  0.0972
 3973W        W19442  16.257   2.382  14.338 -0.0595  0.2348 -0.0703
 3974W        W19443   5.907  18.128   0.011 -0.0560 -0.2814 -0.1788
 3975W        W19444   9.218   2.132   0.254  0.0999 -0.0829 -0.1560
 3976W        W19445   8.816   2.059   2.235 -0.1266 -0.0404 -0.1363
 3977W        W19446  18.415  11.812  15.426  0.1198  0.0751 -0.2535
 3978W        W19447  14.812  18.664  14.823  0.3027  0.0077 -0.2517
 3979W        W19448   2.722  12.532  15.066  0.4152 -0.2088 -0.0463
 3980W        W19449   8.010   0.229   6.034 -0.1582 -0.1418  0.0103
 3981W        W19450   6.314  12.790  14.054  0.0708 -0.1259 -0.1816
 3982W        W19451  18.409   0.200  10.084  0.0951 -0.2513  0.0333
 3983W        W19452  16.800  11.842   2.602 -0.1541 -0.3751  0.1617
 3984W        W19453  14.228   2.973   3.009  0.0545 -0.2442  0.2490
 3985W        W19454   9.921  14.038  13.657  0.1640  0.0482  0.2109
 3986W        W19455   5.553   6.085   0.368 -0.1007  0.2030  0.0882
 3987W        W19456  12.120  10.663  14.945 -0.1881  0.2219  0.3254
 3988W        W19457   7.453  11.374  12.904  0.1012 -0.0620 -0.1631
 3989W        W19458   2.652   4.163   3.443 -0.2135  0.1358 -0.2758
 3990W        W19459  14.227   3.342   2.100  0.2697  0.1326  0.1554
 3991W        W19460   1.774   3.561  12.061  0.3373  0.0613  0.0547
 3992W        W19461   9.167   4.441   2.606 -0.2127 -0.0891 -0.1144
 3993W        W19462  13.723  17.979  14.717 -0.1190  0.1198  0.0607
 3994W        W19463  10.583   3.151   3.829 -0.2287 -0.1500 -0.0409
 3995W        W19464   2.449   2.903   2.224  0.0397 -0.0303 -0.1789
 3996W        W19465   0.594  16.180  15.179  0.1168 -0.2569  0.2403
 3997W        W19466   3.354  10.686   3.021  0.1293  0.0726  0.0169
 3998W        W19467   5.407  17.562   4.361  0.5639 -0.1232  0.2837
 3999W        W19468   9.507   4.851   1.694  0.1663 -0.0570  0.0642
 4000W        W19469   5.820  18.435  11.660  0.0613  0.0390  0.0396
 4001W        W19470   1.103  14.324  11.167 -0.3516  0.1528 -0.1011
 4002W        W19471  15.803  10.931   3.198  0.2309  0.1755 -0.0087
 4003W        W19472   9.669   9.675   4.459 -0.1620  0.2868 -0.2780
 4004W        W19473   3.858   8.359  11.786 -0.3176 -0.1956 -0.0112
 4005W        W19474   6.236  17.561   1.003  0.0457 -0.1132  0.1591
 4006W        W19475   6.498   3.357   4.394  0.1882  0.3267  0.5738
 4007W        W19476  16.589  14.740  13.755 -0.0479 -0.0629 -0.0579
 4008W        W19477   3.033  10.152   3.670  0.0138 -0.0670 -0.3894
 4009W        W19478   0.150   3.996  14.783 -0.1477 -0.3361 -0.4029
 4010W        W19479  14.015  17.673   4.956  0.0079  0.2184  0.2342
 4011W        W19480   2.703  14.715   3.050 -0.1103 -0.0846 -0.0456
 4012W        W19481   1.917  16.611   2.385  0.2443 -0.1335  0.3022
 4013W        W19482  15.254  10.897   3.109  0.1510 -0.0460 -0.0882
 4014W        W19483   6.463   9.270  11.461 -0.5090 -0.0304 -0.1167
 4015W        W19484   3.763   8.734   4.620  0.2008  0.1465  0.2748
 4016W        W19485   7.785  17.803   2.741  0.1154  0.1534  0.0124
 4017W        W19486  17.426  12.826   5.605  0.0820  0.0481 -0.4039
 4018W        W19487   1.392  17.615  11.916 -0.1441  0.0837 -0.2001
 4019W        W19488   5.100   8.875  14.786  0.1434  0.2153  0.1306
 4020W        W19489   9.361   6.393  12.302 -0.1229  0.1482  0.0663
 4021W        W19490  14.572   8.438   4.262  0.2245  0.1905 -0.0852
 4022W        W19491   6.737   5.409  13.777 -0.2078  0.1902  0.3126
 4023W        W19492  15.307  18.159   3.737  0.1066  0.0052 -0.1648
 4024W        W19493   2.757   5.106   5.150 -0.1868 -0.1608 -0.0455
 4025W        W19494  11.869   4.958   0.615 -0.2169 -0.3567  0.1266
 4026W        W19495  14.885  18.204   2.986 -0.1032 -0.4055 -0.0290
 4027W        W19496  18.451   2.032  12.914  0.1439 -0.2831  0.0694
 4028W        W19497  14.449  16.410   1.387 -0.1418 -0.0204  0.0234
 4029W        W19498   3.862  18.281   2.071  0.1444 -0.0774 -0.1151
 4030W        W19499   1.908  13.629  12.379  0.3297  0.3163  0.0829
 4031W        W19500   6.432  15.394  12.549  0.2307  0.1321  0.1774
 4032W        W19501  15.900  17.025   4.379 -0.3361 -0.0586 -0.1453
 4033W        W19502   0.391   4.374   5.334 -0.2773 -0.0585  0.0824
 4034W        W19503  14.066   9.658   9.771 -0.2878 -0.1485  0.1008
 4035W        W19504   1.812   1.482   5.543 -0.0196 -0.3075 -0.0511
 4036W        W19505   9.284   8.104   4.243  0.0810  0.1313 -0.0589
 4037W        W19506  12.003   8.063  12.714  0.2680 -0.0752  0.0272
 4038W        W19507   0.173   0.663   2.202  0.0694 -0.0781  0.1860
 4039W        W19508  18.421   2.139   5.057  0.0206  0.1767 -0.0555
 4040W        W19509  12.737   3.926  11.089  0.0619 -0.1470 -0.3882
 4041W        W19510  15.412   5.786   1.323  0.0459  0.0552 -0.0301
 4042W        W19511   6.960   7.023   2.782  0.0396  0.0564  0.1297
 4043W        W19512  18.853   5.736   1.448  0.0116  0.3561  0.0087
 4044W        W19513   8.639   1.124  13.333  0.1105  0.1487  0.5359
 4045W        W19514  16.317  13.565  12.257  0.0820  0.0633  0.1767
 4046W        W19515   1.657   4.676   4.349  0.2542  0.2343  0.0096
 4047W        W19516   4.862   1.559   1.424  0.2295 -0.2254 -0.0131
 4048W        W19517   8.572  18.197   2.105 -0.0776  0.0022  0.2855
 4049W        W19518  10.892   2.168   3.615 -0.0994  0.0132 -0.1627
 4050W        W19519   4.480  10.533  13.492 -0.1331  0.0543 -0.2749
 4051W        W19520   6.045   6.589  11.556  0.2662  0.0916 -0.0826
 4052W        W19521   2.377  10.283  11.252  0.2435 -0.1491  0.1615
 4053W        W19522   3.936  18.024  13.463  0.2574 -0.1722 -0.1019
 4054W        W19523  13.194  10.349  11.889 -0.2364  0.0378 -0.4325
 4055W        W19524  10.680  10.904   4.921 -0.4471 -0.0472 -0.3451
 4056W        W19525   6.903   2.624  10.894  0.1326  0.2770 -0.1007
 4057W        W19526  18.912   9.055   5.350  0.2193  0.3383 -0.2408
 4058W        W19527  17.230  11.046  14.244 -0.1650 -0.3186 -0.2971
 4059W        W19528  15.350   7.801   4.514  0.2109 -0.3119  0.1576
 4060W        W19529  16.197   0.997   9.690 -0.0442  0.2358  0.1966
 4061W        W19530   6.012   6.136   3.422  0.0826  0.0668 -0.0261
 4062W        W19531   3.277  10.833  12.208 -0.2159  0.0345  0.1653
 4063W        W19532  15.086   9.885  14.660 -0.0713 -0.0969 -0.0229
 4064W        W19533  18.370  10.831   2.418 -0.0502 -0.0165  0.1147
 4065W        W19534  13.225   6.459   4.511  0.1986 -0.0848 -0.1053
 4066W        W19535   3.839  12.094   0.581  0.2593 -0.3608 -0.1144
 4067W        W19536   8.914   3.380   0.923  0.0380 -0.2270 -0.0882
 4068W        W19537   9.545   3.922  13.455 -0.0898 -0.1786 -0.3551
 4069W        W19538  13.759   6.057   2.655 -0.0587 -0.3464  0.0758
 4070W        W19539   1.999   4.723   3.786 -0.0778  0.0182 -0.3506
 4071W        W19540   2.894   0.075  15.506  0.1335  0.0290  0.1264
 4072W        W19541  18.212  18.542   2.261 -0.0336  0.2180 -0.1449
 4073W        W19542   7.141  12.221  13.034 -0.0714 -0.2549 -0.0617
 4074W        W19543   9.760  11.003  11.523  0.0123 -0.2000  0.1113
 4075W        W19544  12.708   6.036   0.160  0.3319  0.0859 -0.3052
 4076W        W19545   8.411  12.872  12.028  0.0919 -0.1115 -0.0936
 4077W        W19546   5.505  17.006   0.541 -0.0013 -0.0842  0.0389
 4078W        W19547   7.538  16.697   0.864  0.1933  0.2543  0.2067
 4079W        W19548   9.988   7.652  10.611 -0.0853  0.0181  0.0254
 4080W        W19549  18.930  15.944   2.400 -0.2947 -0.3791  0.0355
 4081W        W19550   8.035  10.999  14.686 -0.0548  0.0532  0.3436
 4082W        W19551   1.406   0.026  12.600  0.1351  0.0597 -0.1065
 4083W        W19552  12.583   8.417   1.558 -0.0700 -0.0432 -0.1087
 4084W        W19553   9.431  11.215  13.569 -0.1779  0.3302 -0.0877
 4085W        W19554   5.299   1.433  12.762  0.2614 -0.1155  0.2029
 4086W        W19555  12.455  17.981  12.136 -0.1441 -0.1812  0.0531
 4087W        W19556  10.516   0.369  14.043  0.1597 -0.2297 -0.1463
 4088W        W19557  12.067   0.023  12.799  0.0360  0.0058  0.2516
 4089W        W19558  15.664   4.545   0.268  0.0433  0.2346 -0.2318
 4090W        W19559  10.459  10.909  14.473  0.1696  0.1118 -0.1279
 4091W        W19560   6.039   7.412  13.854 -0.0256 -0.2614 -0.0476
 4092W        W19561  11.694   9.531  12.181 -0.3460 -0.0756 -0.0940
 4093W        W19562  12.040   7.120  12.343 -0.0415  0.2673 -0.1497
 4094W        W19563   9.385   8.790  15.245  0.0956 -0.1282 -0.1991
 4095W        W19564  11.017  13.259  14.869 -0.0947  0.0783 -0.3009
 4096W        W19565   5.743   2.476   4.264 -0.0595 -0.2381 -0.1808
 4097W        W19566   7.973   0.964   4.660 -0.1390 -0.0947  0.3481
 4098W        W19567  15.394  15.190  15.200 -0.0254 -0.0771  0.1671
 4099W        W19568   7.094   2.500   3.165  0.1591 -0.0608 -0.0065
 4100W        W19569   8.801  10.053   1.501 -0.2455  0.2256 -0.1213
 4101W        W19570   4.835   1.623   2.118 -0.0289  0.1311  0.2175
 4102W        W19571   3.353  13.123   0.004  0.1294  0.3310  0.1172
 4103W        W19572  14.814   1.125   1.283 -0.1949  0.1164  0.0060
 4104W        W19573   1.722  10.552   2.487 -0.4657  0.6760 -0.2107
 4105W        W19574  12.807   7.096  15.368  0.2455  0.1125 -0.2022
 4106W        W19575  13.205   7.458  12.792 -0.0196  0.0916 -0.1810
 4107W        W19576  14.159   7.890  13.258 -0.2597 -0.0091 -0.1060
 4108W        W19577   8.031  15.796   4.828  0.1588 -0.0853  0.2336
 4109W        W19578   9.941  13.369  14.950  0.3743  0.0044 -0.0471
 4110W        W19579   4.056  16.299   2.217  0.0307  0.0607  0.0897
 4111W        W19580   6.076   1.692   3.538 -0.1894 -0.2125  0.1893
 4112W        W19581   9.269  16.905   1.670 -0.2529 -0.1415 -0.0874
 4113W        W19582  17.091   2.112   5.112  0.2436  0.0666 -0.2902
 4114W        W19583   3.916   0.781   4.193  0.2955 -0.1719 -0.2072
 4115W        W19584  14.218  13.045   2.492  0.0761  0.1048  0.5463
 4116W        W19585   7.077  13.331  14.887  0.0661 -0.0713 -0.1622
 4117W        W19586  10.145  11.025   0.267 -0.0426  0.0438 -0.1107
 4118W        W19587   4.527   4.872   3.977 -0.1419 -0.1142 -0.1004
 4119W        W19588  15.988  12.755  12.852  0.4042  0.0671  0.5121
 4120W        W19589  15.453  13.803   3.961 -0.1916 -0.1882  0.0872
 4121W        W19590  11.076  11.419   0.793 -0.1391 -0.3715  0.0404
 4122W        W19591   7.856  10.596   1.472 -0.0728 -0.3368 -0.0102
 4123W        W19592   0.904  18.329  14.691 -0.1003 -0.1032 -0.0030
 4124W        W19593   9.986  15.531  13.656 -0.0060  0.0100 -0.1443
 4125W        W19594   5.791  14.046  10.018  0.1514  0.2022 -0.1411
 4126W        W19595   6.674  18.218   4.500  0.3305  0.0852 -0.7264
 4127W        W19596   6.458   7.755  14.835 -0.2205 -0.1424 -0.0045
 4128W        W19597   4.919  12.221  11.857  0.0946  0.4329 -0.0639
 4129W        W19598  14.240   6.388   0.651 -0.1297  0.2313  0.1003
 4130W        W19599   0.672   9.577   5.510 -0.0087 -0.0291  0.2124
 4131W        W19600   2.628  16.629   2.914  0.2286  0.0377  0.3388
 4132W        W19601  10.171  10.449   0.651 -0.0491 -0.1415  0.0362
 4133W        W19602  13.726  11.384  15.284  0.0523  0.2039  0.1967
 4134W        W19603   8.996   9.595   2.357 -0.2136  0.2963 -0.1779
 4135W        W19604  12.768  13.027   1.490 -0.1752 -0.1977  0.0121
 4136W        W19605   9.283  13.816   0.023 -0.2042 -0.0534  0.0885
 4137W        W19606   3.656  14.865  10.874 -0.1366  0.2273 -0.0883
 4138W        W19607   1.098   5.959  14.328 -0.0224  0.0620  0.1360
 4139W        W19608   6.788  11.251   1.040 -0.0116  0.1948 -0.1338
 4140W        W19609   7.168   8.614  14.948  0.1628  0.0680 -0.3583
 4141W        W19610  13.580  12.847   3.330  0.3534 -0.0244 -0.2253
 4142W        W19611   1.559   0.802  14.631  0.0805 -0.0047  0.3395
 4143W        W19612  10.850  15.173   2.375  0.1381 -0.0809  0.3129
 4144W        W19613  11.447   3.640  14.043  0.2160  0.1789 -0.1624
 4145W        W19614  13.771  13.093  14.557  0.2645 -0.0692 -0.1986
 4146W        W19615  17.564   9.315  14.009  0.1344  0.0330  0.1183
 4147W        W19616   1.494   4.188   4.394 -0.1121 -0.3344  0.1406
 4148W        W19617  14.253   5.161   2.752  0.0547 -0.3583 -0.0033
 4149W        W19618  16.122  10.222   5.264  0.0936 -0.2546 -0.2637
 4150W        W19619   2.101  16.132   2.368 -0.0547  0.1637  0.2646
 4151W        W19620   3.554   6.166  12.527 -0.2456 -0.0130 -0.3332
 4152W        W19621  14.817   0.477   2.533 -0.1507 -0.0017  0.2680
 4153W        W19622  11.326   1.887  13.393  0.0168  0.0732  0.3228
 4154W        W19623   5.643   3.336   2.759  0.2438  0.5919  0.1986
 4155W        W19624  13.848   8.157   5.022  0.3237  0.4658  0.0255
 4156W        W19625  14.734   2.931  10.830  0.1132 -0.1271 -0.6015
 4157W        W19626   1.798   6.958  13.958  0.2839 -0.0098  0.1295
 4158W        W19627   9.165   1.143   2.910 -0.0802 -0.2361 -0.2600
 4159W        W19628   2.714   6.824  11.572 -0.2669  0.2603 -0.1291
 4160W        W19629  10.740  10.346   0.642 -0.2742 -0.0088  0.0858
 4161W        W19630  17.576   4.935   6.156  0.3657 -0.2065 -0.3685
 4162W        W19631  10.050  17.028   5.493 -0.1353  0.1791 -0.1578
 4163W        W19632   0.598  15.430   1.457 -0.0330  0.0537 -0.1870
 4164W        W19633   4.937  14.089  14.258 -0.3398 -0.0252  0.0437
 4165W        W19634   0.503  14.720   0.382 -0.3542  0.1793  0.0819
 4166W        W19635   1.799   5.447  11.840  0.0144 -0.1577 -0.0347
 4167W        W19636   2.885  16.199   2.334 -0.3502 -0.0079 -0.1468
 4168W        W19637   3.372   5.641  10.998  0.1986 -0.1878  0.1079
 4169W        W19638  18.072   7.025  13.203  0.0957 -0.3087  0.4822
 4170W        W19639   6.508  16.453  13.402 -0.2697 -0.1131  0.0192
 4171W        W19640  13.880   7.546   0.935  0.1649  0.4254  0.0964
 4172W        W19641   6.479   0.936  14.494 -0.3085  0.2634  0.0860
 4173W        W19642  17.670   0.020   1.066  0.0913 -0.3974  0.3933
 4174W        W19643   5.170   0.041  14.187 -0.1327  0.2328  0.1407
 4175W        W19644   1.285   9.160  11.491  0.0081 -0.1406 -0.0395
 4176W        W19645  12.483  17.855   3.582 -0.1669 -0.1618  0.2303
 4177W        W19646  13.712  17.378  13.838  0.0609 -0.0320 -0.0298
 4178W        W19647   4.954  15.863   2.170 -0.1632  0.2730  0.0688
 4179W        W19648  11.289   9.715   0.476 -0.0966  0.2341  0.0412
 4180W        W19649   4.358   2.297  10.698 -0.1891 -0.1429 -0.0417
 4181W        W19650   1.172   9.931   1.496 -0.0910 -0.2626 -0.3612
 4182W        W19651  11.548   0.184   0.164 -0.2080  0.2554 -0.2314
 4183W        W19652   6.103  12.325  10.918 -0.3062  0.2652  0.0542
 4184W        W19653   3.390  14.729  12.621  0.1526  0.2133 -0.0237
 4185W        W19654   6.173  18.742   5.645 -0.1068 -0.0940 -0.2173
 4186W        W19655   8.856  13.801   3.876 -0.1668  0.0715  0.0299
 4187W        W19656  17.099   4.997   2.877  0.5243 -0.0727 -0.1483
 4188W        W19657   0.050   2.289   1.320  0.1101 -0.1525  0.1186
 4189W        W19658  17.402   2.058   0.468 -0.3255 -0.2615 -0.0168
 4190W        W19659  10.209   1.348   0.741  0.0189 -0.0602  0.1088
 4191W        W19660  11.982   1.165  13.298 -0.0341  0.1811 -0.1268
 4192W        W19661   4.972   8.523   2.476  0.1429 -0.2139  0.0918
 4193W        W19662   0.453   2.270  15.022 -0.2824 -0.1140  0.2207
 4194W        W19663  15.326  16.360   4.672  0.1155 -0.0896  0.0760
 4195W        W19664   6.345  10.388   5.058  0.0733 -0.0100  0.0607
 4196W        W19665  12.878   2.315  12.029 -0.1411 -0.1808  0.1609
 4197W        W19666  11.415   1.758   4.335 -0.0754  0.1572 -0.2764
 4198W        W19667  17.378  18.054   2.670  0.1824  0.0213  0.0860
 4199W        W19668   8.064  13.669   5.014 -0.2690  0.1770  0.1651
 4200W        W19669  13.886  18.832   5.171  0.1663 -0.4313  0.0878
 4201W        W19670   0.819  10.317   1.502  0.0540  0.1998  0.2985
 4202W        W19671   3.450   0.241  14.040  0.0268 -0.2732  0.0808
 4203W        W19672   3.557   8.998  13.108  0.0971  0.2076  0.1554
 4204W        W19673  12.906   3.321  14.548 -0.0044 -0.1210  0.2666
 4205W        W19674  17.995  16.756   1.728 -0.0617  0.3451 -0.2217
 4206W        W19675   9.132   1.455  14.263 -0.1136 -0.0513 -0.0281
 4207W        W19676   5.219   5.035   5.241 -0.2039  0.0796 -0.0418
 4208W        W19677   6.365  13.461  11.744  0.3538 -0.1598  0.1676
 4209W        W19678   6.272   4.515   0.466 -0.3751  0.3704  0.1853
 4210W        W19679   6.511   8.157  14.465 -0.0032 -0.0748 -0.0016
 4211W        W19680   5.150   0.430  12.200  0.0787  0.2253 -0.1482
 4212W        W19681   8.422  15.186  14.846 -0.1248  0.3886  0.2573
 4213W        W19682   6.608   7.961   2.940  0.2417 -0.0498 -0.3626
 4214W        W19683  13.425   5.485   3.331 -0.0486 -0.0900  0.0736
 4215W        W19684  16.661  13.202  14.983 -0.1153  0.1701 -0.0115
 4216W        W19685   7.479   6.407   5.888  0.0737  0.0529 -0.0837
 4217W        W19686  17.391   9.114   1.325 -0.2778 -0.1234 -0.1814
 4218W        W19687  15.909  13.165  11.456  0.1269 -0.0661 -0.1228
 4219W        W19688   4.335  10.744  11.821  0.1428 -0.1384  0.3503
 4220W        W19689   0.277  15.036  12.688  0.3850 -0.0747  0.1012
 4221W        W19690  17.746  14.556  14.562 -0.0590  0.2497 -0.3342
 4222W        W19691  18.309   8.121  12.096  0.0980  0.2116  0.2731
 4223W        W19692   0.115   7.832   4.140 -0.0758  0.4268  0.2134
 4224W        W19693  16.843   9.041   5.424  0.0763  0.1288 -0.3102
 4225W        W19694   8.261  16.409  14.154 -0.0221 -0.0078  0.0068
 4226W        W19695  17.827   2.570  15.029  0.2610  0.0995 -0.2444
 4227W        W19696   3.061  16.381   1.349  0.0365 -0.1603 -0.1125
 4228W        W19697   6.120   4.267   4.670 -0.0282 -0.0900  0.1460
 4229W        W19698   9.582  13.838  11.842 -0.1091 -0.4124  0.2310
 4230W        W19699   2.728  11.151  13.904  0.1805 -0.3524  0.0066
 4231W        W19700   3.856  11.749   5.379  0.2059 -0.0503  0.0339
 4232W        W19701   8.920   2.315  12.918  0.3663  0.1458 -0.2852
 4233W        W19702   5.932   2.982  15.023 -0.1590 -0.0547  0.0540
 4234W        W19703   9.416   2.167  11.911 -0.1374  0.1638  0.0392
 4235W        W19704   8.034  14.974   3.168 -0.3590  0.2620  0.1572
 4236W        W19705  10.525   0.965   4.635  0.4194 -0.0204  0.1193
 4237W        W19706  18.682  18.443   4.333 -0.0429  0.0228  0.1966
 4238W        W19707  14.642   4.651   3.489  0.1274  0.1902  0.3494
 4239W        W19708   0.442   8.707   1.757 -0.0074  0.0123 -0.0553
 4240W        W19709   4.416  16.807   3.335 -0.3196 -0.1802 -0.0332
 4241W        W19710   1.467  11.900   3.174 -0.1508  0.2430 -0.0776
 4242W        W19711   2.025  13.424  10.935 -0.0920 -0.2341 -0.0648
 4243W        W19712   0.349   1.833   1.841 -0.0152 -0.2186  0.2079
 4244W        W19713   2.959  14.002  15.087  0.5269 -0.1086  0.1122
 4245W        W19714  18.066   5.348  14.582  0.3303 -0.0706 -0.3277
 4246W        W19715   5.908  16.624   1.106 -0.3929  0.0344  0.0211
 4247W        W19716   7.377   0.009   1.997 -0.1698 -0.0593  0.0340
 4248W        W19717   3.325  15.633   0.143  0.2018 -0.0545  0.0739
 4249W        W19718   4.620   7.947   3.166  0.0420 -0.1157  0.0131
 4250W        W19719   4.094   5.229  13.286 -0.0547  0.2533 -0.2157
 4251W        W19720  17.832   8.068   2.436 -0.0406 -0.1416  0.2459
 4252W        W19721   2.916   3.305   1.315  0.0841 -0.4363 -0.2603
 4253W        W19722   1.369  13.030  12.776 -0.1904 -0.1528 -0.0401
 4254W        W19723   3.570   0.093  12.043 -0.3253  0.1685  0.1491
 4255W        W19724  11.991   3.345   2.120 -0.0067  0.2646  0.1762
 4256W        W19725   5.766  17.557   4.015  0.2135  0.2347  0.0676
 4257W        W19726   7.179  17.162   6.319 -0.5010 -0.0801  0.0875
 4258W        W19727   2.691   2.185  11.770 -0.3045 -0.3420 -0.1670
 4259W        W19728  17.106  11.478  13.451 -0.3050  0.0940 -0.0331
 4260W        W19729   2.749  17.137   5.921 -0.1984  0.1653  0.0575
 4261W        W19730   7.399  16.050   0.874 -0.0204 -0.1211  0.0219
 4262W        W19731   5.617  16.089  15.450  0.3469  0.1602 -0.0410
 4263W        W19732  14.659  11.770   2.373  0.0071 -0.0458 -0.3509
 4264W        W19733   1.479  18.680   3.908 -0.2923 -0.0102  0.1102
 4265W        W19734   9.998   7.600  12.815  0.2150  0.2330 -0.0766
 4266W        W19735   1.162  15.269  14.463 -0.4282  0.0372 -0.1224
 4267W        W19736   6.171  10.972  11.648 -0.0068  0.0411  0.0465
 4268W        W19737  10.768   7.795   3.179 -0.1037 -0.1111 -0.1047
 4269W        W19738   3.227  13.809  11.916  0.0323 -0.3133 -0.0644
 4270W        W19739  12.702  16.858  13.199  0.0314  0.1682  0.0956
 4271W        W19740  10.492   8.268  13.249  0.0489 -0.0582  0.1260
 4272W        W19741  14.144   4.867   4.208  0.1195  0.0221 -0.1118
 4273W        W19742  16.405   6.313   0.708 -0.5319  0.1181 -0.0259
 4274W        W19743  13.743   0.467  10.298  0.2720 -0.0429  0.2316
 4275W        W19744   2.633  15.990  13.979  0.0112 -0.4915 -0.1027
 4276W        W19745  16.882   5.039   3.742 -0.1999  0.1949  0.2867
 4277W        W19746  14.870   2.071   4.056  0.2949 -0.0106 -0.0952
 4278W        W19747   0.351   5.856  14.792 -0.0535 -0.1931 -0.1630
 4279W        W19748   8.381   2.640   5.940  0.1000 -0.2480  0.0101
 4280W        W19749  17.822  13.180   1.295  0.3144  0.3232  0.3630
 4281W        W19750  11.537   3.317  10.884  0.1526 -0.0231  0.1189
 4282W        W19751   2.741  16.587   4.337  0.0272 -0.1297  0.0834
 4283W        W19752  14.539  13.006  12.907  0.0456 -0.0647  0.0022
 4284W        W19753   4.478   9.012   2.715  0.2475  0.4060 -0.2976
 4285W        W19754   5.408  12.537   2.227 -0.1530 -0.1602  0.1436
 4286W        W19755   3.127   5.199   5.451  0.2785 -0.1619 -0.1866
 4287W        W19756   9.666  16.983  10.160 -0.2976 -0.1319  0.1187
 4288W        W19757   7.260   0.370  11.318  0.1651 -0.1001  0.1693
 4289W        W19758  15.930  17.003   4.866  0.1513 -0.2432  0.0279
 4290W        W19759  15.328   5.369   3.093  0.3163 -0.3450  0.4603
 4291W        W19760   8.514  12.714   1.057  0.2507 -0.0372  0.0693
 4292W        W19761  15.036  12.911   3.018 -0.0194 -0.0825  0.4457
 4293W        W19762   3.734   7.076   0.863 -0.0484 -0.0052  0.0021
 4294W        W19763  15.492   4.883   3.055 -0.4520 -0.0058 -0.0680
 4295W        W19764  17.041   3.133  13.520 -0.1785 -0.1493  0.0259
 4296W        W19765   5.733   9.873   3.969 -0.0324 -0.1365 -0.0295
 4297W        W19766   8.108   2.991  12.947 -0.0723 -0.0764  0.0020
 4298W        W19767   6.203   1.136   4.546  0.0422 -0.0199  0.0150
 4299W        W19768   3.016   0.866   4.772 -0.0620 -0.0166  0.0220
 4300W        W19769  17.574   3.855  13.324 -0.3243  0.0655 -0.1355
 4301W        W19770   8.194  18.684  14.127 -0.0882  0.2125 -0.3162
 4302W        W19771   1.565   5.421  11.351  0.1247  0.1948  0.0498
 4303W        W19772  15.956  13.540   5.087 -0.2607 -0.2910 -0.0571
 4304W        W19773   3.989   3.006   0.010 -0.1001 -0.0727 -0.0231
 4305W        W19774   2.855  15.603  12.665 -0.2412 -0.0176  0.2566
 4306W        W19775  13.013  14.169  13.469 -0.0697 -0.0016  0.2149
 4307W        W19776   4.618   6.447   3.659  0.1976  0.1766 -0.2872
 4308W        W19777   6.213  11.642  12.120 -0.0419  0.4412  0.0421
 4309W        W19778  14.016   6.723   0.930 -0.0971  0.2965  0.0977
 4310W        W19779   8.144   5.099   3.570  0.2866 -0.2351 -0.0420
 4311W        W19780  10.020   8.524  11.165  0.2735  0.1393  0.1942
 4312W        W19781   5.884  14.092  13.125 -0.2763  0.2186 -0.0598
 4313W        W19782   5.391  17.154   3.917  0.3653 -0.0005 -0.1141
 4314W        W19783   0.454   0.629   1.497 -0.1397 -0.4327 -0.0932
 4315W        W19784  13.523  11.394  14.840  0.0023  0.3398 -0.0593
 4316W        W19785   4.712   8.349   3.770 -0.2068 -0.1986 -0.1830
 4317W        W19786   8.420  15.088  13.945 -0.0204  0.1562  0.0133
 4318W        W19787   9.722  17.728   2.575 -0.1089  0.0483  0.1028
 4319W        W19788  18.617  15.341  11.730  0.1063 -0.2975  0.1081
 4320W        W19789   3.820   6.751   4.316 -0.1673 -0.1623 -0.1690
 4321W        W19790   8.859   1.914  14.351  0.0745  0.0635 -0.3711
 4322W        W19791  12.857  12.602  11.614 -0.3256 -0.0396 -0.1270
 4323W        W19792   6.183   1.802  13.347  0.0525 -0.2511  0.2173
 4324W        W19793  11.625   0.060   1.573 -0.1402 -0.0053 -0.1420
 4325W        W19794  13.692  10.445  14.022 -0.2163  0.3941  0.0103
 4326W        W19795   7.759  13.816   1.048 -0.0990  0.1422  0.0262
 4327W        W19796   8.858   6.472   1.540  0.1399 -0.1576  0.1555
 4328W        W19797   7.960   2.671  14.169  0.1928 -0.0540 -0.3301
 4329W        W19798  18.038   9.209   2.929 -0.3051  0.1221  0.1023
 4330W        W19799  10.571  16.967   0.520 -0.2513 -0.1787 -0.0154
 4331W        W19800   7.766  11.581  14.940  0.0888 -0.1716  0.0566
 4332W        W19801   3.094  11.563   4.264 -0.0440  0.0830 -0.0091
 4333W        W19802   6.420  16.210   3.622  0.1007 -0.2233  0.0971
 4334W        W19803   1.481   2.767  13.772  0.1776  0.0836 -0.0767
 4335W        W19804  17.560   0.287  14.750 -0.1791 -0.1489  0.1200
 4336W        W19805   5.305  11.505  14.250 -0.0692 -0.0213  0.0411
 4337W        W19806   4.661  16.646   0.698  0.1006 -0.0277 -0.1368
 4338W        W19807  10.515  17.242   4.294  0.0434 -0.0103 -0.1431
 4339W        W19808  18.667  10.425  10.761 -0.2553 -0.0409 -0.1154
 4340W        W19809  14.486   2.557   0.672 -0.2340  0.2936  0.2756
 4341W        W19810   2.704  10.594   1.158 -0.0136 -0.0797  0.1552
 4342W        W19811  16.137  16.984  12.780  0.2115 -0.1296  0.1135
 4343W        W19812  11.556   8.162  12.094  0.2299 -0.0410  0.2268
 4344W        W19813   0.955  10.512  14.915  0.1285 -0.1893 -0.1154
 4345W        W19814   4.671   9.523  12.060  0.1315  0.3788  0.0700
 4346W        W19815  18.702  13.940  11.064  0.4501 -0.2559  0.1664
 4347W        W19816  11.754   9.948  13.093 -0.2089  0.1057  0.1568
 4348W        W19817  16.467   5.235  12.991  0.2877  0.2449  0.1580
 4349W        W19818   3.767  17.370   3.249 -0.1190 -0.4785 -0.2015
 4350W        W19819  12.591   3.006   0.612  0.4555 -0.0148  0.1618
 4351W        W19820  12.330   9.978  13.023 -0.0401 -0.1925  0.2439
 4352W        W19821   0.754  16.535   3.081 -0.0397  0.0591 -0.0264
 4353W        W19822   1.671   3.113   4.331 -0.1303  0.1809 -0.0282
 4354W        W19823  12.937   0.088  12.146  0.0668  0.2258 -0.1173
 4355W        W19824   7.491   2.213   4.865 -0.1421 -0.1407  0.0020
 4356W        W19825  16.159  15.854  11.549  0.0976 -0.0032  0.3733
 4357W        W19826   9.625   2.359  11.504 -0.0770  0.0511 -0.0089
 4358W        W19827   0.264  16.779   2.566  0.1159 -0.0004  0.3797
 4359W        W19828   0.269   0.474   3.281 -0.2710  0.0232 -0.1245
 4360W        W19829  14.699   2.147   1.913 -0.1230  0.3076  0.0592
 4361W        W19830   0.581  15.079  11.375  0.2289  0.1750 -0.1009
 4362W        W19831  11.884  16.835  10.632 -0.2316  0.1108  0.2794
 4363W        W19832   8.419  12.826   4.452  0.0185  0.1873  0.0493
 4364W        W19833  18.237  14.754   5.356 -0.2794 -0.0062 -0.4084
 4365W        W19834   9.456   8.945   0.398  0.0482  0.0379  0.2810
 4366W        W19835   8.177  17.771  12.461  0.0242  0.3735 -0.3639
 4367W        W19836  10.079   5.360   2.068 -0.0244 -0.0852 -0.0093
 4368W        W19837  11.209  16.150   5.335 -0.0745 -0.1708  0.2063
 4369W        W19838   6.794   0.354   0.400 -0.1357 -0.0343  0.2101
 4370W        W19839   8.591   6.927   1.591  0.1165 -0.2348 -0.0354
 4371W        W19840  10.855   5.089   1.299  0.0851  0.1510  0.0845
 4372W        W19841  10.503  18.730  10.494 -0.0604  0.2262 -0.2017
 4373W        W19842  18.300  15.647   0.819 -0.0640  0.2786 -0.1380
 4374W        W19843  12.159   6.525  13.911 -0.1276 -0.3060 -0.0145
 4375W        W19844  11.608   4.275  11.298  0.1439 -0.0061  0.1488
 4376W        W19845  12.176   9.326   4.743 -0.0621 -0.2423 -0.1912
 4377W        W19846   2.501   5.300   2.634 -0.3187  0.1996 -0.1771
 4378W        W19847   7.559   0.388   2.835  0.1236 -0.1722  0.4440
 4379W        W19848  14.736  14.410   1.660  0.0365 -0.1150  0.1641
 4380W        W19849   0.503  10.188  10.656  0.1132 -0.0922  0.3415
 4381W        W19850   9.188  10.652  12.813 -0.0786  0.3774  0.2395
 4382W        W19851  10.214   5.759   4.009  0.0775 -0.0398  0.2606
 4383W        W19852  18.031  10.913  14.650  0.2017  0.1019  0.0734
 4384W        W19853  18.389   8.767   4.796 -0.0345  0.0329 -0.0702
 4385W        W19854   8.220  11.379   2.975 -0.0888 -0.0790 -0.1665
 4386W        W19855   2.799   9.971  13.700 -0.2549  0.2521  0.2899
 4387W        W19856  18.073  18.909   4.851 -0.3697  0.1119 -0.0963
 4388W        W19857   9.443  18.242   4.784 -0.2021  0.1009  0.2549
 4389W        W19858   9.737  16.670  14.915 -0.1608  0.1657  0.0136
 4390W        W19859   7.059  11.005   4.930 -0.1664  0.2614  0.0043
 4391W        W19860   4.628  11.618   4.227 -0.1182 -0.1293  0.1974
 4392W        W19861   6.919   7.676   0.213 -0.4702 -0.2052 -0.2285
 4393W        W19862  14.454   6.185   4.414 -0.1557  0.1251  0.3570
 4394W        W19863   8.514   4.205   2.154 -0.3117 -0.2474 -0.3373
 4395W        W19864   3.983  14.425   5.148  0.4994  0.0375  0.1807
 4396W        W19865  14.180   7.055   3.175 -0.0534  0.0056 -0.1526
 4397W        W19866  14.369   5.345  14.336  0.0215 -0.2489  0.0961
 4398W        W19867   7.196   7.181   3.783 -0.0535  0.3555 -0.0206
 4399W        W19868   3.852   8.839  11.524 -0.0338  0.4732  0.2464
 4400W        W19869  10.423  18.450   1.656  0.0391  0.0010  0.0188
 4401W        W19870   1.466  16.316  11.355  0.2559  0.1134  0.0414
 4402W        W19871   4.264  11.423   2.179 -0.1684  0.2068 -0.0858
 4403W        W19872   5.767   5.010   9.361  0.0725  0.1849  0.2250
 4404W        W19873   7.812  10.652   2.155  0.0449  0.2989 -0.0241
 4405W        W19874  11.733   6.249  11.696  0.0953  0.1302  0.0737
 4406W        W19875   2.441   4.095   0.633 -0.0332 -0.1946 -0.2527
 4407W        W19876  12.289  10.267  11.681 -0.0109 -0.1297 -0.0196
 4408W        W19877   2.204  18.486   3.031 -0.1682 -0.1392  0.2232
 4409W        W19878   9.441  13.287  15.016  0.0415 -0.1401 -0.0582
 4410W        W19879   9.592   4.788  13.576 -0.5442  0.3969 -0.0214
 4411W        W19880   7.585  15.631   4.534 -0.1886 -0.2766 -0.0284
 4412W        W19881  18.745  13.572  12.135  0.1615 -0.2284  0.3640
 4413W        W19882   0.591  13.853   0.103  0.0665  0.1640 -0.2477
 4414W        W19883  18.773   0.191   2.579  0.2242  0.1041  0.2098
 4415W        W19884  12.488  10.015  15.237  0.2131 -0.1864 -0.1729
 4416W        W19885   8.750   7.497   2.726 -0.2262  0.0383  0.1243
 4417W        W19886   5.862   1.500   0.747 -0.2464  0.0210 -0.0637
 4418W        W19887   6.998  10.309   3.706  0.2441  0.1485 -0.1584
 4419W        W19888  12.531  11.671  12.232  0.0366  0.0470 -0.0895
 4420W        W19889  18.502   5.554  12.420 -0.0425  0.0121  0.1694
 4421W        W19890  12.148   6.614   3.063  0.1745 -0.0955 -0.2642
 4422W        W19891   5.011  12.132  10.293 -0.1537  0.1719  0.1231
 4423W        W19892   1.890  10.938   1.475 -0.1034  0.1696 -0.2206
 4424W        W19893   4.913   1.630  11.011  0.2806  0.0576  0.3697
 4425W        W19894  15.106  14.976   4.359 -0.1310 -0.2771 -0.3201
 4426W        W19895   6.724  16.066  14.085  0.2168  0.1171 -0.3032
 4427W        W19896   5.959   0.400  12.799  0.0034  0.2189  0.2662
 4428W        W19897  18.584   2.455   0.537 -0.2096  0.1366 -0.1313
 4429W        W19898   0.154  14.515  14.178 -0.2900  0.0771 -0.3885
 4430W        W19899  17.857  17.017  13.948 -0.0823  0.0143  0.0487
 4431W        W19900   0.182  17.910   4.496 -0.0976  0.0874  0.2735
 4432W        W19901  18.213  11.281   1.996  0.0236 -0.0866 -0.0072
 4433W        W19902  18.723  15.232  10.898  0.4450  0.0664  0.0584
 4434W        W19903   9.789  10.755  15.114  0.2728  0.2380 -0.0732
 4435W        W19904   3.159   7.256  11.382 -0.1137  0.3112 -0.0366
 4436W        W19905   2.908  15.024  11.797  0.0846 -0.1411  0.0362
 4437W        W19906  16.793   9.584   3.803 -0.2676 -0.1317 -0.2071
 4438W        W19907   1.676   8.670  14.134  0.0861  0.2194 -0.0630
 4439W        W19908   8.198  10.277  12.284  0.0646  0.1277 -0.0166
 4440W        W19909  18.398   4.220   2.415  0.0752 -0.0122 -0.2118
 4441W        W19910   3.304   9.535   3.786 -0.2969 -0.1300  0.2281
 4442W        W19911  13.317  11.377  12.694  0.2682 -0.3882  0.1608
 4443W        W19912  12.882  11.280   2.584 -0.4063  0.2936 -0.2246
 4444W        W19913   3.745  17.069   4.915 -0.0228  0.0774 -0.3088
 4445W        W19914   3.169  13.593   4.991  0.2166  0.1519  0.3087
 4446W        W19915  11.403  17.287  11.827  0.2689  0.1517  0.3230
 4447W        W19916  18.459  11.888  11.083 -0.0755 -0.1093  0.1739
 4448W        W19917   1.638   1.405  14.341 -0.1048  0.0466  0.2563
 4449W        W19918   2.699  16.562   9.934 -0.2446 -0.0623  0.0320
 4450W        W19919   6.683  10.316   3.324  0.1593 -0.2305 -0.0202
 4451W        W19920  13.462  11.303   1.306  0.1784  0.1908 -0.1348
 4452W        W19921  10.842  12.979  15.469  0.0681  0.1098 -0.0229
 4453W        W19922   6.472   4.249   1.439 -0.2658 -0.2993 -0.4187
 4454W        W19923   8.066   8.098  10.839 -0.0457  0.0539 -0.1475
 4455W        W19924  18.205   2.352   0.075  0.2978  0.1368 -0.0356
 4456W        W19925  14.556   1.953   4.816 -0.2063 -0.0901 -0.2690
 4457W        W19926   4.248   2.544   3.212  0.2161  0.0739  0.0704
 4458W        W19927   0.639   4.014   2.568  0.1678 -0.0312  0.0959
 4459W        W19928   9.506  15.189   1.108 -0.2720  0.0504  0.0620
 4460W        W19929   2.005   8.718  12.732 -0.1729  0.3838 -0.1271
 4461W        W19930   9.416   6.808   2.240  0.2952 -0.0864  0.0180
 4462W        W19931   2.092  18.806   1.042  0.0115  0.0562 -0.1682
 4463W        W19932  18.322  13.213   2.669  0.1355 -0.3251  0.1034
 4464W        W19933   2.264  16.589  12.333  0.2311  0.0465  0.0922
 4465W        W19934   7.760  17.460   0.347  0.0696 -0.0102  0.2185
 4466W        W19935   0.676  10.380  13.853  0.1610 -0.0382 -0.1314
 4467W        W19936   4.760  11.481   5.046  0.1319 -0.4035 -0.1486
 4468W        W19937  12.395  14.880   0.130 -0.3131 -0.1565  0.1679
 4469W        W19938   3.197  15.793  10.791 -0.2702  0.0776 -0.1998
 4470W        W19939  11.089   6.954   1.542  0.2442 -0.0228 -0.2719
 4471W        W19940   3.659  14.078   5.247  0.2254 -0.2742 -0.1686
 4472W        W19941   8.597   6.517   1.936  0.1012  0.2248 -0.0558
 4473W        W19942  11.023  12.941  10.574 -0.0364  0.2664 -0.0155
 4474W        W19943   8.704  13.009   2.442 -0.3870 -0.1398  0.0341
 4475W        W19944   7.380   9.000   4.713  0.0163  0.2722  0.2006
 4476W        W19945   4.043  17.297   0.189  0.2757 -0.0311  0.3071
 4477W        W19946   4.576   1.999   4.811  0.0247  0.1028  0.0067
 4478W        W19947   0.278  13.032   3.827  0.3289  0.0929  0.4021
 4479W        W19948  15.185   7.898  11.387 -0.0386  0.1475 -0.1746
 4480W        W19949  17.723  17.669  11.772 -0.2770  0.2466  0.1747
 4481W        W19950   4.608   6.121   4.684 -0.0424 -0.1187  0.1554
 4482W        W19951   0.936   4.909  12.046  0.0251  0.0117  0.0610
 4483W        W19952   1.978   8.427   1.431  0.3597 -0.1650 -0.0936
 4484W        W19953   0.822  14.227   9.495 -0.0938  0.0798 -0.2115
 4485W        W19954  15.832  10.868  14.764  0.1914  0.0864 -0.1611
 4486W        W19955  16.620  14.507   0.531 -0.1323 -0.0367  0.0164
 4487W        W19956   2.897   9.662  11.090 -0.2551 -0.0262  0.0683
 4488W        W19957  16.402   8.652  13.780  0.2734  0.2781  0.2914
 4489W        W19958   2.987   5.919  10.784  0.2129 -0.2247  0.5089
 4490W        W19959   3.772  10.001  12.170 -0.2912  0.6703 -0.4283
 4491W        W19960   4.727   4.794   0.716  0.0586 -0.0432 -0.0371
 4492W        W19961   1.742   4.055  11.682 -0.0126  0.0046 -0.0380
 4493W        W19962   3.854  16.767  12.873 -0.1971 -0.0533  0.1988
 4494W        W19963  16.293   3.502  12.855 -0.1720 -0.1357  0.0880
 4495W        W19964   4.401  10.982   1.872  0.0904 -0.2124 -0.2610
 4496W        W19965   0.348  18.040  13.280  0.0072  0.1021 -0.2846
 4497W        W19966  17.288   6.058  11.870 -0.0056  0.3362  0.1107
 4498W        W19967   6.065  17.168   1.863 -0.0308  0.2601 -0.0635
 4499W        W19968  16.528   3.770   0.411  0.1935  0.0950 -0.2739
 4500W        W19969  12.074  16.685   4.560 -0.1430  0.3005  0.1839
 4501W        W19970  11.557   7.202   4.728  0.1373 -0.0065 -0.1264
 4502W        W19971  16.800  15.909  11.211 -0.1668  0.3403  0.6238
 4503W        W19972  13.521  13.421  13.498 -0.2994  0.0884  0.0688
 4504W        W19973   8.772  16.618   6.622 -0.0789  0.0944 -0.0942
 4505W        W19974   8.268  13.187   3.237 -0.3461 -0.1948 -0.2401
 4506W        W19975  15.292   4.954  15.447  0.5064  0.1302 -0.0826
 4507W        W19976   1.625   4.686  12.385  0.1362  0.0708 -0.1646
 4508W        W19977   4.802   4.781  11.622  0.2115 -0.1506 -0.0752
 4509W        W19978   5.645  15.689   1.684  0.0644 -0.0013 -0.0585
 4510W        W19979   6.225  18.124  14.008 -0.3311  0.1049 -0.0449
 4511W        W19980  11.408  17.758   5.322 -0.3124  0.1960 -0.0091
 4512W        W19981   0.723  14.755   1.781  0.1793  0.1316 -0.3542
 4513W        W19982  18.342   6.576   5.493  0.0577 -0.1683 -0.1648
 4514W        W19983   9.584  14.477  15.239  0.1000 -0.1285 -0.0013
 4515W        W19984   0.544   7.532   1.088 -0.1076  0.0014 -0.1616
 4516W        W19985  15.397   8.805  12.749  0.1439 -0.3369  0.1244
 4517W        W19986  10.315  12.731  13.400  0.3619 -0.1108  0.0220
 4518W        W19987   1.913  14.590   5.266  0.3513 -0.1682 -0.0690
 4519W        W19988   2.062   6.222  14.288  0.0320  0.1496 -0.2117
 4520W        W19989  10.846   3.863   4.300  0.0867  0.5199  0.0094
 4521W        W19990   5.577   3.778   5.216  0.0665 -0.0980  0.2606
 4522W        W19991   0.782  11.424   2.109  0.2086  0.1860 -0.2031
 4523W        W19992  10.383   7.143   2.250 -0.3425 -0.1876 -0.1095
 4524W        W19993  16.882   4.335   1.957  0.4360 -0.1407 -0.1699
 4525W        W19994  10.431   0.584  13.508  0.0776 -0.0863 -0.2584
 4526W        W19995  10.551   4.233  12.688 -0.0651  0.0175 -0.1802
 4527W        W19996  15.990  10.592   2.358 -0.1513  0.0302  0.0154
 4528W        W19997   9.045  15.171   1.346 -0.1317  0.1042 -0.0936
 4529W        W19998   6.031   8.614   1.014 -0.1538 -0.1040 -0.2225
 4530W        W19999  14.412   4.393  11.375 -0.0715 -0.3399  0.1917
 4531W        W20000   6.998  17.628  13.644 -0.1977  0.0315  0.2359
 4532W        W20001  10.086  13.096   3.849 -0.0502  0.1238 -0.0130
 4533W        W20002   3.523  11.890   4.928  0.1407 -0.1100  0.3461
 4534W        W20003  13.580   5.933   3.638  0.1748 -0.4540 -0.0418
 4535W        W20004   6.423  15.743   2.129  0.2345  0.1304 -0.0506
 4536W        W20005  13.279  16.779   0.022  0.2228 -0.1616 -0.0353
 4537W        W20006   4.773   5.786  11.531 -0.0294  0.0710  0.0036
 4538W        W20007   0.853  12.848  13.755 -0.2220 -0.2495  0.1096
 4539W        W20008   5.645  14.852  12.798  0.0312  0.0560 -0.2043
 4540W        W20009   4.155  17.735   2.783 -0.1444  0.2948  0.5002
 4541W        W20010   2.026   1.714   1.527 -0.0359 -0.1449 -0.1701
 4542W        W20011  10.775   1.875   0.260 -0.1168  0.0219  0.1375
 4543W        W20012   5.026   6.281  15.144  0.2593  0.2790  0.3334
 4544W        W20013  18.407  11.720   2.658  0.2567 -0.1410 -0.0279
 4545W        W20014  16.013   3.300   4.677 -0.0639  0.1969 -0.0888
 4546W        W20015   8.531   3.983   0.444 -0.0594  0.1560 -0.0028
 4547W        W20016   5.330  11.707   0.534 -0.1737  0.3037 -0.0821
 4548W        W20017   6.943  14.353   3.452 -0.0072 -0.0570 -0.0817
 4549W        W20018   5.594   8.513  14.150  0.3263 -0.0355 -0.0044
 4550W        W20019   7.731   2.844   4.970 -0.2408  0.0876 -0.0170
 4551W        W20020  15.866  12.666   3.000  0.0749 -0.0352  0.2249
 4552W        W20021  11.468  13.861  10.318 -0.1264  0.3464 -0.1705
 4553W        W20022   4.732  15.086   0.185 -0.3048 -0.2594 -0.0216
 4554W        W20023  12.217  16.246  15.298  0.0440  0.0162  0.1500
 4555W        W20024  12.277   9.563  15.449  0.1752  0.4447 -0.3104
 4556W        W20025  17.559   8.295  11.421  0.0426 -0.0853 -0.0498
 4557W        W20026   5.559   4.700  11.739  0.4326  0.2746 -0.0943
 4558W        W20027   2.301   6.336  15.258  0.2255  0.1695 -0.0391
 4559W        W20028  15.301  17.316  11.436  0.1366  0.0500  0.3651
 4560W        W20029   8.796  14.412  14.917 -0.0361 -0.0926 -0.0841
 4561W        W20030   8.166  14.787   4.230 -0.2164 -0.3193 -0.1249
 4562W        W20031   3.844   1.324   5.421  0.2662 -0.1906  0.0216
 4563W        W20032  18.749   2.607  13.197 -0.1493  0.0108 -0.3059
 4564W        W20033  15.484   3.165   3.959 -0.0406 -0.1238 -0.1926
 4565W        W20034   6.691   5.927   0.027  0.0119 -0.0640 -0.3219
 4566W        W20035   4.497   3.667  13.834  0.0400  0.3051 -0.3250
 4567W        W20036   1.765   2.132   1.858  0.0132  0.1559  0.1346
 4568W        W20037   6.938  15.707  11.813  0.2722 -0.2588  0.0121
 4569W        W20038  10.357  17.381   0.297 -0.0938 -0.1254 -0.2501
 4570W        W20039   4.554   2.859   4.888  0.0996  0.0355 -0.0985
 4571W        W20040   2.031   3.400  12.990 -0.0422 -0.2016  0.2433
 4572W        W20041   6.096   5.510   1.602 -0.0423 -0.0937 -0.0014
 4573W        W20042   8.723   6.222   3.520  0.2757 -0.0599  0.1788
 4574W        W20043   3.021  16.607  13.971 -0.2518 -0.0589  0.2716
 4575W        W20044   8.211   3.323  13.263  0.2273 -0.0878 -0.0074
 4576W        W20045  16.106   7.727   0.729  0.0363 -0.1383  0.0269
 4577W        W20046   0.914   0.481   2.515 -0.0611  0.1345  0.3112
 4578W        W20047   7.363   9.955   4.899  0.1194 -0.2669  0.0509
 4579W        W20048   8.102   9.374   3.504  0.3989  0.1896 -0.0231
 4580W        W20049  11.116   8.772   1.332  0.2632 -0.0335 -0.1911
 4581W        W20050  16.740   6.668   4.256 -0.0859 -0.2211 -0.3722
 4582W        W20051  12.974  12.370   5.344  0.1219 -0.1353  0.1410
 4583W        W20052  13.421   5.383  12.719  0.0442  0.0372 -0.2666
 4584W        W20053   7.438   4.276  14.695 -0.0103 -0.2654  0.3924
 4585W        W20054  17.021   0.323  14.726 -0.3228 -0.2015  0.0639
 4586W        W20055  10.883   1.296  14.918  0.1058  0.5050 -0.1856
 4587W        W20056  14.200  11.276  15.402 -0.3628 -0.2467  0.1597
 4588W        W20057   3.567  12.256  12.465 -0.0087  0.1006 -0.4218
 4589W        W20058   0.122   7.903   0.239  0.0605 -0.0376  0.0121
 4590W        W20059  14.514   6.149   1.033 -0.0621  0.0991  0.1466
 4591W        W20060   6.624  13.480   1.896  0.0800 -0.2910 -0.2116
 4592W        W20061   3.662  14.297  12.792 -0.0920  0.0064 -0.4626
 4593W        W20062   9.495   4.125  13.942  0.1097  0.0473  0.0972
 4594W        W20063  13.711  18.603   9.582 -0.0574 -0.1598  0.1707
 4595W        W20064  11.846   1.263  13.819 -0.1200  0.0794 -0.1628
 4596W        W20065  12.197  11.310  11.333 -0.3432  0.2960  0.1128
 4597W        W20066   8.225   7.785   5.119  0.1549 -0.4039  0.0230
 4598W        W20067   1.912   9.586  15.181  0.0004 -0.1750 -0.0999
 4599W        W20068   9.725  12.280   3.664  0.0390 -0.2193 -0.0464
 4600W        W20069   9.342  10.271  14.378 -0.2125 -0.2976  0.1592
 4601W        W20070  14.273  18.807  11.703 -0.1315 -0.3876  0.1465
 4602W        W20071   3.383   4.535  11.846  0.2068  0.0796  0.1267
 4603W        W20072  12.559   9.711   2.263  0.0185  0.4620 -0.3520
 4604W        W20073   0.675   3.076  13.155 -0.0353  0.0375  0.3181
 4605W        W20074   1.738  16.884   3.970  0.2079 -0.1394 -0.2679
 4606W        W20075  10.839  14.675  13.644  0.1536  0.1031  0.1229
 4607W        W20076   3.487   3.395   0.740 -0.0978  0.1650  0.3845
 4608W        W20077   8.719  14.618   4.259 -0.1566  0.1320  0.0356
 4609W        W20078   7.296   5.438  13.869  0.0896 -0.0907 -0.0652
 4610W        W20079   5.567   5.478  12.364 -0.4439  0.1160 -0.0562
 4611W        W20080   1.511   5.098  12.115  0.2949 -0.5032  0.0305
 4612W        W20081   1.515  12.719  10.393 -0.4637  0.0831  0.0685
 4613W        W20082  11.303  16.648  11.435 -0.3506 -0.2639 -0.1095
 4614W        W20083  13.688  16.027  10.725 -0.0064 -0.1601 -0.1658
 4615W        W20084   0.570   9.416   2.144 -0.1360  0.0561 -0.2042
 4616W        W20085  11.937   7.567   0.824 -0.1937  0.0844 -0.2572
 4617W        W20086  18.294  12.885   1.349 -0.1465 -0.4663 -0.0326
 4618W        W20087  13.807   8.668  11.463  0.0888  0.1308 -0.0392
 4619W        W20088  16.397  16.787   3.771 -0.0029 -0.0216 -0.2747
 4620W        W20089   1.914   4.429   3.198  0.0373 -0.2696 -0.1992
 4621W        W20090  12.178  16.452  10.446  0.2576 -0.0805 -0.1775
 4622W        W20091   0.065   6.960   3.970 -0.2615  0.2013 -0.0401
 4623W        W20092   0.052  12.235  14.684  0.0779 -0.0358 -0.1601
 4624W        W20093   6.960   6.113   0.764 -0.0008  0.1321  0.0825
 4625W        W20094   1.240   7.794   3.793  0.3829  0.0087  0.4570
 4626W        W20095   2.944   7.601   1.851 -0.2496  0.0383 -0.0458
 4627W        W20096  18.287  12.650   0.876 -0.1261  0.2034 -0.3430
 4628W        W20097  18.009  12.756   2.672 -0.0627  0.1616  0.0259
 4629W        W20098  14.099  11.903   1.178 -0.1023 -0.1850  0.2665
 4630W        W20099   6.789  16.172   2.387  0.0393  0.2248  0.4873
 4631W        W20100   3.113   1.047  12.710 -0.0670 -0.1779  0.0324
 4632W        W20101   2.487  17.271  13.351 -0.1020  0.1255  0.1045
 4633W        W20102  13.862   8.241   2.245 -0.1523  0.0109 -0.2866
 4634W        W20103   8.432   3.240   1.119 -0.5248  0.3284 -0.2296
 4635W        W20104   2.477  18.902   2.826 -0.2648  0.0911 -0.0979
 4636W        W20105  11.395   9.671   1.489  0.1025 -0.1361  0.1592
 4637W        W20106   5.600   7.053   5.565 -0.2811 -0.0310  0.1453
 4638W        W20107   8.605  13.284  10.776  0.1186 -0.2547 -0.4756
 4639W        W20108  17.470   2.203  12.676 -0.2472  0.2592  0.0408
 4640W        W20109   6.944  10.162   2.397  0.0177 -0.0822 -0.0130
 4641W        W20110  13.625   7.795   1.858 -0.1617 -0.0708 -0.1081
 4642W        W20111   3.095  15.061   3.791 -0.1827  0.0859  0.1307
 4643W        W20112   2.661  14.243   4.771  0.2193  0.0889  0.2451
 4644W        W20113   6.573   7.314  14.530  0.1956 -0.1137 -0.0954
 4645W        W20114  11.799  13.108   3.822 -0.0458 -0.3454  0.0877
 4646W        W20115   8.654   5.630   2.094  0.0195  0.1067 -0.2378
 4647W        W20116   3.125   7.797   4.614 -0.0681 -0.0504  0.1112
 4648W        W20117   3.989  16.815   4.601  0.0527 -0.1478 -0.2840
 4649W        W20118   2.512   4.737  15.235  0.2442 -0.0185  0.0427
 4650W        W20119   5.602  14.069   2.570  0.0156 -0.1205 -0.1086
 4651W        W20120  18.734  10.417   1.337  0.0441  0.0243 -0.1369
 4652W        W20121   8.429   1.732  10.384  0.2111 -0.0920 -0.1046
 4653W        W20122  16.957  10.366   0.531  0.0073 -0.1464  0.1985
 4654W        W20123  18.314   7.136  11.755 -0.0167 -0.0194 -0.2631
 4655W        W20124  12.994   8.076  13.677  0.0874  0.1362  0.0444
 4656W        W20125  11.576  13.439  13.537  0.1470  0.1707  0.0099
 4657W        W20126   8.657  11.970   2.736  0.0030 -0.0602  0.2662
 4658W        W20127   8.640   2.579  11.568  0.2342 -0.2483  0.0527
 4659W        W20128   6.353  11.449  10.686 -0.1189  0.0296  0.1703
 4660W        W20129   5.383  17.699  10.492  0.1367 -0.0097  0.3188
 4661W        W20130  13.468   9.118  11.681  0.0983  0.0919  0.2243
 4662W        W20131  10.307   3.107  10.917  0.0707 -0.2774  0.0680
 4663W        W20132  17.949  11.268  10.574  0.2563 -0.1971  0.1478
 4664W        W20133  12.128   8.323  14.003 -0.1436 -0.1968 -0.1054
 4665W        W20134   9.789   1.193   4.663 -0.0210  0.0977  0.0726
 4666W        W20135   3.489  18.244  10.687  0.1779 -0.2041 -0.1189
 4667W        W20136   0.558  11.363   0.160  0.0982 -0.1910 -0.1650
 4668W        W20137   9.747  11.848  12.502  0.0215  0.0547 -0.0522
 4669W        W20138  15.149  15.652  15.270 -0.2621 -0.2159  0.1943
 4670W        W20139  14.864   4.025  13.678 -0.0483  0.2314  0.0111
 4671W        W20140  12.840  16.343   5.291  0.0855 -0.1263  0.1638
 4672W        W20141  11.085   4.630  13.494 -0.0202 -0.0349 -0.3356
 4673W        W20142  16.782   0.138   0.543  0.2074 -0.1642 -0.1643
 4674W        W20143   7.150   1.734   2.301 -0.1366 -0.1857  0.1988
 4675W        W20144   6.077  18.250  14.493  0.1630 -0.0530 -0.1295
 4676W        W20145  17.293   1.559   0.286  0.5813  0.0839 -0.1452
 4677W        W20146   0.595  10.616  11.479 -0.1303  0.0945  0.1329
 4678W        W20147  12.345  10.669  12.183  0.0753  0.2197 -0.0061
 4679W        W20148  13.739  18.882   3.403 -0.1302 -0.0286  0.2191
 4680W        W20149   8.016   4.056   2.741  0.0376 -0.1062 -0.2778
 4681W        W20150   9.360  11.326   3.737 -0.1575  0.0521  0.0609
 4682W        W20151  15.112  17.820   3.312  0.1228 -0.1647  0.0644
 4683W        W20152   2.410  17.832  10.822  0.1632  0.0644  0.1839
 4684W        W20153   9.832   4.076   2.118  0.2564 -0.2008  0.1887
 4685W        W20154   1.955  12.486   0.679  0.1060 -0.2529 -0.2440
 4686W        W20155   4.447   1.023  12.065 -0.2291  0.2344  0.2384
 4687W        W20156  17.153  17.372  10.486  0.1098  0.0266 -0.0063
 4688W        W20157   6.192   1.296  12.397 -0.1994 -0.2293  0.1402
 4689W        W20158   2.890  11.155   4.732  0.1668  0.0717  0.0629
 4690W        W20159   4.097  13.613  15.014  0.0812 -0.2453  0.0780
 4691W        W20160   5.754  13.340   2.076 -0.0430  0.0365 -0.1299
 4692W        W20161  15.758   4.469  11.416 -0.1434  0.2282 -0.3187
 4693W        W20162   1.066   4.943   0.738 -0.0251 -0.1678 -0.1396
 4694W        W20163   5.302  15.616  15.349 -0.0026 -0.0358  0.1303
 4695W        W20164  15.577  14.484  14.586  0.0124  0.1607  0.0418
 4696W        W20165  18.343   1.648   5.176  0.1388  0.2993  0.2026
 4697W        W20166  11.191   7.199   0.717 -0.1528  0.2172  0.0273
 4698W        W20167  17.434  16.809  15.163 -0.3050  0.3002  0.0331
 4699W        W20168  16.947  17.199  13.199 -0.0603  0.0616 -0.1763
 4700W        W20169   7.041  17.090   2.320 -0.2076 -0.2297 -0.1126
 4701W        W20170   8.296  11.984   0.600  0.1788 -0.1495 -0.0067
 4702W        W20171   9.908   8.261   9.424 -0.3156 -0.0522 -0.5124
 4703W        W20172  14.902   8.308   4.726  0.0886 -0.0950 -0.0722
 4704W        W20173  18.266  18.530  10.696  0.0036  0.2233  0.0004
 4705W        W20174   1.147  13.238  14.799  0.0952 -0.0288 -0.2369
 4706W        W20175   6.628  15.702   1.402  0.2501 -0.0853  0.3071
 4707W        W20176   4.181  18.922  11.321 -0.5022 -0.0632  0.0373
 4708W        W20177   3.614  12.124   3.517  0.0435 -0.0101  0.0077
 4709W        W20178  15.352   9.669   2.752 -0.0331  0.1256 -0.1302
 4710W        W20179  15.724   2.793   0.399  0.0506 -0.1274  0.2131
 4711W        W20180  11.978   7.092  15.417 -0.1555  0.0602  0.1956
 4712W        W20181  13.037  15.902   1.813 -0.1782  0.1205  0.5624
 4713W        W20182   1.517   6.246   5.462  0.2991 -0.0845 -0.2301
 4714W        W20183   2.739  14.954  10.064 -0.2624  0.2579  0.2545
 4715W        W20184   9.362  17.988   3.796 -0.0762  0.0774 -0.4779
 4716W        W20185   0.270  13.778   4.198  0.2196 -0.2161  0.0512
 4717W        W20186  17.069  17.333   0.710 -0.0455  0.0423 -0.1894
 4718W        W20187  16.704   5.826   3.190  0.0968  0.0499  0.1412
 4719W        W20188   2.691  18.210  12.842  0.1674 -0.1151  0.0414
 4720W        W20189  15.200  15.373   3.934  0.1538  0.2836  0.2267
 4721W        W20190   2.196   6.916   2.699 -0.3290 -0.2179 -0.0366
 4722W        W20191   9.265  18.120   1.343  0.0238  0.0770 -0.2107
 4723W        W20192   2.830  13.976   0.006 -0.0662 -0.1628 -0.1341
 4724W        W20193  10.766   3.206   1.907 -0.1231 -0.1780  0.4017
 4725W        W20194  13.886   3.721   2.737 -0.1136  0.1206 -0.0568
 4726W        W20195   4.418   2.538  11.133 -0.3353 -0.3317  0.0657
 4727W        W20196  14.122   6.221  13.947 -0.2024 -0.1569 -0.0579
 4728W        W20197   1.165   7.226  13.865  0.2585  0.0879  0.0261
 4729W        W20198   7.565   3.889  14.039  0.0791 -0.3069  0.2560
 4730W        W20199  16.973  10.885  10.702  0.2069  0.4183  0.0035
 4731W        W20200   6.487  12.336  15.103 -0.0670  0.2639  0.0660
 4732W        W20201   5.574   3.496   4.806 -0.1367 -0.3585  0.0436
 4733W        W20202  16.492  12.410   0.862 -0.0095 -0.0922 -0.0778
 4734W        W20203   1.832   6.559   4.764 -0.0606  0.0688 -0.0317
 4735W        W20204  10.827  16.768   6.144 -0.1428 -0.3131  0.1915
 4736W        W20205  15.329   8.127   3.690  0.0920  0.2171  0.1175
 4737W        W20206   2.969  15.251   4.561  0.1443 -0.0238 -0.0037
 4738W        W20207   1.099  15.125   0.054 -0.1373 -0.0133 -0.1604
 4739W        W20208  15.248   9.127   1.834 -0.2384 -0.1644  0.2631
 4740W        W20209  17.380  12.677   1.420 -0.1764  0.0825 -0.0229
 4741W        W20210  17.177  18.381   1.170  0.0815 -0.0526  0.0623
 4742W        W20211   5.668   1.959  14.747  0.1424  0.3597  0.0492
 4743W        W20212   9.594  18.856   4.590 -0.1577 -0.3029  0.0228
 4744W        W20213   1.493  15.630  14.840 -0.3176 -0.1765 -0.1969
 4745W        W20214  15.473  10.018  12.065 -0.0627  0.2334  0.0841
 4746W        W20215  11.782   7.790  13.185 -0.0749  0.0231  0.1426
 4747W        W20216   9.237   7.328  15.201  0.0405 -0.1051  0.1056
 4748W        W20217  13.935   4.980   2.305 -0.1648 -0.1078 -0.4414
 4749W        W20218   1.071   0.761  11.467  0.2317  0.0663  0.1505
 4750W        W20219   6.320  11.065   4.155  0.2838 -0.5134  0.3844
 4751W        W20220  11.277   2.601   5.221 -0.1439 -0.3331 -0.4079
 4752W        W20221   5.473  18.220   2.688  0.0901 -0.0643  0.0256
 4753W        W20222   0.885   6.671   0.675 -0.0731 -0.0949  0.1404
 4754W        W20223  12.590  12.478  10.554 -0.0174 -0.0228  0.0593
 4755W        W20224   0.196  16.576  10.816 -0.2766 -0.1803 -0.3228
 4756W        W20225  10.187   2.735   9.442 -0.2644  0.1589 -0.3465
 4757W        W20226  11.411   6.851  14.805 -0.0015 -0.1494 -0.0467
 4758W        W20227  15.670   4.131  10.676  0.2157 -0.0722  0.0014
 4759W        W20228   3.787   3.065   4.907  0.0434 -0.3044 -0.1793
 4760W        W20229   9.558   7.368  10.495 -0.2014 -0.0787 -0.0446
 4761W        W20230   0.487  12.016  14.566 -0.2661 -0.1366  0.0516
 4762W        W20231   3.820  13.434  14.695  0.1362 -0.1911  0.2733
 4763W        W20232  12.107   4.487  11.278  0.0900  0.0275  0.4168
 4764W        W20233  11.812  17.260  14.660  0.1374  0.0756  0.1972
 4765W        W20234  17.725   9.890  13.775 -0.1893  0.1568  0.2999
 4766W        W20235  18.797   4.305  11.283  0.0043  0.0283  0.0319
 4767W        W20236  12.266  12.693  12.483 -0.0238 -0.0654 -0.0204
 4768W        W20237  14.359  18.215   3.767  0.4995  0.0043 -0.0348
 4769W        W20238  10.451  10.613  12.924  0.1580 -0.1047  0.0083
 4770W        W20239  15.083   5.902  12.399  0.2336  0.2278 -0.0560
 4771W        W20240  16.447  10.208  15.155 -0.1728  0.0624  0.1843
 4772W        W20241  16.782   5.513   3.584 -0.2274  0.0983 -0.0822
 4773W        W20242   7.994  11.680  11.687  0.0361 -0.1611  0.3328
 4774W        W20243  13.697   1.645   3.132  0.2107 -0.1043 -0.0169
 4775W        W20244  10.751  16.446  12.240  0.3051 -0.3626  0.1856
 4776W        W20245   7.619  10.751   6.049  0.0962  0.1136 -0.0524
 4777W        W20246  16.485   5.869   4.737 -0.2300  0.0055 -0.0677
 4778W        W20247   8.254  12.726   2.329  0.1181  0.0533  0.0858
 4779W        W20248   8.895   8.649   3.524  0.2203  0.1053  0.2773
 4780W        W20249   6.701  17.296  11.279  0.1459  0.2997 -0.0420
 4781W        W20250   5.925   1.637  11.672 -0.3002 -0.2018  0.4218
 4782W        W20251   5.469   5.058  14.778  0.0967 -0.2609  0.2762
 4783W        W20252   3.920   8.986   3.521  0.0002 -0.1578  0.2240
 4784W        W20253  16.867   9.745  12.924  0.1804  0.0550 -0.3206
 4785W        W20254   9.722  15.354  11.094  0.0599  0.1131 -0.0875
 4786W        W20255   7.253   0.587   0.285  0.1986  0.1020  0.3516
 4787W        W20256   0.697   1.813  14.976  0.0778 -0.3257 -0.2165
 4788W        W20257   5.173   9.031  10.389 -0.1815 -0.2559 -0.0208
 4789W        W20258   0.803  14.300   3.248 -0.0418 -0.0755 -0.3721
 4790W        W20259   9.464   5.803   1.582  0.0938 -0.3088 -0.1913
 4791W        W20260   0.126   1.597  12.255  0.2139 -0.0606  0.1300
 4792W        W20261   8.134  14.021   3.654 -0.1724 -0.0812 -0.0612
 4793W        W20262  13.870   7.356   1.782 -0.0412  0.1001  0.0419
 4794W        W20263   9.309   8.420   0.090 -0.0917  0.1442  0.3336
 4795W        W20264  10.284   6.070   4.355  0.1022 -0.0945  0.0893
 4796W        W20265   4.923   5.762  15.126 -0.0266  0.1247  0.0762
 4797W        W20266  15.374   3.052   5.419 -0.0421  0.1989  0.2136
 4798W        W20267  16.901   7.184  14.502  0.0307  0.1254  0.0047
 4799W        W20268   7.907   1.629  14.540  0.0114 -0.2933 -0.2730
 4800W        W20269  16.484  17.216   4.748 -0.0694  0.4823 -0.1832
 4801W        W20270   8.435   4.720  14.903 -0.2544  0.4831 -0.1763
 4802W        W20271   0.776  11.235  13.835 -0.4082 -0.2203 -0.2118
 4803W        W20272  14.349   4.346  12.145  0.2165 -0.2460  0.1870
 4804W        W20273   8.984  10.856  10.916 -0.0195 -0.0396 -0.3600
 4805W        W20274   3.860   8.490   4.198  0.2304 -0.2210 -0.0556
 4806W        W20275   7.323  13.000  11.298  0.1691  0.0057  0.1467
 4807W        W20276  17.959   4.787  11.388  0.0511 -0.3362  0.0607
 4808W        W20277   5.538  15.281   3.875 -0.2770 -0.1824 -0.3265
 4809W        W20278   9.845   0.548   0.816  0.1134  0.0773  0.0670
 4810W        W20279   1.388  11.075   0.746  0.0655  0.2577 -0.0532
 4811W        W20280   2.638   5.255  10.683 -0.0003  0.0050  0.0953
 4812W        W20281  11.832  16.003   3.591 -0.1605  0.3636  0.2136
 4813W        W20282   7.374   3.521   4.884  0.0836 -0.1326 -0.2621
 4814W        W20283  11.725   6.540   4.935  0.0279 -0.3335  0.1366
 4815W        W20284   1.584  15.034  14.751 -0.1189  0.0618  0.1175
 4816W        W20285  17.212  16.220   3.372 -0.0173 -0.0659 -0.0682
 4817W        W20286   5.621   3.410   0.910 -0.0587  0.1058  0.3815
 4818W        W20287  11.328  13.005  12.652 -0.0789 -0.1656  0.2618
 4819W        W20288  17.926  16.145  12.056 -0.0921 -0.4032 -0.0494
 4820W        W20289   3.127  14.959   0.393  0.4196  0.3719  0.0428
 4821W        W20290  10.856  14.536   5.408 -0.0439 -0.1560  0.0741
 4822W        W20291  15.539   3.728   1.926  0.4215  0.2068 -0.2662
 4823W        W20292  16.574  10.069   4.020 -0.2434 -0.2139  0.0338
 4824W        W20293   3.763   7.715   1.944 -0.1102 -0.1124  0.1432
 4825W        W20294   3.894   3.663   1.346 -0.2075 -0.0100  0.0740
 4826W        W20295  18.466  15.390  11.265 -0.2227 -0.1851 -0.0034
 4827W        W20296   0.312  13.802   2.342  0.1087  0.0969 -0.0445
 4828W        W20297  17.481   6.755   2.194 -0.0000 -0.1498  0.3039
 4829W        W20298   8.536  13.684   1.620 -0.2239  0.0281 -0.1527
 4830W        W20299   7.246  13.763  12.443  0.2058 -0.3087 -0.2763
 4831W        W20300  10.862   2.039   1.728 -0.5358 -0.0960 -0.0325
 4832W        W20301  12.293  15.323  13.095 -0.2252  0.0089  0.0097
 4833W        W20302  13.960  16.548   1.359  0.0232 -0.2295  0.0731
 4834W        W20303  12.486   8.183  12.773 -0.1462 -0.1018 -0.0793
 4835W        W20304  17.576  16.617   5.233 -0.1262  0.1017  0.0331
 4836W        W20305   7.512   7.744  12.071 -0.0909 -0.2831 -0.0308
 4837W        W20306   9.513  14.228  11.599  0.0943 -0.4199  0.1591
 4838W        W20307   5.508  14.950  14.679 -0.0476  0.0456  0.0392
 4839W        W20308   2.117  14.192   1.040  0.0481  0.1125 -0.1304
 4840W        W20309  18.757   0.586   3.018 -0.1570  0.0097  0.2920
 4841W        W20310   4.453   1.933   2.438  0.1914 -0.0151 -0.3594
 4842W        W20311   3.425   2.952   2.031  0.2273  0.2010 -0.1361
 4843W        W20312  16.536   0.672  11.645  0.2614 -0.6233  0.0515
 4844W        W20313   4.995   5.241  14.970  0.0922  0.0382 -0.0490
 4845W        W20314   6.535  18.804   4.446  0.2157  0.0622 -0.0332
 4846W        W20315   6.971  15.330  10.710  0.1075 -0.0991  0.0674
 4847W        W20316  15.175  16.654   5.699  0.1156 -0.1535 -0.3209
 4848W        W20317   6.073   9.604   2.395  0.2126  0.1190 -0.2560
 4849W        W20318   2.876  15.570  14.243  0.0067 -0.0988  0.4789
 4850W        W20319   3.347   6.826   9.494  0.2838 -0.0372  0.0287
 4851W        W20320  14.320  12.206   0.081 -0.2894  0.3767  0.4875
 4852W        W20321   1.641   9.398   3.402 -0.0633 -0.2615  0.2727
 4853W        W20322   7.636  16.952  11.110  0.1654 -0.1973 -0.0622
 4854W        W20323  10.345   0.402  15.006  0.1499  0.0942  0.3605
 4855W        W20324  18.081   9.131   4.958 -0.1518 -0.2839  0.2747
 4856W        W20325   3.255  17.756  11.824 -0.1968 -0.2181  0.0403
 4857W        W20326  17.750   5.568   2.345  0.1272  0.1741 -0.3002
 4858W        W20327  12.228   1.866   3.470  0.6940  0.0656  0.3703
 4859W        W20328  13.280   4.076   0.147  0.1512 -0.2700  0.1643
 4860W        W20329  10.856   3.714  14.420  0.0193  0.0712 -0.0464
 4861W        W20330   1.381  12.512  10.859 -0.2511 -0.0768 -0.1399
 4862W        W20331   8.015  11.589  15.381  0.0214  0.0833 -0.0029
 4863W        W20332   2.700  17.994   5.592  0.2538 -0.0868 -0.3313
 4864W        W20333   4.748   5.902   3.797 -0.1244 -0.1962 -0.1099
 4865W        W20334   4.162  12.784  12.123  0.1789  0.0187  0.0711
 4866W        W20335  17.529   3.580  14.579 -0.1754 -0.0047 -0.1535
 4867W        W20336   2.477   7.774   1.000  0.0941 -0.1620 -0.2075
 4868W        W20337  15.979   6.614  11.181  0.2331 -0.1403  0.2933
 4869W        W20338   5.128   9.279  15.359 -0.2219  0.1440  0.3109
 4870W        W20339   7.150  13.600   5.200  0.1413 -0.0000 -0.1695
 4871W        W20340  17.272  11.867   3.481  0.2134  0.3330  0.1014
 4872W        W20341  10.264   3.312  14.740 -0.1146  0.0657 -0.0609
 4873W        W20342   4.523   5.803   2.421  0.0287 -0.1564  0.3916
 4874W        W20343   3.696  14.946  14.104  0.0486 -0.1146 -0.0018
 4875W        W20344  16.326   7.453   4.639  0.1420  0.1897  0.1471
 4876W        W20345   2.000   8.323  13.975  0.0311  0.1379  0.2268
 4877W        W20346   2.018   0.502   4.120  0.1999  0.0329 -0.1198
 4878W        W20347  11.388  13.582  11.428  0.2112  0.0034  0.3879
 4879W        W20348   2.405  11.725   4.232 -0.1533 -0.0267  0.0608
 4880W        W20349  12.616   4.868   3.629 -0.3349  0.0553  0.2008
 4881W        W20350  14.839   3.559   4.500  0.0258 -0.0858  0.4977
 4882W        W20351   9.388   0.689   0.451 -0.1691  0.0238  0.2454
 4883W        W20352  17.450  18.215  12.819  0.0535 -0.1314 -0.1832
 4884W        W20353   5.447  10.394   2.160 -0.1653  0.0024  0.1770
 4885W        W20354   9.363   0.500  13.262 -0.1125  0.1259  0.0405
 4886W        W20355   9.668   3.476  15.500 -0.0991  0.1573  0.0543
 4887W        W20356   3.103   2.533   4.292 -0.0795 -0.0262  0.0720
 4888W        W20357   4.756   9.903  15.055 -0.0337  0.1533 -0.2259
 4889W        W20358   1.703   8.869  11.340  0.2551 -0.1376  0.0183
 4890W        W20359  13.401   6.287  15.498  0.0281  0.0659  0.3691
 4891W        W20360   6.696  17.832  12.730  0.0772 -0.2138  0.1243
 4892W        W20361   7.447  11.126  12.180  0.2843 -0.1603  0.1312
 4893W        W20362   2.743   6.680  10.570 -0.0742  0.3088  0.1982
 4894W        W20363   5.106   4.509  12.016 -0.1791 -0.1252  0.1102
 4895W        W20364  14.631  15.109   2.258  0.3439  0.0434 -0.2379
 4896W        W20365  12.102   0.223   5.415 -0.0240 -0.0421 -0.2452
 4897W        W20366   9.712   2.265  13.551  0.2231 -0.4142 -0.2356
 4898W        W20367   4.743  13.510   1.248 -0.1210  0.0543 -0.2713
 4899W        W20368   9.101  11.271   1.720 -0.2448  0.1875 -0.1123
 4900W        W20369  18.857  17.345   5.416  0.0570 -0.0476 -0.1082
 4901W        W20370   5.661   4.320   1.355 -0.1712  0.4079  0.1917
 4902W        W20371  10.180   0.756  13.927  0.3146 -0.1654 -0.0771
 4903W        W20372   7.543   8.099   4.081  0.2675  0.0880  0.0879
 4904W        W20373   6.948  13.718   4.033  0.0797 -0.1019 -0.2985
 4905W        W20374  18.441  17.836   1.821 -0.2061  0.0249  0.3981
 4906W        W20375  17.677  15.890  13.325  0.1731 -0.3999 -0.2194
 4907W        W20376   5.523  14.435  13.104 -0.0396 -0.0183  0.0469
 4908W        W20377  15.475  10.341   1.683  0.1186  0.3067 -0.2202
 4909W        W20378   2.872   2.885  14.189 -0.1687 -0.0007  0.1720
 4910W        W20379   2.609  11.818   2.112  0.0297  0.1982 -0.1481
 4911W        W20380  11.175   3.735  10.894  0.1205 -0.0231 -0.1258
 4912W        W20381   9.465  17.848  13.390 -0.0106  0.5015  0.0941
 4913W        W20382  12.353  17.195   3.704 -0.0698  0.0241  0.2293
 4914W        W20383  16.384   8.957  12.413  0.0894 -0.0920 -0.0610
 4915W        W20384  13.522   9.059  13.797 -0.1093  0.0557 -0.0347
 4916W        W20385   7.994  12.857  13.611 -0.0616 -0.2156 -0.1658
 4917W        W20386   0.210  12.688   0.334  0.0975 -0.1531 -0.5527
 4918W        W20387   9.681   8.885  11.436 -0.0403 -0.2844  0.0255
 4919W        W20388  13.269   8.755  12.530 -0.3367 -0.0051  0.2991
 4920W        W20389  16.087  10.679   5.438 -0.0667  0.2415  0.3425
 4921W        W20390   1.331   6.888  12.656  0.1751  0.2826 -0.0241
 4922W        W20391  11.497   4.397  12.943  0.2173 -0.0199 -0.0761
 4923W        W20392   9.940  15.556   5.450  0.0488  0.2533 -0.0879
 4924W        W20393   0.289  10.386   4.859  0.6715 -0.0426 -0.0939
 4925W        W20394   6.475   6.177   3.095  0.0801  0.3312 -0.2747
 4926W        W20395   5.791   4.432   3.517  0.0156  0.1774  0.0048
 4927W        W20396   0.433   2.639   1.423  0.1395  0.1935 -0.1685
 4928W        W20397  14.022  14.546  10.761  0.4365  0.1825  0.1606
 4929W        W20398  12.746  13.045  11.288 -0.3526 -0.0358  0.0525
 4930W        W20399  13.802  18.798  10.991  0.0276 -0.0490  0.0186
 4931W        W20400  11.572  10.699  14.944  0.0213 -0.0762 -0.0409
 4932W        W20401   3.964   2.579   3.658 -0.0662 -0.1101 -0.2325
 4933W        W20402   8.218   0.801  10.632  0.1032 -0.0586 -0.0037
 4934W        W20403   0.646   8.699  12.776 -0.0862  0.0738 -0.2271
 4935W        W20404   5.684  12.279  11.260 -0.0737  0.2855  0.0735
 4936W        W20405  14.542   4.041  15.444  0.2337  0.2194 -0.0266
 4937W        W20406   6.754  14.886   2.675  0.3109 -0.0603  0.1677
 4938W        W20407  13.620   7.143   2.257  0.1942 -0.2165  0.1316
 4939W        W20408   1.519  18.415  13.412  0.1120 -0.2280 -0.0691
 4940W        W20409   3.298  16.692   1.645  0.3716 -0.0310  0.0740
 4941W        W20410   7.620  13.011   4.956  0.1977 -0.2259 -0.0389
 4942W        W20411   9.095  14.247   3.178 -0.2091  0.0226  0.1188
 4943W        W20412   0.534  17.685   4.206 -0.0494 -0.3476  0.4495
 4944W        W20413  16.814  10.690  12.471  0.0585  0.3934  0.1706
 4945W        W20414   3.661  18.462  15.076  0.0905 -0.1067 -0.1788
 4946W        W20415   4.061  12.583   5.341 -0.0057 -0.1429  0.1838
 4947W        W20416   5.847  12.007   0.362  0.0729 -0.2119  0.2171
 4948W        W20417   7.077  17.080  10.830 -0.0096  0.0410 -0.0213
 4949W        W20418   2.272  10.356  14.865  0.1711  0.0974  0.1112
 4950W        W20419   8.539  12.209   0.209 -0.0233 -0.3490  0.1316
 4951W        W20420   9.700   2.424  10.689 -0.0782  0.1121 -0.3419
 4952W        W20421   8.198  17.320   2.222  0.0732 -0.0478  0.3539
 4953W        W20422  12.165   2.935   4.203 -0.0688 -0.4797 -0.1832
 4954W        W20423   0.975  10.247   1.962 -0.2037 -0.4025  0.0616
 4955W        W20424  11.395   5.632   4.330 -0.0867  0.0611 -0.1399
 4956W        W20425  17.896   1.174  11.868  0.0390  0.0659 -0.0566
 4957W        W20426   7.835  15.609   6.000 -0.0357  0.3455  0.1777
 4958W        W20427  12.186  17.876  13.126  0.0694 -0.0759  0.0439
 4959W        W20428   2.237   8.801  14.079 -0.0023  0.0182  0.1495
 4960W        W20429   2.167  11.527   5.280 -0.1512  0.1120 -0.3788
 4961W        W20430   2.181   2.107  10.317 -0.1166  0.0640  0.1758
 4962W        W20431   5.125  18.408  14.156  0.1566 -0.1136  0.1099
 4963W        W20432   3.304   6.631  13.832 -0.0472 -0.2456 -0.2490
 4964W        W20433  14.021  18.556   4.766  0.1687  0.3408 -0.2966
 4965W        W20434  10.954   2.201   4.120 -0.1853  0.2770  0.1824
 4966W        W20435  10.568   1.300  13.879  0.0913 -0.1340 -0.3379
 4967W        W20436  13.306   1.886  14.721 -0.2705 -0.0957  0.0185
 4968W        W20437   6.476  14.523   9.958  0.2388  0.0253 -0.0944
 4969W        W20438  15.811  16.082   3.223  0.0955 -0.0146  0.1219
 4970W        W20439   9.583  15.577  11.565  0.0473 -0.1462 -0.1652
 4971W        W20440  17.330   3.474   0.388 -0.4841  0.0348 -0.1309
 4972W        W20441  14.187  18.912   4.337  0.1011  0.1216  0.4413
 4973W        W20442   0.685  13.412  15.302 -0.0138 -0.0460 -0.1526
 4974W        W20443   2.375   4.181   3.074  0.0068 -0.0136  0.0900
 4975W        W20444   0.266   5.158   4.196  0.1791 -0.0273  0.4208
 4976W        W20445  12.692   0.103   1.775  0.0033 -0.0644  0.3437
 4977W        W20446   9.418  12.534   0.590 -0.0235 -0.1519  0.0871
 4978W        W20447  18.483   8.987  10.958  0.1290 -0.0068  0.0513
 4979W        W20448   0.932  14.632   1.361 -0.3612  0.2115 -0.2514
 4980W        W20449   3.945  17.452  15.030 -0.0002 -0.1227 -0.4702
 4981W        W20450   3.703   3.705   2.558  0.0483  0.2576  0.0263
 4982W        W20451   8.135   5.490  12.522  0.3207 -0.0443  0.1335
 4983W        W20452  14.281  11.034   2.431  0.0494  0.1212  0.2005
 4984W        W20453  15.629   5.176   4.232 -0.1815 -0.0246  0.0759
 4985W        W20454  17.387   3.943   4.104 -0.2683 -0.3563  0.1805
 4986W        W20455   7.013   2.369   3.636  0.0155 -0.0670 -0.2081
 4987W        W20456   1.147   3.889  10.678 -0.1834  0.0246 -0.0282
 4988W        W20457   6.531   7.988  10.682  0.1942  0.0675 -0.2127
 4989W        W20458  12.158  12.183  13.575  0.0898 -0.0728 -0.1998
 4990W        W20459  12.650   8.504  13.985  0.0330 -0.1552  0.1385
 4991W        W20460  17.517  11.064  14.720  0.2063 -0.2381 -0.2293
 4992W        W20461  10.432   4.753   1.533 -0.1160 -0.1954  0.1039
 4993W        W20462   2.618  13.388  14.000 -0.0137  0.1673 -0.1734
 4994W        W20463   4.601  18.486  12.913  0.0678  0.0776  0.0104
 4995W        W20464  12.379  11.952   1.243  0.0758 -0.0044 -0.0698
 4996W        W20465   5.794  12.916   2.296 -0.1504  0.0337  0.1011
 4997W        W20466  17.061   1.272   2.383  0.0674 -0.2116  0.5032
 4998W        W20467  13.932   6.517  12.186 -0.4106  0.1043  0.1411
 4999W        W20468   0.665  12.300   2.216 -0.1477 -0.0345  0.2392
 5000W        W20469  15.578   3.232  15.179 -0.0350 -0.3148  0.0693
 5001W        W20470  18.552   1.705  14.255  0.0162  0.5625  0.1892
 5002W        W20471  17.196  14.859  12.765  0.3292 -0.1446 -0.1125
 5003W        W20472   6.284   1.572  13.919  0.1073 -0.1604 -0.0888
 5004W        W20473   3.359  18.634  14.674  0.2873  0.0352  0.2435
 5005W        W20474  13.351   0.000  11.149  0.1231  0.4477 -0.2369
 5006W        W20475   5.902   4.921  14.678  0.0198 -0.1440 -0.0985
 5007W        W20476   7.062   8.649  12.124 -0.2202  0.1930  0.1238
 5008W        W20477   0.805  10.092  14.691  0.0783 -0.2017 -0.4231
 5009W        W20478   3.510   0.655  14.421 -0.1389  0.4458  0.2665
 5010W        W20479  12.024   3.819   4.711  0.2451  0.1339 -0.1540
 5011W        W20480   9.574   4.804  15.254  0.1972 -0.1952  0.2238
 5012W        W20481   3.784   5.233  12.793 -0.2365  0.1786  0.0480
 5013W        W20482  14.382  16.160  14.856 -0.4080  0.0874 -0.0347
 5014W        W20483   1.975  15.260   3.858  0.1408 -0.0787 -0.2184
 5015W        W20484   4.971  13.701  11.968 -0.2507 -0.2958  0.0342
 5016W        W20485  17.910  11.067   3.465  0.0501 -0.1896  0.1052
 5017W        W20486   6.696   3.423  11.881  0.0264  0.0187  0.0564
 5018W        W20487  15.441   9.870   0.818  0.0480 -0.1259 -0.0813
 5019W        W20488   5.733   1.204  12.885 -0.3640  0.0924 -0.0277
 5020W        W20489   3.885   9.997   1.141  0.1029 -0.0369  0.2867
 5021W        W20490  11.674   8.518   2.200  0.1792 -0.2862  0.0399
 5022W        W20491   1.904   4.866  11.985 -0.0438 -0.2131  0.3392
 5023W        W20492   2.708  14.242   5.459 -0.0217 -0.0752  0.2918
 5024W        W20493   2.859   5.377  12.147 -0.0880  0.4583 -0.0617
 5025W        W20494  14.216   7.513   0.524 -0.0159  0.0115 -0.1298
 5026W        W20495  17.537   9.274  13.451 -0.1918 -0.2043 -0.2400
 5027W        W20496  18.217  10.243   5.746  0.0478  0.1801  0.0261
 5028W        W20497   4.138  15.297  12.324 -0.0584  0.0096  0.3524
 5029W        W20498  17.581  12.204  13.423  0.0837  0.1341 -0.2717
 5030W        W20499  14.576   9.290  12.836  0.2411  0.0189  0.2152
 5031W        W20500  12.667   4.147  11.929 -0.0730  0.0570 -0.2302
 5032W        W20501  17.423   5.353  11.684  0.3942 -0.1387  0.0877
 5033W        W20502  16.800   9.216  11.720  0.2192  0.2869 -0.0108
 5034W        W20503   0.586  13.371   0.309  0.0862  0.1165  0.3334
 5035W        W20504   0.310  12.141  15.123 -0.0952 -0.3506 -0.1280
 5036W        W20505   7.009  12.525   3.121  0.1182  0.1328  0.3780
 5037W        W20506  10.620  17.971   0.842  0.3390 -0.1132 -0.1246
 5038W        W20507   6.138   7.077  12.869  0.0350  0.0730  0.0398
 5039W        W20508  14.962  15.774   0.687 -0.3026  0.2241 -0.2492
 5040W        W20509  14.599   0.688   4.141  0.0451 -0.0630 -0.1633
 5041W        W20510  16.641   4.264   2.608  0.0246  0.0944 -0.4482
 5042W        W20511   3.826   2.967  14.148 -0.1463 -0.2426 -0.1100
 5043W        W20512   0.314   7.304   2.408 -0.1020  0.2325  0.1593
 5044W        W20513  18.187  10.517   4.764 -0.1510 -0.1322  0.1788
 5045W        W20514  14.439  14.710   1.912  0.4390  0.1219  0.1743
 5046W        W20515  18.114  10.758   0.846 -0.1462 -0.1462 -0.2689
 5047W        W20516  16.458   4.815   1.716  0.0748 -0.4363  0.2535
 5048W        W20517  18.605  15.290   3.588 -0.1103  0.2222  0.3420
 5049W        W20518  14.047  11.312  14.450 -0.1617  0.0364  0.1698
 5050W        W20519   6.725   7.689   1.583 -0.1165  0.0387 -0.0433
 5051W        W20520  14.922   0.598  13.793 -0.1381 -0.0661 -0.3072
 5052W        W20521  17.523  16.796  11.242 -0.0381 -0.3801  0.0095
 5053W        W20522  15.692   6.193   2.975  0.2372 -0.1604  0.0789
 5054W        W20523   0.950   2.955  12.733 -0.3088 -0.2032 -0.5098
 5055W        W20524   5.225   9.609   4.767  0.1787 -0.0305  0.2732
 5056W        W20525  16.741   6.782   5.360  0.1315  0.1331  0.1336
 5057W        W20526   2.724   0.161  14.599 -0.0194  0.0979 -0.1645
 5058W        W20527   3.356  15.740  13.714 -0.0951 -0.0478 -0.0818
 5059W        W20528   8.707  11.281   5.382 -0.2236 -0.0464 -0.0996
 5060W        W20529   6.570   7.420   2.006  0.1687  0.3409 -0.2062
 5061W        W20530   9.464   6.945  11.072 -0.0983  0.1320 -0.3493
 5062W        W20531  13.594  10.031  12.189  0.2051 -0.4220 -0.2229
 5063W        W20532  11.100  17.586   2.177  0.0126 -0.0578 -0.0105
 5064W        W20533   2.703   7.335  11.424  0.0770  0.1325  0.1353
 5065W        W20534   1.471  18.507   4.967 -0.0052  0.1234  0.1590
 5066W        W20535  17.444  16.900  12.280 -0.3325 -0.0514  0.0128
 5067W        W20536   9.867  16.723   2.557 -0.3628  0.0025  0.0221
 5068W        W20537   5.118  15.954  13.586 -0.2917 -0.1793  0.0883
 5069W        W20538   9.907  17.124   1.885  0.1216 -0.0392 -0.0380
 5070W        W20539   4.219  14.565  15.245  0.3100  0.1037  0.1009
 5071W        W20540   5.734  18.858   1.813  0.1303 -0.1352  0.3137
 5072W        W20541   9.313   2.469  11.026 -0.0665  0.1125 -0.0324
 5073W        W20542  13.281   7.390   4.661 -0.0539 -0.0778 -0.0027
 5074W        W20543  18.501  16.230  12.236 -0.3497  0.2590  0.1412
 5075W        W20544   9.297   1.341  15.142 -0.1948 -0.3174 -0.0840
 5076W        W20545   1.951  14.534  13.627 -0.1534 -0.2766  0.1736
 5077W        W20546  16.842   4.863   4.330  0.2112  0.1681 -0.1763
 5078W        W20547  18.199  15.328   2.275 -0.0403 -0.2171 -0.3421
 5079W        W20548   1.100  18.164   1.616  0.1959  0.0856  0.2620
 5080W        W20549   8.695  12.524   2.663  0.4273  0.2718  0.4100
 5081W        W20550  10.691   9.334   3.423  0.2741 -0.0523 -0.1055
 5082W        W20551   7.992   7.353   3.993  0.2503  0.3766  0.1131
 5083W        W20552   3.679   4.581  14.593  0.0968  0.0013 -0.0180
 5084W        W20553   7.638   2.958  14.394  0.1412  0.0590  0.0622
 5085W        W20554   2.998   0.811  11.706  0.0659  0.4920 -0.2291
 5086W        W20555   8.991   0.916  12.668 -0.0425 -0.0213 -0.3417
 5087W        W20556   0.280   1.661   0.278 -0.0074  0.2239  0.1635
 5088W        W20557  16.278   7.746   2.136  0.2239  0.0906  0.1902
 5089W        W20558   3.902  13.840   4.183  0.1678 -0.3361 -0.2309
 5090W        W20559   9.204   5.807   2.932 -0.0020  0.1145  0.3849
 5091W        W20560   1.287   9.095   4.753  0.2541  0.0115  0.2159
 5092W        W20561   1.098   4.177  14.650  0.0018  0.0727 -0.0792
 5093W        W20562  16.675  15.606  15.253  0.2850 -0.2353  0.0070
 5094W        W20563  11.191  12.641   0.609  0.2690  0.0598 -0.3156
 5095W        W20564   5.987   8.078   0.228  0.1244 -0.0809 -0.2398
 5096W        W20565  15.167   6.329  12.190 -0.2459  0.1323  0.0031
 5097W        W20566   9.977   0.408  11.871 -0.1041  0.3889 -0.2559
 5098W        W20567   3.845  16.778  14.853  0.1629  0.0989  0.3370
 5099W        W20568  15.542   1.468  13.531  0.2866 -0.2338 -0.3198
 5100W        W20569  17.612   7.003   0.591 -0.0228  0.2986  0.1317
 5101W        W20570   1.310  14.857  11.837 -0.0257 -0.0341  0.1252
 5102W        W20571   2.400  16.560   0.205  0.0219 -0.0335 -0.0561
 5103W        W20572  17.511   0.129   0.143  0.2231 -0.2434  0.0174
 5104W        W20573   2.953   4.756   1.457  0.0056 -0.2214  0.0126
 5105W        W20574  14.899   7.618   3.858  0.0146 -0.2631  0.0371
 5106W        W20575   7.334   0.829  15.337 -0.2804  0.0395  0.0904
 5107W        W20576   8.849   4.327   0.282  0.1775  0.1592 -0.1503
 5108W        W20577   7.607   0.638  10.858  0.3374 -0.0789 -0.0069
 5109W        W20578   2.419   6.079  12.660  0.1248  0.3546  0.0337
 5110W        W20579  16.862  12.298   2.158 -0.1089 -0.0084 -0.1691
 5111W        W20580  16.920   8.928   2.924 -0.3337 -0.0378 -0.0966
 5112W        W20581   1.079  16.091   2.046 -0.2005 -0.1086 -0.1465
 5113W        W20582  16.018   3.793  11.956 -0.1651 -0.2116 -0.2187
 5114W        W20583   3.190  16.613   3.351 -0.2363 -0.1178  0.0567
 5115W        W20584   7.165   4.736  15.311 -0.2043  0.0693 -0.2134
 5116W        W20585   0.127  12.477   4.999  0.0370  0.0558 -0.0276
 5117W        W20586   2.778   4.501   3.164 -0.1301 -0.0711  0.1012
 5118W        W20587   9.460  12.559  13.193 -0.0285  0.2193 -0.0062
 5119W        W20588   2.999  14.585   1.355 -0.0338  0.1861  0.1157
 5120W        W20589  16.059   3.927  14.770  0.0330 -0.0110 -0.2881
 5121W        W20590   2.437  16.527   2.342  0.2864 -0.1707 -0.1588
 5122W        W20591  16.410  13.592   4.761 -0.2444 -0.1028 -0.1176
 5123W        W20592  14.424  14.757  14.167  0.1665  0.0444  0.1524
 5124W        W20593   5.712   3.225  12.491  0.0870  0.2106  0.0246
 5125W        W20594   2.569   7.843  12.595 -0.0937  0.0782  0.1521
 5126W        W20595   3.892  13.562  13.085 -0.1089 -0.0202  0.0229
 5127W        W20596  14.049   7.639  10.571 -0.0498  0.1809 -0.2312
 5128W        W20597   7.113   7.298  12.722  0.1344 -0.1316 -0.0336
 5129W        W20598  11.628   7.237   3.401 -0.0044  0.3246  0.0224
 5130W        W20599  14.573   8.238   0.992  0.1292 -0.0460  0.0951
 5131W        W20600   0.970   9.528  10.685  0.2265  0.2146 -0.2903
 5132W        W20601  17.436  16.747   0.158  0.0388 -0.2364  0.1461
 5133W        W20602   7.221  11.554   0.971  0.4605 -0.2954  0.0336
 5134W        W20603  18.548   4.799   9.565  0.0680  0.1857  0.0400
 5135W        W20604   1.065  11.723   1.198  0.1158 -0.0003 -0.1468
 5136W        W20605  17.498   5.162  13.891 -0.2255  0.2073 -0.0701
 5137W        W20606  13.372   6.679  15.170 -0.1958  0.2412  0.0056
 5138W        W20607   7.640   8.129   1.057 -0.0297  0.0350 -0.0025
 5139W        W20608   4.199  15.330  11.383 -0.0586 -0.0820 -0.1650
 5140W        W20609  17.966   3.760  14.323 -0.1224 -0.1468 -0.2372
 5141W        W20610  17.418  10.765   3.196  0.0615 -0.0218  0.3742
 5142W        W20611   5.019   2.165   0.809  0.0368 -0.1418 -0.1270
 5143W        W20612   7.792  18.722   1.953 -0.0663  0.1019  0.0996
 5144W        W20613   5.100   1.938  11.988 -0.3133  0.2798 -0.0263
 5145W        W20614  13.486  13.660   5.043  0.1006  0.0635 -0.0127
 5146W        W20615  15.565   1.330  10.806  0.1328 -0.4564 -0.1849
 5147W        W20616   4.538   7.460   0.891  0.1663 -0.1622 -0.0143
 5148W        W20617   7.201  17.175  14.307 -0.0027  0.2879 -0.1181
 5149W        W20618  14.859   8.159   1.586 -0.0826 -0.0874 -0.0577
 5150W        W20619   6.645   9.476   4.799  0.0243 -0.0688  0.0839
 5151W        W20620   5.444  13.181  11.423  0.0949  0.1396  0.2843
 5152W        W20621  13.277  11.163   3.230 -0.2565  0.2521 -0.0327
 5153W        W20622   5.655   8.836   3.770  0.1540 -0.2335  0.3242
 5154W        W20623   0.354   9.062   4.994 -0.0507  0.0707  0.2719
 5155W        W20624  18.558   4.953   0.656 -0.0031 -0.2590 -0.1134
 5156W        W20625   8.124   8.492  11.231 -0.0881  0.1118 -0.0425
 5157W        W20626   0.499  14.503  11.102 -0.0400  0.1790  0.0721
 5158W        W20627  11.879  14.257  11.004  0.0798  0.0309 -0.0544
 5159W        W20628  10.301  13.644   3.446 -0.4406 -0.0650 -0.0944
 5160W        W20629  17.938  12.013   0.133 -0.1151  0.0238 -0.0929
 5161W        W20630   6.974   3.716  13.960  0.1156 -0.1461 -0.2236
 5162W        W20631  16.696  16.287   4.620  0.0087  0.2884 -0.1852
 5163W        W20632  18.797  14.787  10.229  0.2371  0.0033 -0.1366
 5164W        W20633  11.453  11.086   0.842 -0.0267  0.1931 -0.0753
 5165W        W20634   0.314  13.502  12.202  0.0210 -0.1381  0.2321
 5166W        W20635   9.656  14.724  11.709 -0.2951 -0.0562  0.3685
 5167W        W20636  10.749  12.951  13.078  0.0797 -0.1463 -0.1644
 5168W        W20637   6.323  13.124  13.690 -0.2150  0.3001 -0.3041
 5169W        W20638  14.884   7.980  14.006  0.2434  0.3434 -0.1222
 5170W        W20639  13.049   6.779   2.536  0.0966 -0.1387 -0.0652
 5171W        W20640   2.020   3.198  13.822  0.1018  0.2846 -0.3242
 5172W        W20641  15.458  18.480  11.360  0.0751 -0.2809 -0.1207
 5173W        W20642  18.312   0.604   1.183 -0.6198 -0.0623 -0.1085
 5174W        W20643  15.180   2.471   3.007  0.0563  0.1467 -0.0871
 5175W        W20644  10.383  18.871   1.984 -0.2542  0.0183  0.1490
 5176W        W20645   9.171   5.412  12.431 -0.0623 -0.6074 -0.2387
 5177W        W20646   2.084  12.242   1.098 -0.2907 -0.1639  0.1771
 5178W        W20647   5.728   7.838   0.597 -0.2381 -0.1235 -0.3072
 5179W        W20648  12.201  11.204   0.179  0.3983  0.0693  0.0295
 5180W        W20649   3.643  10.443   4.272  0.0309 -0.0763 -0.2640
 5181W        W20650   2.904   7.219  12.980 -0.0374  0.3009 -0.0397
 5182W        W20651   1.709  15.751   5.318 -0.3898  0.1337 -0.0789
 5183W        W20652   9.111   8.147  15.104  0.0024  0.2377  0.0308
 5184W        W20653  13.567  18.894  12.633 -0.1018 -0.0296  0.2428
 5185W        W20654  13.582  17.760   4.671  0.1014  0.0435  0.0792
 5186W        W20655   9.911   8.123  10.387 -0.0066  0.0701 -0.1814
 5187W        W20656  12.013   9.525  13.927 -0.0937 -0.4845  0.1728
 5188W        W20657   5.049   5.909  10.585 -0.0854  0.0357 -0.0335
 5189W        W20658  17.788   5.515   0.836  0.0809 -0.0892  0.0078
 5190W        W20659   0.148   3.541   4.428 -0.1276  0.1129  0.1194
 5191W        W20660  17.057   7.017   3.614  0.0768 -0.2486 -0.0529
 5192W        W20661  18.515   0.465  14.159  0.4302  0.2835 -0.2612
 5193W        W20662   0.109   6.021  10.598  0.1263  0.1343 -0.1191
 5194W        W20663  18.052   8.677  12.739  0.3454  0.1794  0.3192
 5195W        W20664   1.019   9.151   5.180  0.1939 -0.1340  0.4269
 5196W        W20665  12.666  11.003  11.228 -0.2390 -0.0344  0.0216
 5197W        W20666   5.667  10.798  12.941 -0.1483 -0.2932 -0.1313
 5198W        W20667   0.726  17.538  12.701 -0.0647 -0.0413  0.2170
 5199W        W20668   0.211  16.608  11.867 -0.0862  0.4965  0.0195
 5200W        W20669   1.150   6.805   2.313 -0.1564 -0.0749 -0.0292
 5201W        W20670  17.650   1.076   2.304  0.3056  0.2340 -0.2261
 5202W        W20671  16.413  17.475   2.469  0.0366 -0.1250  0.3119
 5203W        W20672  17.391  18.898   3.199  0.0297 -0.5312  0.0697
 5204W        W20673   1.917  17.636  12.485  0.0927 -0.0637  0.1181
 5205W        W20674  10.632   9.604  12.994 -0.1274 -0.0624 -0.2937
 5206W        W20675  10.213   2.576  10.740 -0.2427 -0.1063 -0.0091
 5207W        W20676  17.393  17.284   3.184 -0.0008  0.0136 -0.3216
 5208W        W20677   3.362  12.569   0.305 -0.1285 -0.3796 -0.1021
 5209W        W20678   5.577  14.126  13.927  0.1780 -0.1237  0.1350
 5210W        W20679   4.321   7.804  12.535 -0.0232  0.0956  0.2779
 5211W        W20680  15.428  15.853   4.020 -0.0242 -0.2718  0.3185
 5212W        W20681   0.847   4.320   3.495 -0.1355 -0.1838  0.1170
 5213W        W20682  17.100   9.530  13.885 -0.1199  0.4013  0.2042
 5214W        W20683  11.076  15.110  12.220  0.3501 -0.1300  0.0261
 5215W        W20684  17.120  13.626  11.024 -0.0470 -0.0894  0.1365
 5216W        W20685   6.317  15.520   4.306 -0.0548 -0.0041 -0.0341
 5217W        W20686   4.678  10.132   4.213 -0.2083 -0.0813  0.1451
 5218W        W20687  14.840   1.080   3.865  0.1164 -0.3386 -0.0563
 5219W        W20688   4.286   8.181   3.490 -0.2105 -0.1688  0.0320
 5220W        W20689   8.048  16.074  12.876  0.1430  0.1942 -0.1861
 5221W        W20690   9.319   6.017   9.419 -0.0678  0.1136 -0.1124
 5222W        W20691  11.387  13.324  13.066 -0.0796 -0.1372  0.0378
 5223W        W20692   9.127  10.807  13.911 -0.4201  0.2455  0.0431
 5224W        W20693  15.501   5.192   3.684 -0.3886 -0.1500 -0.2881
 5225W        W20694  12.880  17.588   3.067  0.0425  0.0756  0.0591
 5226W        W20695   1.993   1.340  12.416 -0.1578 -0.0170 -0.0671
 5227W        W20696  18.184   0.977  12.734 -0.1824 -0.1355 -0.2884
 5228W        W20697   1.053   0.294  14.888  0.0200 -0.2238  0.2816
 5229W        W20698  11.879  10.353   4.335  0.1985 -0.0525 -0.1360
 5230W        W20699   8.155   6.688  10.459  0.2721  0.0672  0.2032
 5231W        W20700  13.914  11.481  12.579  0.0232  0.1840 -0.0765
 5232W        W20701   3.121   6.186  10.294  0.0080 -0.1440  0.4995
 5233W        W20702   9.813  17.278   2.363  0.4105 -0.0239  0.0047
 5234W        W20703   3.788   4.776  11.649 -0.0389  0.0880  0.1604
 5235W        W20704   8.575   3.563   3.929 -0.2391 -0.0442  0.1827
 5236W        W20705  12.075   2.203  11.832  0.1326  0.0155 -0.0698
 5237W        W20706  11.122  18.560  13.608 -0.3760  0.0251  0.3018
 5238W        W20707  17.435  14.430   0.316 -0.1309 -0.0283 -0.3747
 5239W        W20708  16.507   0.322   5.049 -0.3535  0.1422  0.1024
 5240W        W20709  16.904   2.093  14.935 -0.1838 -0.3154  0.0940
 5241W        W20710  10.946  12.606   4.170  0.5016 -0.2433 -0.1897
 5242W        W20711  17.864  16.116   3.047  0.1356 -0.1388 -0.2444
 5243W        W20712  18.417   2.877  13.436  0.3109  0.2214 -0.1697
 5244W        W20713  10.444   6.482   0.551  0.2913  0.1183  0.2880
 5245W        W20714   7.102  14.373  14.862  0.0345 -0.3544  0.1441
 5246W        W20715   4.277   4.532  11.667  0.0786  0.2426 -0.0126
 5247W        W20716  14.436   2.012   3.635 -0.0185  0.0908 -0.3643
 5248W        W20717  12.051   3.538  15.014 -0.1812  0.0208 -0.0256
 5249W        W20718   0.155   7.151  11.294 -0.0838  0.2661 -0.0466
 5250W        W20719   6.507  11.001  13.023 -0.0345 -0.0572  0.2016
 5251W        W20720   8.070  18.660   3.438 -0.1409 -0.3485  0.3141
 5252W        W20721  16.498  13.871   2.439  0.0443 -0.1536  0.0221
 5253W        W20722   4.677   2.741   2.774 -0.3037 -0.2085 -0.2917
 5254W        W20723   8.996   5.412  13.389 -0.0487  0.0039  0.1663
 5255W        W20724  17.997   7.350   1.807 -0.0824  0.0431 -0.0527
 5256W        W20725   4.211   7.692   4.198  0.0012 -0.0149  0.1427
 5257W        W20726   3.488   7.063   2.120  0.2234 -0.0552 -0.0630
 5258W        W20727  14.092   8.751   2.268 -0.0451  0.1225  0.0477
 5259W        W20728  11.548   4.648   3.889  0.1062  0.1543  0.0488
 5260W        W20729  14.808  10.465  13.900  0.0105 -0.2910 -0.0633
 5261W        W20730  10.634  18.836  13.224 -0.1901  0.1719 -0.1052
 5262W        W20731  17.101  10.110  13.058 -0.0622  0.1175 -0.5608
 5263W        W20732  10.819   6.036   2.840 -0.0672 -0.0656 -0.0556
 5264W        W20733   9.908  12.887  13.104  0.1528  0.0898 -0.1974
 5265W        W20734  18.301  11.212   1.519  0.4614 -0.3930  0.0744
 5266W        W20735   6.168  12.487  14.446 -0.0947 -0.1013 -0.0617
 5267W        W20736  16.608  18.755   2.035  0.4019  0.0374  0.1969
 5268W        W20737   8.900   9.730  13.182  0.0595 -0.2494 -0.2176
 5269W        W20738   7.123   9.905  13.412 -0.0119  0.2276  0.2097
 5270W        W20739   9.234  16.630  10.195 -0.2215 -0.2050 -0.0413
 5271W        W20740  11.347   2.688   2.262  0.0991 -0.0601 -0.0319
 5272W        W20741   0.678  12.160   3.563 -0.2373  0.2333 -0.1651
 5273W        W20742  18.432  18.911  14.539  0.1067  0.0067 -0.0538
 5274W        W20743   3.742  12.232  10.362 -0.1447  0.2768  0.1197
 5275W        W20744  10.875  14.922   0.683  0.0135 -0.0058  0.0597
 5276W        W20745  18.616  18.861  10.529 -0.0637  0.3381 -0.0043
 5277W        W20746  18.914   7.281   0.433 -0.3637  0.2558 -0.0158
 5278W        W20747   1.948   2.869  15.186  0.0969  0.0213 -0.3113
 5279W        W20748   6.873  16.467   4.809  0.0631  0.1473  0.2675
 5280W        W20749  12.641  18.365   3.568 -0.2784 -0.5544 -0.3447
 5281W        W20750   6.900   4.998   0.831 -0.4164  0.0942  0.0037
 5282W        W20751   0.731   9.783   0.531  0.1826  0.3276 -0.4480
 5283W        W20752  15.470   5.253   2.595 -0.3521 -0.1046 -0.1749
 5284W        W20753   2.199  12.444  12.381 -0.0507 -0.0029  0.0614
 5285W        W20754   3.675  15.883   4.554  0.0625  0.2731  0.0651
 5286W        W20755   0.202   7.956   2.993 -0.2923 -0.0427 -0.1447
 5287W        W20756  17.189   1.780  13.576 -0.2083 -0.2840 -0.0823
 5288W        W20757   6.705   6.956   0.919  0.0247 -0.0047 -0.0372
 5289W        W20758  17.193  17.292  15.123 -0.0007  0.0973 -0.2619
 5290W        W20759  11.130  17.591   3.352  0.4283  0.0966 -0.0353
 5291W        W20760   6.105  15.601   3.085 -0.2161  0.1544  0.4065
 5292W        W20761   2.328   5.253   4.820 -0.1952 -0.0614  0.1632
 5293W        W20762   8.930   4.432  12.423  0.3597  0.0725 -0.0694
 5294W        W20763  17.162  10.484   0.936  0.0715 -0.2986 -0.0472
 5295W        W20764   0.752  13.851  11.907 -0.0967  0.3027  0.1671
 5296W        W20765  16.086   2.077   0.539 -0.1125 -0.0621 -0.2184
 5297W        W20766  10.984   4.094  12.326 -0.1107 -0.1592  0.0226
 5298W        W20767  10.474  15.532  13.233 -0.2871  0.3268 -0.2804
 5299W        W20768   8.850  13.311   0.249  0.0717  0.2783  0.2297
 5300W        W20769  10.109   1.261  12.639 -0.0377 -0.2103  0.0540
 5301W        W20770   2.278  18.541   0.657  0.0122 -0.1132  0.0997
 5302W        W20771   4.490  14.446  10.693  0.4809  0.0230  0.0069
 5303W        W20772   8.954  12.783  11.985  0.2255  0.2584  0.0313
 5304W        W20773   5.527  10.891  11.054  0.0037  0.2762 -0.1349
 5305W        W20774   4.268   9.320  11.207  0.2903  0.1248  0.1264
 5306W        W20775  14.959   0.468   3.290 -0.2546 -0.0502  0.0013
 5307W        W20776   9.704   9.954  14.601 -0.2283 -0.0848  0.1880
 5308W        W20777  10.689  14.352  12.338 -0.3607  0.3311 -0.0795
 5309W        W20778   9.766   4.971   2.049  0.3609  0.0043  0.1593
 5310W        W20779   8.097   3.655  14.673 -0.2635  0.0811  0.3779
 5311W        W20780  12.224   1.468   3.175 -0.2537  0.1010  0.0683
 5312W        W20781  15.110  17.352  11.921 -0.1173  0.0347  0.1968
 5313W        W20782  13.047   7.795   3.180 -0.1900 -0.2867 -0.0893
 5314W        W20783  18.719   4.581   2.279  0.0136  0.0944 -0.0583
 5315W        W20784   9.688   1.577  12.752  0.1728  0.0103  0.2692
 5316W        W20785   9.022  16.850   5.046 -0.3006 -0.0931  0.0183
 5317W        W20786   2.776   1.168  14.727 -0.2135 -0.0834 -0.0118
 5318W        W20787  12.526   8.952   1.642  0.1523  0.2180 -0.3273
 5319W        W20788   3.135   0.777  13.943  0.2332  0.0883  0.2795
 5320W        W20789  14.974   8.332   0.723 -0.3776  0.0559  0.5587
 5321W        W20790  15.905  15.062  13.681 -0.0384 -0.0096  0.0437
 5322W        W20791   0.629  10.943   2.238  0.0535  0.1096 -0.0161
 5323W        W20792   6.630   6.571  10.235 -0.1485 -0.3644  0.4811
 5324W        W20793   0.635  14.773   4.944 -0.2825 -0.0750  0.1497
 5325W        W20794   0.728   9.450   3.965  0.1602 -0.4344 -0.1956
 5326W        W20795   4.485   6.614   4.779 -0.3071 -0.0861 -0.0870
 5327W        W20796  14.148  15.894   5.250 -0.1267  0.0597 -0.2361
 5328W        W20797  17.814   4.061  12.874 -0.0890  0.2771  0.1179
 5329W        W20798  14.836   1.939  11.821 -0.2292 -0.4689 -0.0529
 5330W        W20799   0.970  14.605  10.786  0.0383 -0.0963  0.0604
 5331W        W20800  13.839   4.758   3.346  0.1136 -0.2876 -0.2121
 5332W        W20801   0.159   1.930  12.928  0.0519  0.3375  0.1563
 5333W        W20802  14.782  15.579  13.916  0.0889 -0.3926 -0.1214
 5334W        W20803  12.181   6.790   2.612 -0.1019  0.2796  0.6032
 5335W        W20804   1.296   6.664   2.851 -0.2121  0.2343 -0.0899
 5336W        W20805   0.454  17.423   0.867  0.0718  0.0434  0.1734
 5337W        W20806   4.370  14.966   0.549 -0.0095 -0.1610  0.1315
 5338W        W20807  16.640   6.183  13.224  0.0996 -0.0807 -0.0656
 5339W        W20808   7.812   1.260   3.590 -0.1183 -0.0955 -0.1158
 5340W        W20809   5.188  13.826   0.805 -0.2772 -0.3399  0.0328
 5341W        W20810   2.960   6.976   3.894 -0.2062  0.2041 -0.2302
 5342W        W20811   0.767   7.109   2.258  0.1283 -0.0744 -0.3230
 5343W        W20812  10.760   8.678  13.830  0.2518 -0.0700 -0.0854
 5344W        W20813  17.416   7.462   4.134  0.4125 -0.1358 -0.0825
 5345W        W20814  11.399  10.811   2.312 -0.0054 -0.1069  0.0795
 5346W        W20815   3.514   2.156  13.169 -0.2227 -0.0561 -0.2851
 5347W        W20816  14.585  10.000  13.794  0.2008 -0.0854 -0.3018
 5348W        W20817  16.217  11.032  15.200 -0.0664 -0.0129  0.2317
 5349W        W20818  15.999   7.447  10.609 -0.3064 -0.1703 -0.1738
 5350W        W20819  14.566  13.173  13.414 -0.1398  0.2290 -0.0409
 5351W        W20820  10.588   9.725  10.778  0.0205  0.0655 -0.3568
 5352W        W20821  14.553   9.072   3.848 -0.2848  0.4701  0.1105
 5353W        W20822   6.971  14.166  14.296 -0.0062 -0.1337  0.1374
 5354W        W20823  17.820   9.965   1.017 -0.1727 -0.0337  0.1944
 5355W        W20824  12.932   5.819   1.181  0.0206 -0.1553  0.5157
 5356W        W20825  14.002   5.165   3.722  0.2626  0.2782 -0.4987
 5357W        W20826   3.513  11.176   4.362 -0.1722 -0.1773  0.2585
 5358W        W20827   6.716   8.499   0.753  0.1493  0.2982  0.0547
 5359W        W20828   7.609   9.231   3.601 -0.2336 -0.6144 -0.0702
 5360W        W20829  10.288   5.814  15.439 -0.0048 -0.1231  0.0318
 5361W        W20830  10.297  15.551  15.484  0.2603 -0.3639 -0.1899
 5362W        W20831   6.191  18.436   4.253 -0.0129  0.0170  0.1499
 5363W        W20832  15.899  15.726  11.146  0.0159 -0.3668  0.0173
 5364W        W20833  10.277  18.369   5.077 -0.1765  0.4439  0.1799
 5365W        W20834   7.502   4.937  10.856 -0.0002  0.0414  0.1335
 5366W        W20835   0.050  17.118   2.876  0.0563 -0.0688 -0.4440
 5367W        W20836  11.963  15.810   0.006  0.1878 -0.2314  0.0311
 5368W        W20837   4.939  18.224   1.164 -0.2561  0.1044 -0.2534
 5369W        W20838  16.440  12.956   1.774  0.2411 -0.3468 -0.2313
 5370W        W20839   2.416   6.363   3.353 -0.0323 -0.2243  0.2102
 5371W        W20840   9.675  14.618  13.116 -0.1146 -0.3753  0.4175
 5372W        W20841  10.451   9.776   3.443 -0.1490 -0.4118  0.0003
 5373W        W20842   6.720  11.435  12.222 -0.0934 -0.2653  0.3233
 5374W        W20843  12.036   0.684  11.183 -0.0148  0.2252  0.2207
 5375W        W20844  11.393  17.671  12.591 -0.3055  0.2954  0.1940
 5376W        W20845  17.435   2.032  14.408  0.0966  0.3952  0.3291
 5377W        W20846  18.386  12.057   0.960 -0.1479  0.0062  0.1040
 5378W        W20847   1.998   3.066   0.321  0.0742 -0.2220 -0.4593
 5379W        W20848  17.183  13.300  11.925  0.2132  0.0527 -0.1526
 5380W        W20849  15.924   6.520   4.899  0.0765 -0.0126 -0.0343
 5381W        W20850   2.071   9.361  10.664 -0.4699  0.0941  0.0766
 5382W        W20851  13.604  10.451   0.759 -0.0724  0.1502  0.2535
 5383W        W20852   2.074   0.694   2.497  0.1814  0.0256 -0.0517
 5384W        W20853  15.201  17.218  15.285 -0.0566  0.3133  0.0773
 5385W        W20854   7.937   0.322  12.234  0.3211 -0.0479 -0.1488
 5386W        W20855   0.494  13.562  10.987 -0.3972 -0.1315 -0.0783
 5387W        W20856  17.852   7.920  10.506 -0.0342 -0.0890 -0.0754
 5388W        W20857  16.867   7.451  14.081  0.3465  0.1153  0.0291
 5389W        W20858  13.027  14.487   9.897  0.2085 -0.1362 -0.2703
 5390W        W20859  10.124   3.167   4.029 -0.0662 -0.0072 -0.0768
 5391W        W20860  18.045   6.872   2.766 -0.1895 -0.3074  0.0820
 5392W        W20861  17.167   1.997  10.937  0.3848 -0.1481  0.2359
 5393W        W20862   7.061  13.746  14.633  0.3282 -0.0599  0.1221
 5394W        W20863   3.816   9.515  11.012 -0.0897 -0.0082 -0.0304
 5395W        W20864   3.161  10.165   9.864  0.0693  0.1741  0.1704
 5396W        W20865  17.589   9.031  10.278  0.2303 -0.0531  0.5397
 5397W        W20866   9.400  11.398  15.425 -0.2041  0.2305 -0.0050
 5398W        W20867  17.235  17.672   4.881  0.3161 -0.2216  0.2274
 5399W        W20868  13.990   6.422  11.455  0.1553 -0.3870  0.0255
 5400W        W20869  14.039   3.026   4.599 -0.0896  0.5207 -0.1227
 5401W        W20870  14.564   8.758   4.742 -0.1797  0.0164  0.0107
 5402W        W20871  18.848  10.930  11.851  0.2625  0.2825 -0.3462
 5403W        W20872  14.333   2.144  11.519 -0.2396 -0.0852 -0.0298
 5404W        W20873   3.793  15.857  15.069  0.0835  0.3803  0.1691
 5405W        W20874  17.235  13.978   3.393  0.0200  0.1092  0.1886
 5406W        W20875  14.056   8.167  11.937  0.0940  0.0320  0.1653
 5407W        W20876  18.586   0.619   4.397  0.1077 -0.1896 -0.0003
 5408W        W20877  10.127  17.641  12.553  0.0638  0.0194 -0.3097
 5409W        W20878   2.680   5.959  11.357 -0.1601 -0.0415  0.2284
 5410W        W20879  18.783  13.341  12.623  0.1712  0.0186 -0.2105
 5411W        W20880  13.377  17.408   2.991 -0.2499 -0.1528 -0.1415
 5412W        W20881   1.197   5.233   5.076 -0.1530 -0.0437 -0.1329
 5413W        W20882   8.000   4.940  14.739 -0.0512 -0.0461  0.0646
 5414W        W20883   1.144  17.949   0.611 -0.1051 -0.1491  0.1435
 5415W        W20884  15.253  11.662   4.431 -0.0198  0.1214  0.3631
 5416W        W20885  13.163   7.232  14.577 -0.2279 -0.3783 -0.2869
 5417W        W20886   6.855   2.012  13.986  0.3172 -0.1555  0.3360
 5418W        W20887   4.811  16.403  10.561 -0.1279  0.1312 -0.4296
 5419W        W20888   9.855   6.877   3.155 -0.2613  0.0868 -0.1023
 5420W        W20889   7.347   2.082   3.342 -0.0006 -0.0022 -0.0098
 5421W        W20890  11.309  18.076  14.453  0.2321  0.0397 -0.1029
 5422W        W20891  10.214   1.771   5.193  0.0014 -0.0509 -0.0091
 5423W        W20892  13.714   3.421   4.568 -0.0422  0.1750 -0.0152
 5424W        W20893  11.194  14.081  10.737  0.2900  0.1482  0.2621
 5425W        W20894  18.025   6.244   3.477 -0.3633 -0.0779  0.2248
 5426W        W20895  12.796  10.281   1.593  0.2895 -0.0980 -0.3535
 5427W        W20896   6.884  17.516  12.305 -0.0392  0.0279 -0.0783
 5428W        W20897   7.255  17.938  10.990 -0.1476 -0.0423  0.1556
 5429W        W20898   5.851   0.600   2.681  0.1457  0.0037 -0.0951
 5430W        W20899   3.768   3.361  15.031 -0.1947  0.0794  0.0894
 5431W        W20900   5.898  16.436  11.865  0.0303  0.1927 -0.1426
 5432W        W20901   5.175  11.883   3.046 -0.3910 -0.1417  0.1510
 5433W        W20902   5.575  15.817  10.693  0.0053 -0.0590  0.0409
 5434W        W20903   8.803  15.561   4.228 -0.3635 -0.1484 -0.1842
 5435W        W20904  15.197  12.169   0.111  0.1190 -0.0744 -0.3332
 5436W        W20905   8.268   3.710   2.286 -0.0700 -0.0800  0.0294
 5437W        W20906  15.800  11.875   0.700 -0.1007 -0.3740 -0.2738
 5438W        W20907  15.602  16.488  15.458  0.2081 -0.2521 -0.3429
 5439W        W20908   5.538   6.754  10.809 -0.0109 -0.1446 -0.0326
 5440W        W20909   2.934  13.118   0.310 -0.1649  0.3964  0.4201
 5441W        W20910  17.362   0.774  11.669  0.0695 -0.2341 -0.1843
 5442W        W20911  12.965  13.107  11.738  0.1031 -0.3189 -0.1453
 5443W        W20912   0.428   3.282  11.480 -0.3455 -0.0857  0.0897
 5444W        W20913  11.415  10.240  10.024 -0.1518  0.4071  0.0745
 5445W        W20914  11.578   9.969   3.490 -0.2836 -0.0268  0.3603
 5446W        W20915  10.973   3.672   1.919  0.0422  0.1746  0.4151
 5447W        W20916   4.280  15.478   0.573  0.2156  0.1916  0.0426
 5448W        W20917   5.823   7.911  12.512  0.0588 -0.1109  0.2473
 5449W        W20918  17.640  16.256   4.310  0.0996 -0.0538 -0.2734
 5450W        W20919   9.709   3.391  12.273  0.1174 -0.1095 -0.2262
 5451W        W20920   1.861  11.734  10.799  0.0393  0.0170 -0.0056
 5452W        W20921   3.472   9.241  13.816 -0.1135  0.3209  0.0424
 5453W        W20922  10.781  14.220  10.978  0.2435  0.1882  0.1955
 5454W        W20923   9.140   6.984  12.938 -0.0461  0.2035  0.0362
 5455W        W20924  10.854   7.856   2.513  0.1143 -0.0630  0.0051
 5456W        W20925  14.822  17.066  10.213 -0.1644  0.0560  0.0651
 5457W        W20926   5.772   6.256   2.283  0.4323 -0.1133  0.0245
 5458W        W20927   4.000  12.886   0.321  0.1128  0.0806  0.0168
 5459W        W20928  16.245  16.074   4.450  0.0463 -0.0001 -0.0744
 5460W        W20929  16.607  12.097  13.547  0.1441  0.1075  0.1598
 5461W        W20930  12.788  11.309   3.188  0.2497 -0.1813  0.1449
 5462W        W20931   3.292  10.592   1.700 -0.0854 -0.2707  0.1878
 5463W        W20932   6.846  16.921   4.605 -0.2740  0.1272  0.0181
 5464W        W20933   7.883  18.424   1.352 -0.0383  0.1532 -0.1341
 5465W        W20934  14.908   7.540  13.281 -0.0446 -0.1321  0.2264
 5466W        W20935  17.596   2.305   4.341 -0.2821 -0.0846  0.0740
 5467W        W20936   7.907   3.443  13.664 -0.0289  0.3674  0.3182
 5468W        W20937   9.641   0.645  11.582  0.2277  0.0213  0.1174
 5469W        W20938  12.821  12.071  14.370  0.0639 -0.1658 -0.0383
 5470W        W20939   5.442  15.755   1.229  0.0138 -0.2519 -0.0672
 5471W        W20940  15.914  10.972   0.416 -0.3282  0.0538 -0.3110
 5472W        W20941   3.093   0.358  13.526  0.0680 -0.0841  0.1817
 5473W        W20942   4.815  13.421   0.053 -0.2823  0.3880 -0.0238
 5474W        W20943  11.055   5.018  11.861 -0.0246  0.3312  0.2905
 5475W        W20944  12.598  12.670  12.058  0.0566  0.3470  0.0364
 5476W        W20945   4.949  16.301  12.222  0.0599  0.3124 -0.2799
 5477W        W20946   6.013   5.340   3.752 -0.4772  0.0218 -0.3736
 5478W        W20947  18.412  12.241   5.165 -0.1186 -0.1173 -0.2942
 5479W        W20948   1.134   1.651  11.129  0.2815 -0.0948 -0.0390
 5480W        W20949   2.687  14.062   2.265 -0.0023 -0.1549 -0.0835
 5481W        W20950  12.344  13.946  14.434 -0.0959  0.2402  0.0708
 5482W        W20951  13.578   1.971  13.360  0.0914  0.0072  0.0380
 5483W        W20952   6.752  16.827  11.089  0.2419 -0.1449  0.0355
 5484W        W20953  13.885  12.022  15.327  0.1934 -0.2371 -0.2068
 5485W        W20954  11.967  18.149  10.107  0.1045  0.1354  0.2104
 5486W        W20955  17.575  11.267  12.600 -0.0617 -0.3665 -0.2009
 5487W        W20956  16.279   8.584   0.360  0.2399  0.3789 -0.1842
 5488W        W20957  14.362  11.079   1.515  0.2668 -0.0490  0.2004
 5489W        W20958  13.277  10.948   2.342 -0.0125  0.1638 -0.0678
 5490W        W20959   0.765   1.388   3.331  0.0594 -0.5224 -0.0999
 5491W        W20960  13.918  10.454   2.883 -0.0346  0.0481 -0.1119
 5492W        W20961  10.152   9.195  14.601  0.0378  0.0735 -0.1972
 5493W        W20962  18.787   1.644   1.760 -0.1298  0.1182  0.0118
 5494W        W20963  11.613  11.958   2.310 -0.0529 -0.0711  0.3917
 5495W        W20964   2.208  12.591  11.235  0.0449  0.2044 -0.2799
 5496W        W20965   8.536   2.805   1.565 -0.3065 -0.1107  0.2016
 5497W        W20966   9.361  16.529   2.504 -0.2856 -0.2101 -0.2170
 5498W        W20967   9.452   3.682  12.925 -0.0637  0.1587 -0.1437
 5499W        W20968   6.267   2.756   3.461 -0.2978  0.1393 -0.0621
 5500W        W20969   5.068  13.212  13.130  0.1855  0.1558 -0.2266
 5501W        W20970   7.346   2.915   0.417  0.0013 -0.0572 -0.0773
 5502W        W20971   0.864  11.942   4.827 -0.3862  0.7203 -0.1342
 5503W        W20972   6.736   9.876   3.759 -0.3031 -0.0500 -0.2258
 5504W        W20973  10.816  13.716   4.284 -0.1023  0.2545  0.3412
 5505W        W20974   1.020   3.554   1.319 -0.3444  0.1525 -0.6384
 5506W        W20975  13.842  10.678   3.416  0.0724 -0.0087  0.1672
 5507W        W20976  12.643   1.734  13.228 -0.1171  0.0807 -0.0109
 5508W        W20977   8.917   6.894  11.769 -0.1440  0.0677 -0.0489
 5509W        W20978   9.908  18.654   0.872 -0.0001 -0.2992 -0.1159
 5510W        W20979  15.843  15.042  15.486  0.2725 -0.0515 -0.0533
 5511W        W20980   7.479   1.125   1.622  0.1643 -0.1176 -0.1472
 5512W        W20981   5.775  15.169   9.682 -0.2150 -0.0061  0.3356
 5513W        W20982   0.083  10.800   0.966  0.1067 -0.0959  0.0545
 5514W        W20983   9.188   7.381  10.800  0.0617 -0.4158 -0.2231
 5515W        W20984   7.401   7.431  10.748  0.3069 -0.1635  0.4870
 5516W        W20985  18.753   0.185   2.050 -0.3452  0.3723 -0.0185
 5517W        W20986   1.034   7.484   1.206  0.2689 -0.3522 -0.2927
 5518W        W20987  12.779   2.337  12.513  0.0172  0.0715  0.1747
 5519W        W20988   1.318  14.632  14.534 -0.0367 -0.0281  0.1158
 5520W        W20989  14.032   0.746  12.719 -0.1673  0.0652  0.1140
 5521W        W20990   9.724  15.609   4.080  0.0041  0.1098 -0.0614
 5522W        W20991   2.119   5.841  15.177  0.0725 -0.1152  0.2973
 5523W        W20992  10.394   4.289   1.680  0.2108  0.3005 -0.0095
 5524W        W20993   5.781   6.161  13.373  0.1026  0.0049 -0.1856
 5525W        W20994   1.151  17.942   3.491 -0.1163 -0.1348  0.2064
 5526W        W20995  12.497  10.348  13.341 -0.0732  0.2421 -0.0242
 5527W        W20996  16.840  10.686   2.155  0.0006  0.2540 -0.2193
 5528W        W20997   3.508   6.410   3.974  0.0636 -0.0870 -0.0485
 5529W        W20998   7.286   7.844  13.513 -0.0218 -0.0970 -0.1351
 5530W        W20999   2.542  16.228  13.576  0.0402 -0.2269 -0.2237
 5531W        W21000  10.783   8.788   3.624 -0.0365 -0.1360  0.1379
 5532W        W21001   4.927  17.985   3.917 -0.3086 -0.3336 -0.1109
 5533W        W21002  16.304  18.137  10.488 -0.0900 -0.0586 -0.1984
 5534W        W21003   7.433  16.665  12.718  0.2937 -0.1132  0.0057
 5535W        W21004   6.592  14.136   0.566  0.1112  0.1090  0.0083
 5536W        W21005  15.275   6.880   3.291 -0.1325  0.1092  0.3690
 5537W        W21006   3.392  10.838   2.119  0.1077  0.0836  0.1528
 5538W        W21007  11.043   4.065  11.833  0.2691  0.0846  0.0108
 5539W        W21008  13.797   2.405  13.228  0.0934  0.1370  0.4578
 5540W        W21009  17.561  11.955  15.331  0.0075  0.0400  0.2548
 5541W        W21010  14.513  16.724   3.063  0.1154  0.0918 -0.2008
 5542W        W21011  15.005  14.095  13.279  0.1447 -0.0330  0.1012
 5543W        W21012   7.876   2.102   3.561  0.1964  0.2299  0.1002
 5544W        W21013   5.349   8.470   2.147 -0.2068 -0.2524  0.3964
 5545W        W21014   4.795   8.579  10.491 -0.0049 -0.1384  0.0345
 5546W        W21015  10.135   3.474  13.342 -0.0910 -0.1513  0.1584
 5547W        W21016  13.824  18.537  11.782 -0.1568 -0.1527  0.0581
 5548W        W21017  13.018  16.793   4.478 -0.1707  0.3351 -0.0281
 5549W        W21018   8.062  18.174   1.825 -0.2699 -0.1034 -0.4425
 5550W        W21019   5.760   1.725  12.165 -0.2028 -0.1957 -0.1871
 5551W        W21020   1.138   9.594  12.378  0.0821  0.3361 -0.0699
 5552W        W21021   9.744   1.359  11.746  0.4069 -0.1417  0.0579
 5553W        W21022  12.737   8.968  11.238 -0.2422 -0.0038  0.1880
 5554W        W21023  11.399  13.710  12.718 -0.4063 -0.1741 -0.2576
 5555W        W21024   2.870   1.314   5.763  0.1291  0.0088  0.0932
 5556W        W21025  10.983  16.313   2.044 -0.1271 -0.0793  0.0996
 5557W        W21026   2.147  18.242   2.157 -0.3123 -0.1309  0.2686
 5558W        W21027  15.653   8.942   5.791  0.0682 -0.0217 -0.0259
 5559W        W21028  14.058   4.296   4.729 -0.3466 -0.2071 -0.0628
 5560W        W21029  11.474  18.175  13.408 -0.1461  0.1962 -0.2856
 5561W        W21030   6.164  11.495   1.645 -0.1547  0.2498  0.0385
 5562W        W21031  17.198   6.891  11.248  0.1601  0.0375  0.2149
 5563W        W21032  18.038   1.710   3.346 -0.1987 -0.2245 -0.1623
 5564W        W21033   6.712  15.156   5.048 -0.1704  0.1027 -0.4296
 5565W        W21034  17.117  16.327  13.522  0.0580 -0.1375 -0.1946
 5566W        W21035  16.986   7.995  15.003  0.3129  0.0075 -0.3159
 5567W        W21036   9.529   5.564  12.853  0.0905  0.0748 -0.1062
 5568W        W21037  18.673  13.234   4.652 -0.1235  0.3112  0.0558
 5569W        W21038   6.664   5.506   5.469 -0.1784 -0.2133 -0.2012
 5570W        W21039  11.457   1.453   1.349 -0.0376  0.1760 -0.0102
 5571W        W21040  18.186   1.872  11.124 -0.0118 -0.2419 -0.1132
 5572W        W21041   1.948   0.335  13.401 -0.3045 -0.3423 -0.0939
 5573W        W21042  11.202  12.921   1.012  0.3302 -0.2068  0.0662
 5574W        W21043  14.043   7.270  11.397 -0.2190  0.0111  0.1889
 5575W        W21044  11.543   0.508   3.964 -0.0528 -0.1488 -0.0546
 5576W        W21045  14.521  15.486   0.953 -0.2227  0.0316 -0.0781
 5577W        W21046  13.883  18.152  14.049 -0.0315 -0.2534  0.0269
 5578W        W21047   9.736  17.517   0.999  0.3151 -0.1470  0.1689
 5579W        W21048   1.367   2.247  13.997 -0.1963 -0.3151 -0.3245
 5580W        W21049   0.064  17.829   0.817  0.1318  0.1513 -0.0647
 5581W        W21050  18.054   4.609  14.153 -0.2409 -0.0932 -0.2711
 5582W        W21051   6.035  14.876  13.933 -0.1370  0.1587  0.3679
 5583W        W21052  10.237   6.924   2.777 -0.0875  0.1773  0.1930
 5584W        W21053   2.550   5.229   0.660 -0.3921  0.1115 -0.0769
 5585W        W21054  14.080  15.452   1.654  0.1416  0.4913 -0.0848
 5586W        W21055  15.483   7.632   5.005  0.1375 -0.3346 -0.0937
 5587W        W21056   9.356  16.679   3.330 -0.0190 -0.1095  0.2847
 5588W        W21057  14.846  14.457   4.303 -0.0351 -0.0103  0.2189
 5589W        W21058   7.682   8.096  13.380 -0.4580  0.3420 -0.0737
 5590W        W21059  14.866   8.559   5.257  0.0599 -0.1626  0.1709
 5591W        W21060  16.966  10.372   5.523  0.2005  0.3038 -0.0544
 5592W        W21061  12.696   0.680   1.730  0.2197  0.2136 -0.0433
 5593W        W21062  18.389  17.022  14.137  0.0852 -0.4156 -0.1788
 5594W        W21063   3.293  17.846   0.589  0.3168  0.2342  0.3089
 5595W        W21064   5.338  15.264   2.942  0.2010 -0.1312 -0.0004
 5596W        W21065   4.778  10.327  11.158 -0.2327 -0.1603 -0.0710
 5597W        W21066  18.926  14.817   0.184 -0.3245  0.3838 -0.0677
 5598W        W21067  16.603   5.677   1.478  0.2042  0.0197  0.0787
 5599W        W21068   5.442  16.983  11.514 -0.3139 -0.1454 -0.3379
 5600W        W21069  12.098  10.639   2.524 -0.3235 -0.1502  0.0264
 5601W        W21070   5.798   9.623   4.778 -0.1461  0.0559 -0.2008
 5602W        W21071   9.096   9.170  13.050 -0.3617 -0.0448  0.1600
 5603W        W21072  11.523  17.586   2.480  0.3037  0.0481 -0.1037
 5604W        W21073   1.503  12.693   0.872 -0.3643 -0.1042 -0.3001
 5605W        W21074   9.464   4.517   2.194 -0.3833 -0.1485  0.0300
 5606W        W21075   9.958  10.509   0.196  0.1057  0.0983  0.1438
 5607W        W21076   5.689   9.117   4.668 -0.0152 -0.4182  0.0040
 5608W        W21077   5.502  12.775  14.986  0.0332 -0.1458  0.2469
 5609W        W21078   9.788   6.324  11.436 -0.0351 -0.1418 -0.2484
 5610W        W21079   2.235  15.580  10.453 -0.0963 -0.1596 -0.0598
 5611W        W21080   5.585   4.840  13.380 -0.0965 -0.0576  0.3509
 5612W        W21081  12.581   9.975  13.719 -0.3576 -0.0686  0.1603
 5613W        W21082  15.339   4.263   1.809  0.2694  0.0005  0.1146
 5614W        W21083   3.830  11.721   0.250 -0.5534 -0.3748 -0.1044
 5615W        W21084  16.032   5.990   2.629 -0.0521  0.1383  0.1767
 5616W        W21085  17.609  11.213   2.993  0.1537  0.1417  0.0033
 5617W        W21086  10.820  14.025   1.695 -0.0182 -0.1660  0.1117
 5618W        W21087   7.921   8.960  10.950  0.1546  0.1190 -0.2120
 5619W        W21088  12.555  12.272   3.069 -0.2060 -0.2843  0.0172
 5620W        W21089   3.582  13.745   1.332 -0.3319  0.0363  0.1648
 5621W        W21090  14.184   0.737   3.809 -0.0076 -0.0390  0.0703
 5622W        W21091  12.478   1.028  14.499 -0.3852 -0.2659 -0.1639
 5623W        W21092  11.175   5.048  14.375  0.1100 -0.1017 -0.6592
 5624W        W21093  12.405  15.689  15.244  0.5634  0.0154  0.0053
 5625W        W21094   9.503  18.720  10.918 -0.2976 -0.0091  0.2638
 5626W        W21095  10.658  15.868  12.278  0.0447 -0.0439  0.0047
 5627W        W21096  10.665   3.172  12.443  0.1939  0.3329 -0.2945
 5628W        W21097  11.160   2.460  15.491  0.0093 -0.1605 -0.1948
 5629W        W21098  12.016   9.378   2.890  0.2333 -0.2713  0.0472
 5630W        W21099   4.286  13.820  13.466 -0.0723 -0.1106  0.0753
 5631W        W21100   7.345  16.977  12.329 -0.2407  0.0231 -0.1919
 5632W        W21101  15.845  12.406   4.084 -0.0969  0.1513  0.0704
 5633W        W21102  16.624  10.730   5.883 -0.1477 -0.3299  0.0430
 5634W        W21103  16.028   3.452   3.228 -0.0456  0.4584  0.2763
 5635W        W21104   4.425  11.234  11.733  0.0473  0.0259  0.0863
 5636W        W21105   8.175   4.596   3.516  0.0870  0.0909  0.1283
 5637W        W21106   8.755  10.798   4.289 -0.0621 -0.0463 -0.2288
 5638W        W21107   6.293   6.221  11.837 -0.1287  0.2034 -0.1786
 5639W        W21108  12.134   4.827   3.954 -0.1702  0.2476  0.0039
 5640W        W21109  18.051   8.928   2.536  0.2204  0.1633  0.2278
 5641W        W21110   2.265  13.410  12.645 -0.1371 -0.2072  0.1865
 5642W        W21111  17.709   7.629   4.580  0.1572  0.0351 -0.0621
 5643W        W21112   4.732   5.532  10.637  0.4121 -0.1336  0.2346
 5644W        W21113   6.341   7.161  13.356  0.2823  0.1412 -0.0916
 5645W        W21114   6.182  14.869   0.856  0.1334 -0.1535  0.1028
 5646W        W21115  11.452  12.371   2.473 -0.1660 -0.2944 -0.1974
 5647W        W21116  16.303  13.449  13.919 -0.0018 -0.4436 -0.0365
 5648W        W21117  14.572   8.159   2.810 -0.1523  0.0796  0.3325
 5649W        W21118  15.094   7.582  10.497  0.3505  0.0689 -0.2000
 5650W        W21119   9.511  15.985   0.446 -0.1017  0.3648 -0.0205
 5651W        W21120  13.291  15.121   5.010  0.1729 -0.2482  0.0405
 5652W        W21121  17.234  17.763  15.045  0.1538  0.1568 -0.0596
 5653W        W21122  18.255   5.798   0.277 -0.0693 -0.1275 -0.3240
 5654W        W21123   3.916  15.553  13.841  0.3142 -0.2793  0.1733
 5655W        W21124  11.917   0.761  12.907 -0.2301 -0.0042  0.3834
 5656W        W21125   6.490  17.008   0.582 -0.0640  0.0650 -0.0208
 5657W        W21126  17.810   3.646   0.599  0.2344 -0.3914 -0.3150
 5658W        W21127   9.796   5.428   3.503 -0.0237 -0.3452  0.3406
 5659W        W21128  17.424  16.037  12.054 -0.3254  0.1345 -0.3188
 5660W        W21129   2.923   8.462   0.606 -0.0316 -0.2066 -0.1313
 5661W        W21130   5.008  13.034  13.944  0.0432  0.1424  0.3021
 5662W        W21131   1.414   9.822  13.346 -0.0768 -0.0338 -0.1608
 5663W        W21132  18.776  12.335  12.915  0.0178  0.2277 -0.1918
 5664W        W21133  14.678   0.053   0.643 -0.2125  0.1808  0.0373
 5665W        W21134  12.330   8.447   3.736 -0.0835 -0.2083  0.1624
 5666W        W21135   4.617  18.139   0.805 -0.0840  0.0417 -0.0182
 5667W        W21136   6.907   3.366  15.140 -0.1172 -0.1376  0.2172
 5668W        W21137  14.014  12.544  13.954 -0.0527  0.2425 -0.1376
 5669W        W21138  13.411  10.133  14.538  0.2265 -0.3017 -0.3398
 5670W        W21139  16.012  16.233   2.750  0.1805  0.0727  0.2569
 5671W        W21140   7.354  17.522  12.117 -0.1512 -0.1518 -0.1174
 5672W        W21141  13.405   2.986  13.832 -0.0620 -0.0981 -0.4293
 5673W        W21142   2.973  10.081  14.229 -0.1089  0.0471 -0.0698
 5674W        W21143  15.948  13.834   4.545 -0.1929  0.0795 -0.0424
 5675W        W21144  15.175   6.396  14.569 -0.0535  0.0923 -0.1351
 5676W        W21145  13.964   8.054   3.555  0.0542  0.0414  0.4983
 5677W        W21146   3.920   2.249  10.951 -0.1958  0.2557 -0.0852
 5678W        W21147   8.786  15.959  13.691 -0.0514  0.2364 -0.0597
 5679W        W21148  18.630  10.233  11.298  0.0623  0.0193 -0.0900
 5680W        W21149   2.211   2.533   3.538  0.1350  0.1720 -0.3873
 5681W        W21150  11.638   8.757   0.046  0.1843  0.3336  0.3404
 5682W        W21151   2.452  16.479  13.996  0.1135 -0.3608 -0.2613
 5683W        W21152   9.887  14.856   1.049  0.0112 -0.4016  0.1066
 5684W        W21153   7.438   7.639   9.923  0.0336  0.2588  0.1379
 5685W        W21154  14.686   2.254   3.226 -0.0533 -0.3176  0.0620
 5686W        W21155  16.501   3.041   4.077 -0.0991  0.0017 -0.1180
 5687W        W21156  17.452  15.946   1.567 -0.1056  0.2605  0.0927
 5688W        W21157  17.420   2.834   2.758 -0.0323 -0.0113  0.0967
 5689W        W21158  15.750   0.453  10.596  0.0956  0.0313 -0.1693
 5690W        W21159   7.201  18.461   4.098 -0.1822  0.0696 -0.0542
 5691W        W21160  18.039  12.244   2.631  0.2137  0.3574  0.0390
 5692W        W21161   3.012   5.851  12.455  0.3837  0.2596  0.1881
 5693W        W21162  17.870   5.764   4.291  0.1234  0.2030  0.3824
 5694W        W21163  15.205   8.478  14.216  0.1518  0.0076 -0.0667
 5695W        W21164  10.545  16.064  14.827 -0.0774 -0.1819 -0.0962
 5696W        W21165   5.334   3.246   2.126 -0.0243  0.2787 -0.2979
 5697W        W21166   2.184  12.177   4.376 -0.1430 -0.1663  0.3963
 5698W        W21167  10.985  17.763  11.691  0.2844  0.1965 -0.2135
 5699W        W21168  11.940  15.180   2.585  0.0645 -0.4683  0.2244
 5700W        W21169  12.050   2.183  13.768 -0.0807 -0.1643  0.0585
 5701W        W21170  16.948  13.611  12.830 -0.0495 -0.0062 -0.5319
 5702W        W21171  14.209  13.191  14.805 -0.2751 -0.1395  0.1657
 5703W        W21172  13.455   6.118   1.980  0.0187  0.2552 -0.3258
 5704W        W21173   9.177  10.725  13.399 -0.0205 -0.1959  0.0608
 5705W        W21174   3.834  11.190   5.932  0.0858 -0.1002 -0.0081
 5706W        W21175  13.079   0.138  10.683 -0.1218 -0.0806 -0.0055
 5707W        W21176   5.105   5.285  12.434 -0.3947 -0.0812  0.0093
 5708W        W21177  10.050   3.697   0.987 -0.0557 -0.0860 -0.1199
 5709W        W21178  17.802   7.680   1.441  0.2277  0.1560 -0.0981
 5710W        W21179   2.030  16.308   1.085  0.2204 -0.1127 -0.0229
 5711W        W21180  14.026   0.936   1.413 -0.0028  0.1040 -0.1102
 5712W        W21181   2.442  10.874  12.794  0.0029  0.1557 -0.1993
 5713W        W21182   0.730  16.713   5.307 -0.0075 -0.4262  0.1210
 5714W        W21183   3.169   3.089  11.288 -0.0247 -0.1242  0.0520
 5715W        W21184   5.120   8.012   2.399  0.1421 -0.1034 -0.1767
 5716W        W21185   9.254   8.986   3.415 -0.0872  0.0419  0.1640
 5717W        W21186  14.985   8.030  13.394 -0.0763  0.0277  0.5070
 5718W        W21187   3.969  18.856   3.732  0.3092 -0.0700  0.1078
 5719W        W21188   3.550  18.613  11.736 -0.1173 -0.1519 -0.0586
 5720W        W21189   3.085   7.915  14.769  0.0703 -0.4528 -0.1467
 5721W        W21190  16.821   5.442   4.129 -0.0283 -0.0240  0.2170
 5722W        W21191  10.936  17.997  12.585 -0.1302  0.1672 -0.0806
 5723W        W21192   6.526   0.946  15.168  0.3819 -0.0823 -0.3086
 5724W        W21193  13.815  15.151  12.653 -0.1711 -0.2736  0.0350
 5725W        W21194  10.219  13.736  13.371  0.4921 -0.1720 -0.1657
 5726W        W21195   2.759  10.083   5.308  0.1776  0.1935  0.1193
 5727W        W21196   8.019  18.526  11.080 -0.3396  0.0291 -0.1256
 5728W        W21197  15.436  10.011   0.297 -0.4633  0.0686 -0.0197
 5729W        W21198  15.104  14.478  13.618  0.0652  0.1097  0.1914
 5730W        W21199  15.423  17.946   4.883 -0.0004  0.1602  0.0805
 5731W        W21200  17.905   4.578   3.400 -0.1585  0.1030  0.3828
 5732W        W21201   6.720  12.123   1.756 -0.2388  0.1168  0.0604
 5733W        W21202  14.294  14.541   3.513  0.0337  0.3243 -0.1812
 5734W        W21203   1.837   0.464  11.426  0.3099 -0.2314  0.1687
 5735W        W21204  15.189  10.628   2.568 -0.2760  0.0510  0.0147
 5736W        W21205  17.576   3.649   1.924 -0.0302 -0.2271 -0.0701
 5737W        W21206  11.054  18.089  13.865 -0.1686  0.0483 -0.0086
 5738W        W21207   8.997   5.081   3.069  0.0512 -0.0161 -0.1388
 5739W        W21208   4.939   0.345   2.764 -0.1782 -0.1206 -0.1587
 5740W        W21209   5.154   8.164   3.383  0.2695 -0.2059 -0.1825
 5741W        W21210   2.578  18.848  13.994 -0.1904 -0.1409 -0.1120
 5742W        W21211  15.008  18.579   4.269  0.3736  0.0494  0.0915
 5743W        W21212   1.176  10.850  11.177 -0.1542  0.5089  0.0543
 5744W        W21213   6.054   2.292  15.301 -0.0680 -0.3565  0.0243
 5745W        W21214   0.295  12.936  14.457  0.0346  0.1444 -0.1702
 5746W        W21215   3.290   9.746  12.978 -0.0575 -0.0045 -0.1237
 5747W        W21216   8.771  10.657   0.318 -0.1448 -0.1528 -0.2669
 5748W        W21217  11.016   8.560   4.607 -0.3089 -0.1767  0.1047
 5749W        W21218   4.728  16.190   0.416  0.1038  0.2924 -0.0690
 5750W        W21219  13.803   4.365  10.394  0.1902  0.0416  0.2182
 5751W        W21220   0.979   2.521  11.944 -0.1188 -0.2702 -0.0950
 5752W        W21221  17.273  17.249  13.648  0.1392 -0.0347  0.1005
 5753W        W21222   3.095  14.719   3.342 -0.4196 -0.2466  0.0492
 5754W        W21223  13.811   9.835  13.167  0.0358 -0.0043  0.1212
 5755W        W21224   3.684  12.985   3.798 -0.0936  0.3172 -0.2403
 5756W        W21225  15.540  17.635   2.705 -0.0222 -0.2993  0.1653
 5757W        W21226  18.635  12.825   4.367 -0.0492  0.3209  0.1330
 5758W        W21227   5.629   4.922   3.650  0.0387  0.1866 -0.0974
 5759W        W21228   0.687  12.889   0.615 -0.1725  0.2253 -0.0356
 5760W        W21229   9.749   5.099   2.939  0.0351  0.0808 -0.1654
 5761W        W21230   8.564  17.947  11.627 -0.0812 -0.2240  0.2383
 5762W        W21231   2.888   0.968   0.593  0.1506  0.0013  0.1760
 5763W        W21232   6.160   5.703   4.144  0.0708  0.3000  0.1079
 5764W        W21233  17.532   1.800   1.815  0.0194  0.0331  0.1524
 5765W        W21234  12.939   8.108   2.537 -0.2784  0.2663 -0.2161
 5766W        W21235  13.003  18.322  13.611  0.0340 -0.0504  0.2725
 5767W        W21236   7.703  17.612   3.712  0.1637 -0.0903 -0.0732
 5768W        W21237   7.288   8.027   1.820  0.1225  0.2110 -0.1923
 5769W        W21238   0.726  10.934   0.047 -0.2076  0.1739 -0.1140
 5770W        W21239  14.498   6.261  11.549  0.1169 -0.0710 -0.0830
 5771W        W21240  16.428  17.323   3.253 -0.1384 -0.2095 -0.0067
 5772W        W21241   2.822  16.821  13.012  0.3134 -0.0866 -0.0003
 5773W        W21242  18.346   1.176  14.195 -0.2289  0.2097  0.0510
 5774W        W21243   9.249   3.981  12.569 -0.1060  0.1772  0.0842
 5775W        W21244  12.539  16.293  13.191 -0.0874  0.1489  0.1762
 5776W        W21245  10.489   2.347  10.414  0.0751  0.2155  0.0653
 5777W        W21246   0.377   1.018   4.701 -0.1453  0.0664  0.2538
 5778W        W21247   9.599   8.558  14.817 -0.2218  0.0805  0.0150
 5779W        W21248   8.998   9.154  15.456  0.0850  0.1508  0.0442
 5780W        W21249   0.547   8.753   2.934 -0.1928  0.1371 -0.2719
 5781W        W21250  12.692  14.005  11.798  0.2768  0.4497  0.4278
 5782W        W21251   2.824   9.152   1.449  0.2983  0.0418  0.2884
 5783W        W21252   5.829  17.980   1.284 -0.2180  0.0419  0.0005
 5784W        W21253   5.423  11.812   1.629 -0.1830  0.3039 -0.2959
 5785W        W21254   4.886   7.240  12.922  0.0400  0.1328  0.0573
 5786W        W21255  16.225  12.379   3.704  0.0731 -0.2635 -0.2272
 5787W        W21256  14.083  12.747   3.006  0.1084 -0.0449  0.0921
 5788W        W21257  12.503   4.333   2.077  0.2713  0.0191 -0.1436
 5789W        W21258   1.280   9.298  14.271 -0.3038 -0.3945 -0.0096
 5790W        W21259   0.286  15.281  13.804  0.0661  0.2248 -0.2304
 5791W        W21260   0.700  17.523   4.643  0.3080  0.3223 -0.0052
 5792W        W21261  18.644  18.346  11.887  0.1901  0.3239 -0.0827
 5793W        W21262   6.507  10.540   2.180  0.0407  0.2637 -0.0975
 5794W        W21263   4.255  17.556   1.479 -0.0462  0.2001  0.0605
 5795W        W21264  11.655   4.235   3.149  0.0564  0.1630 -0.0453
 5796W        W21265  15.348   9.875   2.281  0.0027 -0.0316  0.2949
 5797W        W21266  11.147  11.918  14.936  0.2293  0.1010 -0.3178
 5798W        W21267   9.009   6.104  12.846 -0.2780 -0.1229  0.1707
 5799W        W21268  15.025   6.905   1.006  0.2954  0.6268  0.0584
 5800W        W21269   6.405   2.530  14.183  0.1802 -0.2696 -0.0314
 5801W        W21270   1.892   7.621  15.038 -0.0589 -0.2034  0.2358
 5802W        W21271  16.481   8.397  11.561  0.1607  0.2678  0.0109
 5803W        W21272  10.660  13.359  10.554 -0.1992 -0.1572  0.0069
 5804W        W21273  14.142   8.368   4.618 -0.0792 -0.0362  0.1094
 5805W        W21274   2.904  14.862  13.533  0.0158 -0.1040 -0.1195
 5806W        W21275   2.909  14.873  14.912  0.0868  0.3712 -0.1646
 5807W        W21276  10.289   7.671   3.617 -0.0186 -0.0336  0.2735
 5808W        W21277  12.993   3.157   3.211  0.1408 -0.3217  0.1147
 5809W        W21278  18.287  15.179   3.958 -0.2308  0.1128  0.0873
 5810W        W21279  14.789  13.081   3.822  0.2417 -0.5873  0.0763
 5811W        W21280  16.098   1.534  13.018  0.0729 -0.0692  0.0538
 5812W        W21281  10.741  11.614  12.966  0.0009  0.2848 -0.3369
 5813W        W21282   9.562  11.011  12.616 -0.1641 -0.2354  0.2057
 5814W        W21283  12.078   7.141   3.449 -0.0094  0.1433 -0.0306
 5815W        W21284  14.778   5.805   0.400  0.1533 -0.1018 -0.2198
 5816W        W21285  12.090   0.980   0.142 -0.2921 -0.0413  0.1076
 5817W        W21286   4.827   1.988  14.946  0.2396  0.0697  0.0480
 5818W        W21287   5.475  14.483  13.592  0.1284 -0.3734  0.1081
 5819W        W21288   3.689   9.546   5.357 -0.0491 -0.2695 -0.2023
 5820W        W21289  13.841   0.360   0.438  0.1595 -0.0910  0.0238
 5821W        W21290   7.115   7.322   4.230 -0.1974  0.1434 -0.2253
 5822W        W21291   0.130  11.796  15.379 -0.2231  0.3367  0.0062
 5823W        W21292   7.163   7.525  11.776 -0.0172 -0.0886  0.3369
 5824W        W21293   4.341   0.524   4.257  0.2807 -0.0796 -0.5806
 5825W        W21294   3.024  12.662   0.690  0.0618 -0.3705 -0.3843
 5826W        W21295   8.425  12.501   4.078  0.1710 -0.1124 -0.0744
 5827W        W21296  14.965   3.749  10.666 -0.0671 -0.4057 -0.0574
 5828W        W21297  15.453  16.100  13.977 -0.0225 -0.1644 -0.0445
 5829W        W21298  12.013  13.593   0.756 -0.1074 -0.4414  0.2208
 5830W        W21299  18.886   5.850  14.486  0.0843 -0.0453  0.1072
 5831W        W21300   9.578   5.978  14.813 -0.2586 -0.0555 -0.2877
 5832W        W21301  17.341  13.810   4.473 -0.0558 -0.2325 -0.0659
 5833W        W21302   4.318  13.254  13.421 -0.2609 -0.1721  0.0302
 5834W        W21303  13.790  12.832   1.215  0.0634 -0.0560  0.0893
 5835W        W21304   3.487   2.915  11.715 -0.4212  0.2213  0.0530
 5836W        W21305   7.708   7.694   3.719  0.1798  0.0835 -0.4006
 5837W        W21306   3.741   9.137   4.937 -0.3807  0.0956 -0.1577
 5838W        W21307   9.680  10.558   1.512  0.0522  0.1431 -0.2196
 5839W        W21308   1.394   4.535  12.916  0.3951  0.2014  0.0948
 5840W        W21309   8.870  17.105  12.957  0.2746  0.0552  0.2365
 5841W        W21310   6.462   3.592  10.869 -0.2815 -0.2793 -0.1570
 5842W        W21311  12.360  18.865  10.336  0.2223  0.0685 -0.0186
 5843W        W21312  10.667  10.175  13.074 -0.1659 -0.4058  0.1029
 5844W        W21313  18.568  10.386   2.038  0.0908 -0.0568 -0.1677
 5845W        W21314   4.202   2.833   1.684  0.0345  0.0142  0.1857
 5846W        W21315   1.178   8.546   4.254  0.1265 -0.1139  0.1773
 5847W        W21316   1.884   7.125  14.798 -0.2201  0.0953  0.3202
 5848W        W21317  13.649  16.691  12.610  0.0501  0.5073 -0.0045
 5849W        W21318  11.973   3.083  10.772  0.0961  0.0975  0.1980
 5850W        W21319  16.973   0.186   4.942  0.2361  0.0203 -0.0648
 5851W        W21320  12.954  16.651   3.101  0.1615  0.3238  0.2904
 5852W        W21321  17.967   2.065  14.193  0.0400 -0.3417 -0.4219
 5853W        W21322   2.323   2.893  14.183  0.3075  0.0118  0.0836
 5854W        W21323   7.077  13.544   5.789 -0.1756 -0.0605 -0.0356
 5855W        W21324   5.760   8.283   5.797  0.0718 -0.0740 -0.1116
 5856W        W21325  10.557  12.420  13.730  0.0217  0.2220  0.1622
 5857W        W21326   5.404   5.641   4.587 -0.1143  0.0072  0.3975
 5858W        W21327  15.008   3.752   9.688 -0.0118  0.1003 -0.2037
 5859W        W21328   9.160   1.108  12.045 -0.2407  0.0649  0.1290
 5860W        W21329   0.258   1.427   3.388 -0.0626  0.0162  0.0303
 5861W        W21330  14.524  18.899   9.762  0.0061 -0.0406 -0.0569
 5862W        W21331  13.259   5.143   4.445 -0.0616  0.0492 -0.0397
 5863W        W21332   6.197   2.046   3.878 -0.4156 -0.0049 -0.0307
 5864W        W21333   5.743   4.539   3.019  0.2209  0.0781  0.1286
 5865W        W21334   2.189  12.091  13.492 -0.3687  0.1375 -0.2244
 5866W        W21335  11.596   5.411   0.140 -0.1805 -0.1910 -0.3374
 5867W        W21336  18.625   7.896   5.027 -0.2554  0.1701  0.3145
 5868W        W21337   1.871   4.567  10.784 -0.1544  0.1392  0.0563
 5869W        W21338   4.015   4.621  12.175 -0.0606  0.0547  0.0442
 5870W        W21339  16.954   7.949  11.973 -0.2181  0.0513  0.0611
 5871W        W21340  12.590   6.534   3.344  0.0394 -0.1763 -0.2821
 5872W        W21341   2.903   9.489  11.899 -0.3133 -0.0750  0.3564
 5873W        W21342   9.638   3.130   3.477  0.1900  0.0953  0.2874
 5874W        W21343   5.184  15.872  12.086 -0.2689 -0.1661 -0.1427
 5875W        W21344   7.303  14.563  13.606  0.2568  0.1174  0.1073
 5876W        W21345  16.354   6.463  11.881  0.0421  0.2972  0.1180
 5877W        W21346  18.501   0.188  10.978 -0.1734  0.1605 -0.0157
 5878W        W21347   0.085  18.032  14.400 -0.2175  0.0092 -0.0557
 5879W        W21348  17.735   5.546   4.981 -0.0948 -0.3681  0.2323
 5880W        W21349   4.693   9.721  13.619 -0.1329 -0.0570  0.4665
 5881W        W21350   1.637  18.210   5.364  0.1226 -0.1657 -0.0230
 5882W        W21351   6.975   9.156   4.475 -0.0893 -0.0958 -0.1193
 5883W        W21352   7.683   9.231  11.746  0.4018  0.2134  0.0794
 5884W        W21353   7.695  10.952  13.550  0.0513 -0.0711 -0.2371
 5885W        W21354   2.163  16.956   4.350 -0.0084 -0.1655  0.1926
 5886W        W21355   0.668  15.692  15.256 -0.0381  0.0387  0.2399
 5887W        W21356   7.583   4.250   0.643 -0.1121 -0.2590  0.1144
 5888W        W21357  18.097   4.349   1.768 -0.4796 -0.2235  0.0969
 5889W        W21358  12.607   4.771  11.140  0.0911 -0.3831  0.0876
 5890W        W21359  13.566   0.292   0.906 -0.0439 -0.2336  0.0242
 5891W        W21360   4.514  14.351   2.350 -0.1192 -0.1486 -0.0781
 5892W        W21361   1.161   9.496   0.587 -0.3737 -0.1562  0.3502
 5893W        W21362  14.200  17.331  13.651 -0.1222 -0.1249 -0.0690
 5894W        W21363  14.545  17.606   4.579 -0.0368 -0.0848  0.0632
 5895W        W21364  17.043   2.047   4.111  0.1951  0.2932 -0.0048
 5896W        W21365   7.174  12.193   9.638  0.0487 -0.0564 -0.2807
 5897W        W21366   4.066   6.872  12.894 -0.1397  0.0409  0.1393
 5898W        W21367   4.630   3.694  11.057 -0.2532  0.0560  0.0170
 5899W        W21368   6.949  11.619  10.427  0.0912 -0.2994  0.1345
 5900W        W21369  18.406  18.925  14.005 -0.1099  0.0838  0.3354
 5901W        W21370   7.824   8.036   2.086 -0.0040 -0.2361 -0.2442
 5902W        W21371   3.497   4.782  12.301  0.0014 -0.1370 -0.0303
 5903W        W21372  16.856   4.751   0.488 -0.0165  0.1031 -0.2224
 5904W        W21373   8.701  18.821   0.128 -0.0362 -0.1504  0.0741
 5905W        W21374   4.539   7.429   2.725 -0.0968  0.1127  0.2302
 5906W        W21375  15.727   6.753  12.633 -0.1996 -0.2323 -0.0931
 5907W        W21376   9.727   3.968  12.609  0.2514 -0.0768  0.0436
 5908W        W21377  10.324   7.224  12.622  0.1793 -0.3412 -0.1105
 5909W        W21378   8.666   7.114  10.159 -0.2468  0.2195  0.2355
 5910W        W21379  17.876  17.027   5.065  0.1468  0.0120  0.2200
 5911W        W21380   8.650  14.757  13.008  0.1891  0.2257  0.0413
 5912W        W21381  11.176   8.141  15.272  0.0360  0.4504  0.1486
 5913W        W21382  13.202   0.979   4.775  0.1357 -0.0876 -0.1385
 5914W        W21383  14.147   9.549  15.447 -0.0022 -0.1169  0.3572
 5915W        W21384  11.883  17.744  15.218 -0.1531  0.0705  0.1520
 5916W        W21385   7.923  15.914   1.396  0.2794 -0.1807 -0.1730
 5917W        W21386  16.062   3.271  14.003  0.1287 -0.1449 -0.0222
 5918W        W21387  14.171  10.671   1.766  0.1305 -0.2590 -0.1186
 5919W        W21388   4.531   7.400  10.942  0.1178  0.0068 -0.0986
 5920W        W21389  13.542  10.024   5.478  0.2510 -0.1351 -0.1392
 5921W        W21390  11.687   5.792   0.978  0.0067  0.1619  0.0267
 5922W        W21391   0.842   8.674   5.147  0.0375 -0.0600 -0.2138
 5923W        W21392   6.490   7.176   3.107  0.0270  0.3293  0.0155
 5924W        W21393   6.896   6.237   2.824 -0.1388  0.0496  0.1521
 5925W        W21394   0.942  17.541   0.761 -0.4725 -0.1323 -0.1519
 5926W        W21395  16.745   2.698   0.294 -0.0493  0.1121  0.2922
 5927W        W21396  17.875  17.429   2.949  0.0666  0.1143 -0.1002
 5928W        W21397  15.895   6.042   1.313 -0.4349  0.2016  0.2327
 5929W        W21398  14.491  11.298  10.252 -0.1393  0.2177  0.0490
 5930W        W21399   8.389  11.907  14.320  0.0547  0.0731 -0.0197
 5931W        W21400   5.928  16.306  15.030  0.0055 -0.1234 -0.3351
 5932W        W21401   1.985  17.784   4.325  0.2973  0.2620  0.1916
 5933W        W21402  17.076   8.852  10.149 -0.0307  0.1435 -0.2884
 5934W        W21403   7.799  17.069  15.496  0.1293  0.2032 -0.1147
 5935W        W21404   8.476   6.032  10.188 -0.1686 -0.0127  0.0042
 5936W        W21405   2.011  12.636   4.521 -0.1862 -0.1698  0.1275
 5937W        W21406  11.666   7.661  12.092 -0.1068  0.1389 -0.2041
 5938W        W21407  10.155   4.473   3.413  0.1334 -0.1368 -0.0292
 5939W        W21408   5.974  14.630  11.242  0.0740  0.2540  0.2705
 5940W        W21409   0.547  14.513   2.847  0.0282 -0.2881  0.0652
 5941W        W21410   5.242  16.798  10.887 -0.1553 -0.1649 -0.0497
 5942W        W21411  15.853   4.729  13.020  0.0536 -0.2353 -0.0792
 5943W        W21412   3.869  11.552  14.743  0.2123 -0.1798  0.1290
 5944W        W21413  10.483  15.757   0.507 -0.2053  0.0373  0.1102
 5945W        W21414  13.035   6.602   5.410  0.1106  0.0824  0.0038
 5946W        W21415  18.153   3.513  12.756  0.0037 -0.0836 -0.1062
 5947W        W21416  18.812  17.547  11.680  0.0212 -0.0495 -0.3471
 5948W        W21417  16.235   7.072   4.062 -0.0186 -0.1758 -0.2356
 5949W        W21418   7.560  16.731  10.664 -0.1931 -0.0326  0.1469
 5950W        W21419  12.096  18.824  12.301  0.0263  0.0480 -0.2638
 5951W        W21420  10.206   7.336   3.087 -0.0490 -0.0352 -0.2261
 5952W        W21421  17.271  10.763   2.342 -0.2617 -0.0882  0.0635
 5953W        W21422  12.902  13.118   1.949 -0.3584 -0.0919 -0.1161
 5954W        W21423  16.615   8.562   1.846  0.1154 -0.2099 -0.0417
 5955W        W21424   6.423   5.619   4.662 -0.1528  0.0113  0.0814
 5956W        W21425  15.053  11.412  15.068 -0.1239  0.1399 -0.1079
 5957W        W21426   1.203   9.803  10.126 -0.1632 -0.1277  0.0221
 5958W        W21427   8.804   5.987   5.035 -0.1799  0.0608  0.0065
 5959W        W21428  17.667   8.200   1.909  0.2190  0.0193  0.1153
 5960W        W21429   8.188  17.085  11.777 -0.0581  0.4950 -0.2835
 5961W        W21430  11.686  15.354  13.856  0.0672  0.1436 -0.3616
 5962W        W21431   7.291   0.866   2.742 -0.1793  0.0658  0.0915
 5963W        W21432   6.209  12.528  11.371 -0.0910 -0.0597 -0.1027
 5964W        W21433  17.023  17.909  11.169  0.3218  0.4590  0.2877
 5965W        W21434   8.638   2.596   4.551  0.0714  0.3058 -0.2299
 5966W        W21435  14.123   5.649  10.409  0.5521 -0.0275  0.0292
 5967W        W21436  10.441   3.515   4.564  0.2658 -0.1562 -0.0606
 5968W        W21437   1.969  17.591   1.472  0.0820 -0.0018  0.0383
 5969W        W21438   3.266   6.236   4.939  0.0557 -0.0203 -0.2596
 5970W        W21439  10.054  16.511   5.607 -0.2478  0.1121 -0.2765
 5971W        W21440  12.818  18.666  15.502 -0.0947  0.0076  0.3890
 5972W        W21441  13.335   1.207  13.569 -0.0187  0.0235 -0.0942
 5973W        W21442   6.227  18.520  11.939 -0.2760  0.2203 -0.2019
 5974W        W21443   6.143   2.916   4.681  0.0976 -0.1826  0.6568
 5975W        W21444  18.138   8.277   4.311  0.1896  0.1458  0.1130
 5976W        W21445   0.719  10.490   2.414  0.2334 -0.2614  0.1629
 5977W        W21446  16.795   1.887   3.058  0.2017  0.2687  0.2353
 5978W        W21447  10.845   6.497   1.464  0.0300  0.1983  0.0228
 5979W        W21448  11.324   9.623  15.033 -0.2155 -0.1628 -0.0766
 5980W        W21449   3.658  15.882  14.117  0.3282  0.1296 -0.0182
 5981W        W21450   0.684   0.475   1.900  0.1588  0.0302 -0.2331
 5982W        W21451   2.437  16.490   4.677 -0.1037 -0.1712 -0.1343
 5983W        W21452   9.488  15.869   5.471 -0.2574 -0.1527  0.0845
 5984W        W21453  12.497  16.096   2.379 -0.0734  0.3714 -0.0843
 5985W        W21454  10.901  14.998   4.841 -0.1352 -0.1079  0.0046
 5986W        W21455   1.002   4.003  12.217  0.3147 -0.1000  0.0117
 5987W        W21456  16.403  10.904   1.212 -0.1175 -0.2260 -0.1185
 5988W        W21457   7.054   6.248   3.707  0.0088  0.1425  0.0556
 5989W        W21458   1.563  15.681   1.777 -0.1492  0.0025 -0.1642
 5990W        W21459  13.958   9.021  11.781  0.1057  0.0469 -0.1324
 5991W        W21460  13.210  14.248  13.911  0.3382 -0.0443 -0.2091
 5992W        W21461  16.803  17.792   0.960  0.0302 -0.3748  0.0957
 5993W        W21462  18.195   5.928   2.666 -0.2679 -0.0283 -0.1981
 5994W        W21463  13.449   4.145  13.197  0.4289 -0.0808  0.0293
 5995W        W21464   1.020   9.570   2.734  0.0371  0.0452 -0.2266
 5996W        W21465   8.615  15.675   0.398  0.1543 -0.0354 -0.0507
 5997W        W21466  12.408  18.163   6.082  0.2631  0.2545  0.1597
 5998W        W21467   4.962   6.330  12.396 -0.2558  0.2503  0.2603
 5999W        W21468   3.834  12.586   2.025  0.3678 -0.0825  0.4076
 6000W        W21469   5.573   1.209   4.086  0.4713  0.0313 -0.2625
 6001W        W21470  12.493   2.372  15.436 -0.1159 -0.0876  0.0261
 6002W        W21471   1.168  13.538   2.555  0.1036  0.0611  0.1724
 6003W        W21472   6.809   0.097   3.656  0.1183  0.1675 -0.0874
 6004W        W21473   6.563   2.121   4.258  0.2871 -0.2984  0.3625
 6005W        W21474  13.837  11.935   2.556 -0.1443  0.0160 -0.5710
 6006W        W21475   3.094   5.358   1.113  0.0942 -0.1689  0.3281
 6007W        W21476   5.580  13.290   0.231  0.0545 -0.0825 -0.1304
 6008W        W21477  16.484  14.283   4.056  0.1982 -0.1647  0.0489
 6009W        W21478  11.558  12.657  11.956  0.0096  0.3954 -0.1457
 6010W        W21479  15.640   0.043   4.480  0.1852  0.1809 -0.0319
 6011W        W21480  10.668   5.765   4.073 -0.2109 -0.1046 -0.1448
 6012W        W21481  12.813  16.712   0.017  0.4079  0.0283  0.0077
 6013W        W21482   2.564   0.768   2.570 -0.1881  0.0593  0.0223
 6014W        W21483   3.470   1.656   0.830 -0.2429  0.0653  0.1032
 6015W        W21484  14.591   8.833  10.939 -0.1345 -0.1344  0.1532
 6016W        W21485   9.236   0.928   2.403  0.3829 -0.2618  0.0798
 6017W        W21486  12.944   9.791  15.153 -0.0408  0.1585  0.1048
 6018W        W21487  18.217  16.582  11.724 -0.1524 -0.0581 -0.2380
 6019W        W21488   5.804   7.910   4.787  0.1804 -0.1672 -0.1627
 6020W        W21489  16.217   2.924  11.121 -0.5963 -0.0620 -0.5422
 6021W        W21490  16.876  16.616  10.583  0.0876 -0.1024 -0.4229
 6022W        W21491  13.870  12.514  15.383  0.1392  0.0958 -0.1666
 6023W        W21492   2.328   0.261   3.771 -0.1246  0.3075  0.1673
 6024W        W21493   8.380   7.111  14.895  0.0975 -0.1869 -0.1536
 6025W        W21494   1.241   1.242   1.539  0.1217 -0.0192  0.2135
 6026W        W21495   7.461  15.776  14.439  0.3362  0.3851 -0.3797
 6027W        W21496   0.443   1.860   4.794 -0.1596 -0.0998 -0.1337
 6028W        W21497   9.732  11.682  15.274 -0.3766 -0.0576  0.1692
 6029W        W21498  17.193  17.672   2.295 -0.0249  0.3575  0.1754
 6030W        W21499  15.599   8.565   3.748  0.4749  0.1100  0.0286
 6031W        W21500   4.951  15.494  14.193  0.0528  0.0907  0.1931
 6032W        W21501  15.860  15.608  10.384  0.0614 -0.1674  0.1396
 6033W        W21502   1.107  13.269   1.453  0.3976 -0.0297  0.0112
 6034W        W21503   6.733  12.594   1.522  0.1427 -0.3003  0.0740
 6035W        W21504   3.714  13.990  14.648 -0.1767  0.1256 -0.1679
 6036W        W21505  10.812   2.749  12.136 -0.1832  0.1378  0.3700
 6037W        W21506   8.954   2.120  11.091 -0.1472 -0.0361 -0.0891
 6038W        W21507   2.467  13.466   0.148  0.0906  0.0236 -0.2991
 6039W        W21508  18.122  14.646  10.702  0.3695  0.1968  0.0177
 6040W        W21509   2.285  12.541  13.674 -0.2244  0.0716  0.3936
 6041W        W21510   8.285  17.799  11.157 -0.0021  0.0153 -0.0998
 6042W        W21511   0.595  13.498   2.066 -0.0158 -0.2275  0.1489
 6043W        W21512   8.369   0.379  13.118  0.1983  0.0034  0.0767
 6044W        W21513  12.147  15.256  11.054 -0.2316  0.0408  0.0022
 6045W        W21514  10.381   6.781   0.935  0.3065 -0.0672 -0.0573
 6046W        W21515  17.251  14.986   1.544 -0.2145  0.0369 -0.2381
 6047W        W21516   8.591  10.003  14.979  0.1679  0.4245  0.1230
 6048W        W21517   5.183   6.313  14.108  0.0866  0.1355 -0.3383
 6049W        W21518  15.262   4.477  14.365  0.5916  0.3190  0.1129
 6050W        W21519   8.034  10.963   4.185 -0.0999 -0.1464 -0.3034
 6051W        W21520  12.579   9.927  11.829  0.0982  0.0725  0.1116
 6052W        W21521  17.791  10.376   3.952 -0.3246 -0.3055  0.1783
 6053W        W21522   7.985  18.717  13.625  0.4596 -0.0921  0.3130
 6054W        W21523   2.832  15.741  15.366  0.0932  0.3235 -0.0849
 6055W        W21524   5.827  15.645  11.158  0.0928 -0.2960  0.2690
 6056W        W21525   6.561   6.933   3.627  0.3030 -0.0184  0.1501
 6057W        W21526  13.179   3.069  11.618 -0.4714 -0.1082 -0.0317
 6058W        W21527  14.266  18.313   5.677 -0.0495  0.0718  0.1211
 6059W        W21528  18.224  17.580  11.630 -0.0137  0.2312  0.0965
 6060W        W21529  18.154  17.478  12.193  0.0276  0.1193 -0.2735
 6061W        W21530   0.904   5.087   5.901 -0.1411  0.1599  0.0339
 6062W        W21531  15.130  10.964  12.535 -0.0362  0.0635  0.0174
 6063W        W21532   6.436   4.622   1.796  0.0782 -0.3102 -0.0657
 6064W        W21533   2.921  13.452   3.589 -0.0645 -0.4298 -0.1409
 6065W        W21534  13.014  14.758   1.375 -0.2300  0.4392 -0.0995
 6066W        W21535  10.217  17.704   9.834  0.2466  0.0555  0.0813
 6067W        W21536   5.571   8.933   3.253  0.1471 -0.0792 -0.2147
 6068W        W21537  16.454   9.192   3.693 -0.1830  0.1231  0.1164
 6069W        W21538   5.681   1.728   5.082 -0.0745  0.3079 -0.1020
 6070W        W21539  17.615   1.342   3.515 -0.3144 -0.0367 -0.0165
 6071W        W21540  15.876   1.954  11.856  0.1234 -0.1536 -0.0468
 6072W        W21541   4.707   7.808  13.318 -0.3175 -0.0695  0.2385
 6073W        W21542   3.825   2.323  12.331 -0.1449  0.0634  0.0265
 6074W        W21543  14.991   2.758  13.388  0.0628  0.4736  0.1108
 6075W        W21544   0.876  15.589   4.572  0.2638 -0.2060 -0.1340
 6076W        W21545   7.367   2.230   1.199  0.1064  0.0600 -0.0029
 6077W        W21546  14.736  18.809   1.874  0.0986  0.0898 -0.0688
 6078W        W21547  10.672   4.266  14.036 -0.3222  0.0168 -0.0158
 6079W        W21548   5.283   9.013  12.848 -0.2287 -0.1134 -0.1955
 6080W        W21549   8.228  12.366  10.760 -0.4548  0.0193  0.1831
 6081W        W21550  13.841  13.917  12.561  0.4981  0.0193 -0.0471
 6082W        W21551   9.185  12.947   0.301  0.0768  0.1290 -0.1022
 6083W        W21552  15.566  17.438  13.422 -0.5229  0.0639  0.2251
 6084W        W21553   8.820  11.332  10.589  0.0049  0.0899  0.2669
 6085W        W21554   9.947   2.815   4.352 -0.2152 -0.1255  0.0646
 6086W        W21555  16.754  11.753  10.906  0.2543 -0.0149  0.0830
 6087W        W21556  13.877  10.024   0.667 -0.0132  0.0378  0.0810
 6088W        W21557   5.836  16.179   0.385  0.1872 -0.0110  0.0001
 6089W        W21558  15.226   3.190  14.811 -0.1169 -0.3806  0.1152
 6090W        W21559   0.750   9.574  12.709  0.0251  0.2202  0.0049
 6091W        W21560  11.089  14.133  12.486  0.2750  0.0428  0.0269
 6092W        W21561   4.755  11.390  12.170  0.1624  0.0235 -0.0460
 6093W        W21562  15.737  15.600   0.481 -0.1837  0.0320 -0.0013
 6094W        W21563   5.504  14.084   1.210  0.0467 -0.1450 -0.1221
 6095W        W21564   1.908  17.919   0.061  0.0070 -0.0293  0.0538
 6096W        W21565  16.385  10.904  12.504  0.0350 -0.0447  0.1499
 6097W        W21566  12.897  13.282   2.422  0.4803 -0.3266 -0.4834
 6098W        W21567   6.689   8.873   2.342  0.3530 -0.0862 -0.1707
 6099W        W21568   3.812   5.752  12.660 -0.1431 -0.0162  0.1785
 6100W        W21569   7.255   7.492  15.327  0.1754  0.1402  0.1917
 6101W        W21570  16.134   6.216  13.340  0.2624 -0.3657  0.0470
 6102W        W21571   6.744  17.869  11.290 -0.4370  0.2805  0.1418
 6103W        W21572   9.199  10.747   1.638  0.0900  0.0185  0.2761
 6104W        W21573   8.811  13.243   5.822 -0.1523 -0.0882  0.0377
 6105W        W21574   0.225  10.681   2.360 -0.3697 -0.1397 -0.1053
 6106W        W21575   3.395  18.422   5.304 -0.1840 -0.0925  0.0044
 6107W        W21576  10.688   1.111   0.739  0.0005  0.4043  0.1123
 6108W        W21577   8.524  14.182  11.752  0.2056 -0.3104 -0.0263
 6109W        W21578  10.996  17.247   1.321  0.0806  0.1387  0.1604
 6110W        W21579   3.498   4.009  13.448  0.0714 -0.2506 -0.1817
 6111W        W21580  14.884  12.445   5.443 -0.1762 -0.2077 -0.1861
 6112W        W21581  12.279  15.868  13.168 -0.0143  0.1177 -0.1930
 6113W        W21582  18.383   9.604   4.715  0.0042 -0.1555 -0.0319
 6114W        W21583   7.471   2.552   3.987 -0.0234 -0.0656  0.3451
 6115W        W21584  16.082   9.950  10.516 -0.2834 -0.0787  0.1301
 6116W        W21585   7.012   6.736   3.802  0.0695  0.0722  0.1165
 6117W        W21586   0.106  15.972   2.931 -0.2115 -0.0179 -0.2927
 6118W        W21587   7.393  17.627  14.455  0.1234 -0.1572 -0.0140
 6119W        W21588  18.493   2.125   1.381  0.0756  0.0387 -0.1649
 6120W        W21589  15.850   5.018   0.365 -0.1152  0.0331 -0.2835
 6121W        W21590   6.710  17.341   5.593  0.0551 -0.1683 -0.0524
 6122W        W21591  12.876  16.199   2.799 -0.0665  0.1814 -0.1394
 6123W        W21592   9.434   7.125   1.865  0.0958 -0.2794 -0.3842
 6124W        W21593   6.049  18.887  11.511 -0.0189 -0.0154  0.2194
 6125W        W21594  14.483  10.717  11.843  0.0014  0.0804  0.0666
 6126W        W21595   1.165   2.802   0.310 -0.2083 -0.0082  0.0851
 6127W        W21596   9.271   2.395  13.215  0.0632  0.2220  0.2187
 6128W        W21597  13.000   9.141   4.460 -0.0366  0.1099 -0.1773
 6129W        W21598   5.226   4.791   4.767  0.2733  0.1249  0.0394
 6130W        W21599  17.729   5.616  14.791  0.2317 -0.4482 -0.2215
 6131W        W21600   9.618  17.423  10.337 -0.0997  0.0105 -0.0421
 6132W        W21601  12.261  12.988  11.246  0.0802  0.0576 -0.0201
 6133W        W21602  17.396   0.483   1.072  0.1452 -0.1270 -0.5001
 6134W        W21603   2.826   7.479  15.379  0.2428  0.1960  0.0995
 6135W        W21604   4.460   6.434  11.097  0.0980  0.0675 -0.3797
 6136W        W21605  15.458  11.710   0.374  0.1723 -0.0367 -0.0654
 6137W        W21606   6.054   9.558  14.666  0.0287  0.0083 -0.3122
 6138W        W21607   0.520   6.576   2.282 -0.2249  0.1845 -0.2412
 6139W        W21608  15.084  14.570   2.699  0.0155 -0.0059 -0.3217
 6140W        W21609  17.839   3.331   3.607  0.2429 -0.0637  0.2409
 6141W        W21610   1.094  17.222  10.433  0.0414 -0.0847 -0.0145
 6142W        W21611  17.562   2.988  15.345  0.2559 -0.1733  0.0555
 6143W        W21612  14.993   1.846   4.585  0.1577  0.1831  0.3285
 6144W        W21613   5.069  14.549   3.421 -0.1515 -0.0415 -0.0147
 6145W        W21614  14.545   0.364  13.604  0.1714  0.2310 -0.0848
 6146W        W21615  13.770  17.893  15.390 -0.1354 -0.1251 -0.0024
 6147W        W21616   7.073  16.050   5.052 -0.2075  0.1495  0.2249
 6148W        W21617  10.762  16.946  10.960  0.3552 -0.0270  0.0244
 6149W        W21618  13.974   3.203   2.593 -0.0863 -0.0054 -0.1688
 6150W        W21619  16.007  14.850  10.936 -0.1083  0.3439  0.0236
 6151W        W21620   1.074   7.838  13.872  0.3131  0.0064  0.0056
 6152W        W21621  18.803  12.544  11.143 -0.2169 -0.0906  0.0591
 6153W        W21622   6.337  17.398  12.897 -0.2763 -0.0043 -0.0702
 6154W        W21623   5.465   6.733  14.173  0.1025  0.1967 -0.0700
 6155W        W21624  16.609   9.789  11.399 -0.2865 -0.2736 -0.0012
 6156W        W21625  17.914   0.744   0.390 -0.2631  0.0745  0.0199
 6157W        W21626  14.781  14.965   4.723 -0.0091 -0.2370 -0.0058
 6158W        W21627  15.940  12.195  14.055  0.1164  0.3534  0.0631
 6159W        W21628   6.586   3.808   2.390 -0.0733 -0.0949  0.1325
 6160W        W21629   8.245   0.162  12.566 -0.0101  0.1901  0.0218
 6161W        W21630   2.302   2.476   1.049 -0.2201  0.1923 -0.0062
 6162W        W21631  15.457  17.873   5.789  0.4421 -0.0475  0.2633
 6163W        W21632   6.945   9.186  10.817  0.2661 -0.1504 -0.3290
 6164W        W21633  13.012   4.153   0.551  0.0143  0.0087  0.0714
 6165W        W21634  15.133  15.094   2.349  0.4376 -0.0169  0.3323
 6166W        W21635  17.597   8.844  11.640  0.0862 -0.0250 -0.4630
 6167W        W21636   0.444   4.019   1.928 -0.1717  0.0046  0.0885
 6168W        W21637   8.129  16.473   3.595 -0.1102 -0.1846 -0.0459
 6169W        W21638  17.064  18.745   4.458 -0.2913  0.3412  0.0389
 6170W        W21639   7.162   8.494   1.687  0.0476  0.1892  0.4404
 6171W        W21640  11.723  12.765  10.997 -0.4256  0.0375  0.2407
 6172W        W21641  16.842  18.058  14.749  0.0535  0.0953  0.2925
 6173W        W21642   9.489  12.652   2.797  0.2302 -0.0671 -0.0830
 6174W        W21643  18.474  13.696  10.580 -0.2483  0.1916  0.1389
 6175W        W21644  12.125   5.322   0.430  0.0685 -0.0385  0.1983
 6176W        W21645  11.414   1.182   3.688  0.0977 -0.0476 -0.0249
 6177W        W21646   2.321   5.937   2.625  0.0708 -0.0337 -0.2460
 6178W        W21647  18.636  12.052   1.372  0.5895  0.0472  0.0099
 6179W        W21648   4.226   6.442   2.518  0.1551  0.1176  0.1260
 6180W        W21649   5.399   7.437  13.072  0.0539  0.1280 -0.2555
 6181W        W21650   8.632  18.917   4.871  0.0104  0.0655  0.0146
 6182W        W21651  18.249   0.318  14.893  0.0296 -0.2319 -0.1424
 6183W        W21652   7.094  11.249   0.350  0.0180 -0.1336  0.3356
 6184W        W21653  18.711   7.791   3.262  0.0662 -0.1062  0.1520
 6185W        W21654   7.310  10.132  11.430  0.1631  0.4885 -0.1582
 6186W        W21655  17.241   3.951  12.927 -0.1173  0.3604 -0.1982
 6187W        W21656   8.480   4.248   5.119  0.0623  0.1785 -0.2733
 6188W        W21657  13.577   3.839   4.342 -0.1049 -0.1484 -0.0302
 6189W        W21658   1.789   9.740   9.776  0.0570  0.1255  0.0016
 6190W        W21659   2.829   2.797   6.013  0.0322 -0.1426 -0.1913
 6191W        W21660  15.832  13.407  12.304  0.1666 -0.0134  0.0081
 6192W        W21661   5.282   3.216  14.793 -0.0434 -0.1278  0.1042
 6193W        W21662  14.931  12.200  10.564 -0.0753 -0.0384 -0.2809
 6194W        W21663  11.748   4.561  10.884  0.2262  0.0946  0.2290
 6195W        W21664  13.764  12.258   2.093  0.2894 -0.0903  0.1365
 6196W        W21665   8.760   7.687  12.776  0.4033 -0.2299 -0.2917
 6197W        W21666  18.018   1.545  11.467  0.0211 -0.1280 -0.0851
 6198W        W21667   0.645   1.598  13.500  0.0707 -0.0379  0.0223
 6199W        W21668  15.257  16.513  13.757  0.0068 -0.1513  0.2250
 6200W        W21669   7.393   7.647  13.049 -0.2652  0.1768 -0.1584
 6201W        W21670   6.189  16.143  13.852 -0.0123  0.1271 -0.0120
 6202W        W21671  12.695  14.983  13.366  0.1324  0.0107  0.0125
 6203W        W21672   3.085   1.720   4.982 -0.2057 -0.3984 -0.0231
 6204W        W21673   2.904   8.188   4.965 -0.0573 -0.1143 -0.3301
 6205W        W21674  14.680   5.414  13.693 -0.0262  0.0343 -0.1597
 6206W        W21675  15.435  12.771   1.600  0.2383  0.2410  0.0953
 6207W        W21676  14.440   8.056   0.511  0.0352  0.1758  0.0974
 6208W        W21677  10.723   7.557   1.440 -0.0995 -0.1685 -0.3778
 6209W        W21678   2.202   4.568   4.195  0.1090  0.1383  0.0532
 6210W        W21679  15.199   9.160   4.141  0.0470 -0.0265 -0.1015
 6211W        W21680  17.656   7.449  10.624 -0.2285  0.2461 -0.1779
 6212W        W21681   4.924   1.141  11.991 -0.0547  0.1741  0.1636
 6213W        W21682  18.261  16.808  12.232  0.1872 -0.2450  0.0217
 6214W        W21683   2.958   9.999  14.818  0.1367  0.0967 -0.2621
 6215W        W21684   7.849   5.758   4.373  0.3791 -0.1608 -0.1489
 6216W        W21685   4.770   4.221   3.226  0.1894  0.0805 -0.0517
 6217W        W21686   9.012   9.911  12.366 -0.0988  0.0036 -0.0689
 6218W        W21687   5.160   2.780   1.884 -0.0514  0.0400 -0.2919
 6219W        W21688   1.363   0.020   4.840  0.1439 -0.0457 -0.0652
 6220W        W21689   3.677  16.816   1.364  0.1956  0.2215  0.0137
 6221W        W21690   8.253   2.228   3.835 -0.1650  0.0004  0.0202
 6222W        W21691   6.890  10.144   1.376  0.1622  0.4196  0.0387
 6223W        W21692   5.185   1.727   4.891  0.3503  0.2369  0.1300
 6224W        W21693   8.880   8.417  13.392 -0.2724 -0.1190 -0.1260
 6225W        W21694  16.090   0.371   2.466 -0.0855  0.1607  0.1368
 6226W        W21695  16.352   3.376  11.973 -0.2101 -0.1679 -0.2252
 6227W        W21696  10.688  10.596   3.993  0.4245 -0.4204  0.1455
 6228W        W21697   7.539  10.019  12.739 -0.0182  0.0787  0.0860
 6229W        W21698  16.309  17.743   9.555  0.1169  0.0873  0.0306
 6230W        W21699  17.123   6.926   1.677  0.0678  0.1427 -0.0657
 6231W        W21700  14.759   7.536  13.884 -0.2226 -0.3150 -0.0661
 6232W        W21701   4.019  14.993   4.297  0.1741  0.0491 -0.2152
 6233W        W21702   3.625  11.624  13.785 -0.1265 -0.0044  0.0387
 6234W        W21703  18.546   2.840   3.560 -0.0135  0.1255 -0.0220
 6235W        W21704  15.001   6.079   3.432 -0.0007  0.1075  0.1221
 6236W        W21705  10.682   6.312   4.239 -0.4651  0.2651  0.0927
 6237W        W21706  16.464  13.042  13.384 -0.0707 -0.2422  0.1859
 6238W        W21707  11.712  13.258   3.385  0.1058  0.0614  0.0067
 6239W        W21708   2.993   7.676  11.642 -0.1501 -0.3097  0.1487
 6240W        W21709  17.248  15.363  12.649  0.1453 -0.2879  0.0959
 6241W        W21710  16.039   6.207  15.210  0.3041 -0.2363  0.1177
 6242W        W21711   5.537  15.862   3.930  0.0805  0.0189  0.2492
 6243W        W21712  10.031  11.288   0.805  0.0323 -0.0384 -0.1146
 6244W        W21713   2.053  14.752  13.197 -0.0636  0.0967  0.2755
 6245W        W21714  10.117   5.974   0.453  0.0212  0.0467  0.2992
 6246W        W21715   8.998   5.256  14.707  0.0226 -0.0769  0.1002
 6247W        W21716   2.916   9.352  13.627 -0.0165  0.0958 -0.2149
 6248W        W21717  11.572   8.257  12.938 -0.0077  0.1255 -0.0962
 6249W        W21718  15.983   1.574   2.604  0.0168  0.2116 -0.0065
 6250W        W21719  14.546  18.677  15.331  0.0500 -0.0429 -0.0075
 6251W        W21720   0.501  15.272  11.824  0.0252 -0.1058 -0.0899
 6252W        W21721   2.403  13.378   5.018 -0.3870 -0.1591 -0.0205
 6253W        W21722  18.574  14.711   2.875  0.1744  0.2498  0.3529
 6254W        W21723   2.308  10.663   3.002  0.0637  0.0849 -0.2555
 6255W        W21724  17.708   7.062  12.441  0.0315  0.1305 -0.0147
 6256W        W21725   0.064  10.517   4.158  0.0416  0.1351  0.2355
 6257W        W21726   3.555   3.378   1.773 -0.2099  0.1243 -0.1059
 6258W        W21727   8.143  10.251  12.876 -0.0861 -0.1007  0.2522
 6259W        W21728   0.773   0.620  14.333  0.0735 -0.0349  0.4129
 6260W        W21729  10.945   0.934  13.110  0.0502 -0.0527 -0.2903
 6261W        W21730  10.263   4.157  10.968  0.0874 -0.0618 -0.0067
 6262W        W21731  17.892  13.130   0.185  0.0841  0.0389 -0.3792
 6263W        W21732  14.621  15.735   3.350 -0.1955  0.2995 -0.2736
 6264W        W21733  13.457   1.958   3.501 -0.0399  0.0133 -0.0419
 6265W        W21734  12.958   9.211  12.506 -0.1153  0.1683  0.1610
 6266W        W21735   9.431   3.409  11.368  0.0305  0.0890 -0.1111
 6267W        W21736  16.684  14.430   3.479 -0.0209 -0.2827  0.2515
 6268W        W21737  11.693  16.098  15.261 -0.0845 -0.1079 -0.1339
 6269W        W21738   1.651   4.113  10.712 -0.2348 -0.0505  0.0444
 6270W        W21739   3.409   2.580   2.379 -0.2037  0.2216 -0.0288
 6271W        W21740   0.368  18.815   0.489 -0.2610 -0.1583  0.2617
 6272W        W21741   1.316   6.781  13.634 -0.1437 -0.1638 -0.2142
 6273W        W21742   3.511   3.029  15.436 -0.2956 -0.2983  0.0172
 6274W        W21743  11.524   3.194  13.153  0.0606 -0.0534  0.0851
 6275W        W21744   9.133  13.232  12.781 -0.0349 -0.0110  0.0364
 6276W        W21745   1.680   6.216  15.011  0.2883  0.0650  0.1504
 6277W        W21746   1.366   8.841   1.453  0.0387  0.1805  0.0912
 6278W        W21747  11.468  18.727   2.978  0.0523 -0.0987  0.0218
 6279W        W21748   1.742   7.512   2.731 -0.3404 -0.0612  0.0267
 6280W        W21749  17.859   6.054   4.784  0.1148  0.1879  0.1296
 6281W        W21750   0.582  10.972   0.978 -0.1069 -0.0243  0.0508
 6282W        W21751  11.828  15.890   6.152 -0.1374  0.1272 -0.5462
 6283W        W21752  17.361  15.340   2.848 -0.0841  0.0173 -0.0147
 6284W        W21753   5.829  17.698   6.160  0.6371 -0.3387 -0.2048
 6285W        W21754  18.824  10.907   3.085 -0.0630  0.2153 -0.0594
 6286W        W21755  10.753   0.741  11.507  0.0898 -0.1401  0.0633
 6287W        W21756  16.767  12.228  14.890  0.2965 -0.3271  0.2819
 6288W        W21757   2.944   0.642   3.361 -0.0881 -0.1062 -0.2083
 6289W        W21758   7.715  12.875   4.458  0.4134  0.1301  0.1278
 6290W        W21759   4.926   1.746   2.589  0.0799  0.0874  0.2816
 6291W        W21760  15.755  12.628  11.706  0.1903  0.1393 -0.4246
 6292W        W21761  18.180  15.540   2.754 -0.1302  0.1814  0.1315
 6293W        W21762  17.429  16.506   2.403  0.3483 -0.2287  0.0980
 6294W        W21763   1.054   1.083   5.744 -0.0427  0.2618 -0.1853
 6295W        W21764  12.142  12.336   1.500  0.0956  0.0685  0.1161
 6296W        W21765   2.118  15.839   3.937 -0.2276 -0.1544  0.2024
 6297W        W21766   0.292   0.402  12.047 -0.0195 -0.0056  0.0524
 6298W        W21767   7.895   9.403   3.037 -0.1699 -0.0337 -0.1736
 6299W        W21768  13.251   1.126   0.283  0.2187  0.1068  0.1951
 6300W        W21769  16.122   0.804  11.498 -0.0660  0.2772  0.1307
 6301W        W21770   8.153   8.120   2.986  0.2228  0.1412 -0.0913
 6302W        W21771   1.062  10.493  11.681 -0.1619 -0.0790 -0.1913
 6303W        W21772  18.213  18.901   5.799 -0.0596 -0.0419 -0.3058
 6304W        W21773   7.002  13.755   3.462  0.2421  0.1095  0.0655
 6305W        W21774  17.872   4.392  15.041  0.0483  0.2750 -0.0954
 6306W        W21775   9.891  15.081  13.900  0.2839  0.2154  0.1674
 6307W        W21776   4.017   4.778  11.090  0.0219 -0.1550  0.0934
 6308W        W21777   3.996   4.252   4.237  0.1462  0.2012 -0.1146
 6309W        W21778  11.211   6.484  10.824  0.3073  0.0577 -0.1213
 6310W        W21779  11.042   4.609   3.844  0.0483  0.1926  0.2850
 6311W        W21780  16.577   6.254   3.386  0.3693 -0.0809  0.0796
 6312W        W21781  15.656   0.126   1.772 -0.3127  0.2244  0.1459
 6313W        W21782   6.583   7.594   3.335 -0.0842  0.0607 -0.3483
 6314W        W21783  17.873  16.215   2.596  0.2477  0.1389  0.3694
 6315W        W21784   4.873   8.751   2.854  0.3123  0.1238  0.2874
 6316W        W21785   9.801   4.537  13.951  0.2387  0.3241  0.0997
 6317W        W21786  17.349   6.020  11.067 -0.0164 -0.0445 -0.0436
 6318W        W21787   0.806   9.091   1.543 -0.1069  0.0989  0.0500
 6319W        W21788   1.204  13.916   3.528  0.0787 -0.1645  0.3482
 6320W        W21789   8.396   8.783   1.057  0.0743 -0.0742 -0.2291
 6321W        W21790   9.141  15.600   4.845 -0.0349 -0.0479 -0.2257
 6322W        W21791   0.050  12.225   3.255 -0.0776  0.0300 -0.1176
 6323W        W21792   9.698  17.020  12.538 -0.4719  0.0828 -0.1647
 6324W        W21793   1.885   0.864  12.091 -0.1057 -0.3208 -0.1037
 6325W        W21794   0.814   8.345  15.190 -0.1713 -0.2169  0.2390
 6326W        W21795   2.768  12.692   1.944  0.2430 -0.1430 -0.0488
 6327W        W21796   3.175   5.774   3.725 -0.3307  0.3194 -0.0147
 6328W        W21797  14.393   4.944   0.051  0.1177 -0.0307 -0.0096
 6329W        W21798   6.487  18.371   2.616 -0.3022  0.0094 -0.1988
 6330W        W21799  17.971  13.693  14.035  0.0816 -0.3557 -0.0017
 6331W        W21800   5.916   2.824  13.423 -0.0644 -0.1726 -0.0509
 6332W        W21801  11.171  18.021  11.282 -0.2490 -0.0366 -0.1361
 6333W        W21802  16.872  10.876   0.200  0.0144 -0.0068  0.1071
 6334W        W21803  13.854  11.766  12.151 -0.2129  0.0574  0.2440
 6335W        W21804  16.114  18.437   1.187  0.1913  0.2028 -0.2950
 6336W        W21805   0.582   0.870  11.079 -0.0372  0.0223 -0.2318
 6337W        W21806   1.759   4.408   1.861  0.1473 -0.0655 -0.1464
 6338W        W21807   6.915   2.444   0.373 -0.2757  0.2634  0.2219
 6339W        W21808  16.567  17.328   0.895  0.0822 -0.0219  0.2227
 6340W        W21809  12.483  11.035   2.449  0.3432 -0.3389  0.0099
 6341W        W21810   6.264  18.682  12.894 -0.1408 -0.2550  0.5742
 6342W        W21811   4.288  14.123  14.973  0.0012  0.3506 -0.1282
 6343W        W21812   3.857   9.861   1.926 -0.1909 -0.3255 -0.0580
 6344W        W21813   5.314   4.174   4.278  0.0746  0.0766  0.2207
 6345W        W21814  16.374   2.605  13.119  0.0925  0.0055 -0.1392
 6346W        W21815  14.712  18.092  11.113 -0.0346 -0.2599  0.0145
 6347W        W21816   7.320   9.107   0.246 -0.4366  0.0642 -0.3193
 6348W        W21817   2.689   4.931   1.835  0.0753  0.2893  0.2477
 6349W        W21818   4.006   2.517  14.458 -0.1545 -0.0227 -0.0456
 6350W        W21819  17.210  14.510   3.483  0.2704  0.1269 -0.1130
 6351W        W21820   0.541  15.157   5.253  0.1594 -0.0537  0.2756
 6352W        W21821  15.230   2.901  11.755  0.2824  0.1723 -0.0008
 6353W        W21822   4.064  15.788   2.297  0.1529  0.3595  0.1729
 6354W        W21823  11.977   2.571   1.586 -0.0613 -0.0850 -0.0216
 6355W        W21824  18.761  11.433   1.302 -0.3367 -0.2563 -0.1160
 6356W        W21825  16.355  15.597   0.738 -0.2362 -0.0893  0.0327
 6357W        W21826  10.440  12.057  11.634 -0.1263  0.2331  0.2015
 6358W        W21827  18.065  17.050   4.428  0.1326 -0.4655  0.1154
 6359W        W21828  15.730  12.472  13.230 -0.1917 -0.1034 -0.1911
 6360W        W21829   8.364  16.040   0.698  0.1241 -0.2245  0.0557
 6361W        W21830  13.553  14.733   4.017 -0.2574 -0.2779  0.1566
 6362W        W21831  17.470   4.591   2.138 -0.0687 -0.2079 -0.0867
 6363W        W21832   7.112   6.810  13.503 -0.1165  0.1650  0.2660
 6364W        W21833   9.156  11.893   2.431  0.1634  0.5696 -0.1617
 6365W        W21834   5.394  14.545  10.765 -0.1060  0.1370 -0.0202
 6366W        W21835  11.364   7.094   2.944  0.2895 -0.2235 -0.2807
 6367W        W21836  17.545   5.537   5.445 -0.0228  0.0288 -0.0555
 6368W        W21837  12.240   0.572   2.149  0.3427 -0.0531 -0.0282
 6369W        W21838   6.245   5.751   3.134 -0.1710 -0.1617  0.2593
 6370W        W21839   6.825   4.671   0.282 -0.2769  0.2067  0.0478
 6371W        W21840   4.416  13.218   1.744 -0.1389 -0.0665 -0.1218
 6372W        W21841   2.057  15.190  13.484 -0.3190  0.0450  0.2021
 6373W        W21842   7.551  10.821   5.085  0.1871 -0.2389 -0.2261
 6374W        W21843   2.897   1.144   1.397  0.2379 -0.1384  0.0526
 6375W        W21844  14.553   1.613  15.137  0.4158 -0.0001 -0.0137
 6376W        W21845   1.330   3.320  12.434  0.0003 -0.2061  0.1598
 6377W        W21846  18.000  18.816  14.760 -0.0477  0.1415  0.2852
 6378W        W21847   2.185  13.002  14.600  0.6215 -0.0631  0.1109
 6379W        W21848   9.201   4.031   2.160 -0.0341 -0.0620 -0.0606
 6380W        W21849   3.833   8.976   1.342  0.4356  0.1451 -0.0457
 6381W        W21850   8.634  11.126   4.812  0.1950  0.3123 -0.1904
 6382W        W21851  14.558   2.340  10.574  0.0922  0.2669  0.0433
 6383W        W21852  17.087  10.234   3.257 -0.0038  0.0391 -0.4087
 6384W        W21853   4.971   0.783   2.440 -0.0900  0.1605 -0.0169
 6385W        W21854  11.287   7.045   9.930  0.0819  0.1862  0.0692
 6386W        W21855  17.413  12.521  10.784 -0.2271 -0.0279 -0.1852
 6387W        W21856  12.670  14.346   0.570 -0.0744 -0.1464 -0.0388
 6388W        W21857  11.289   4.728   1.240 -0.0240  0.1885 -0.0987
 6389W        W21858  12.246  18.146   1.967 -0.0280 -0.2837  0.1406
 6390W        W21859   9.617   9.842   1.701 -0.1444  0.2242 -0.1462
 6391W        W21860   3.889  12.355  12.037  0.0899  0.0068  0.1901
 6392W        W21861  12.327  17.385   4.513  0.2316 -0.1470 -0.1159
 6393W        W21862   2.565  14.619   2.155  0.0696  0.3116 -0.1032
 6394W        W21863   7.271   2.853   3.543 -0.3244 -0.0489  0.0921
 6395W        W21864   3.889  12.655   3.118  0.2055  0.2225  0.2055
 6396W        W21865   1.617   4.016  14.528 -0.1697  0.2799 -0.1104
 6397W        W21866  18.698   7.174  10.807 -0.1038  0.1990  0.0936
 6398W        W21867   3.779  16.343  12.642  0.0248 -0.2238  0.3112
 6399W        W21868  18.132  14.693   1.455 -0.0543 -0.2975  0.0774
 6400W        W21869   3.632  14.388   3.071  0.3002  0.0439 -0.2803
 6401W        W21870  17.154   6.956   0.317 -0.0267  0.3288  0.1824
 6402W        W21871  13.047  12.694   3.812 -0.0092 -0.2196  0.0444
 6403W        W21872   3.390  11.448   3.770 -0.0096  0.5342 -0.2937
 6404W        W21873  16.309  10.129  11.014  0.0331  0.1828  0.0469
 6405W        W21874   8.400   2.333   0.246  0.2185  0.1125 -0.2488
 6406W        W21875  17.985   3.985  11.936  0.4263 -0.0316 -0.0822
 6407W        W21876   0.072   5.316  12.328  0.2105 -0.0266 -0.4218
 6408W        W21877  12.833  12.867   6.182 -0.1827  0.1650  0.1471
 6409W        W21878   0.764   9.896  12.309 -0.3729 -0.0862 -0.2162
 6410W        W21879  15.511  17.802   1.576 -0.0689  0.1119 -0.2888
 6411W        W21880   6.388  15.142   5.435 -0.0605 -0.4355  0.1510
 6412W        W21881   5.600   9.156   2.656  0.0201  0.1111 -0.0708
 6413W        W21882  12.357  16.716   9.530  0.2286  0.1236  0.3127
 6414W        W21883  11.445   4.826  13.853  0.0420 -0.1241  0.1336
 6415W        W21884   1.803   6.322  11.308 -0.3670  0.1131 -0.1757
 6416W        W21885  15.722   8.332  12.948 -0.0130 -0.2596  0.1085
 6417W        W21886   9.049  12.440   6.078 -0.1483  0.2199 -0.0039
 6418W        W21887  14.589   9.103   0.285  0.0287 -0.3746 -0.2407
 6419W        W21888  18.515  14.418  11.105  0.2065 -0.0241  0.0302
 6420W        W21889   1.962   0.923   4.614 -0.2392  0.1924 -0.0193
 6421W        W21890   6.977   0.244  11.791 -0.2187 -0.0714 -0.0860
 6422W        W21891  11.874  10.486  10.892 -0.0816  0.0551  0.2248
 6423W        W21892  17.212   9.007  14.825  0.0726  0.0813 -0.2175
 6424W        W21893  12.329   2.429  12.178 -0.0839  0.1030 -0.3126
 6425W        W21894   3.131  17.160   1.904 -0.1125 -0.3564 -0.4314
 6426W        W21895   6.067   6.698  10.679 -0.0120 -0.0791 -0.4690
 6427W        W21896  17.314  15.016  14.112 -0.0057 -0.1815 -0.1193
 6428W        W21897  14.067  17.328  15.313 -0.1129  0.0669  0.0467
 6429W        W21898   8.236   8.667  15.167  0.0569 -0.0080 -0.0363
 6430W        W21899  12.954  12.128  12.446 -0.0705 -0.0440  0.2247
 6431W        W21900  13.928   4.375  13.546 -0.0738  0.3619 -0.0176
 6432W        W21901   4.617  12.385  15.009 -0.0457 -0.1050  0.0643
 6433W        W21902  16.923  18.460  12.984 -0.0719 -0.0729 -0.3162
 6434W        W21903  18.502   0.002  15.423 -0.0230 -0.2772 -0.0697
 6435W        W21904  18.139  11.396   4.838 -0.1202 -0.3598  0.2754
 6436W        W21905  18.672   3.299  13.706 -0.1313  0.0121  0.1778
 6437W        W21906   9.301  10.242   1.547 -0.2170 -0.1094 -0.0579
 6438W        W21907   9.907   9.225  11.789  0.1301 -0.0562 -0.2206
 6439W        W21908   6.120  16.005  11.750  0.0488 -0.0775  0.2780
 6440W        W21909  13.638   2.974  11.348  0.0690  0.2903 -0.0584
 6441W        W21910   0.645   0.611  12.813  0.0591 -0.0628 -0.2224
 6442W        W21911   1.342   0.863   2.427  0.0517 -0.0163  0.1075
 6443W        W21912   2.362  17.650  14.061  0.1507  0.2585 -0.1144
 6444W        W21913  18.914   8.924   1.342  0.1518  0.0130 -0.2054
 6445W        W21914   7.840  17.927  12.778  0.0549  0.1214 -0.0752
 6446W        W21915  14.448   4.135   5.089 -0.4147  0.0519 -0.0130
 6447W        W21916   4.470  16.714   4.456 -0.1986  0.0028  0.0213
 6448W        W21917  17.204   5.721  14.498  0.2660  0.1276  0.0581
 6449W        W21918   6.724   8.709   2.914  0.1528 -0.1065  0.3045
 6450W        W21919   0.406   8.569  15.385  0.0796  0.1309 -0.0408
 6451W        W21920   1.074   5.679  10.988 -0.0951 -0.2084  0.2279
 6452W        W21921   6.432  15.978   1.045 -0.1747  0.0876 -0.1002
 6453W        W21922  17.717   6.146   1.618 -0.1121  0.1848 -0.3756
 6454W        W21923  11.565   7.679   2.528 -0.0776  0.2018  0.0681
 6455W        W21924   5.385   8.229   4.918  0.1802  0.0013  0.0928
 6456W        W21925   7.978  15.086   5.382  0.1073 -0.1400 -0.3206
 6457W        W21926  11.777   1.880   3.922 -0.0302  0.1560 -0.2031
 6458W        W21927   7.752   5.625  14.195 -0.2232  0.1302 -0.1966
 6459W        W21928   4.040   6.021   3.091 -0.0658  0.1655  0.0731
 6460W        W21929  18.195  15.189  12.988  0.1353  0.0889 -0.1908
 6461W        W21930   1.629  11.602  12.133  0.0723 -0.0901 -0.0494
 6462W        W21931  12.572   3.635   2.538  0.0243  0.3421  0.0026
 6463W        W21932   9.918   3.524   1.978  0.0903 -0.1655  0.0904
 6464W        W21933   1.986   0.053   2.672 -0.2633 -0.2167 -0.0006
 6465W        W21934  13.193  14.878  13.996  0.0849 -0.0101  0.0192
 6466W        W21935   1.580   9.266   0.517  0.0535 -0.0062  0.1043
 6467W        W21936  10.666  16.365   1.604  0.0481  0.1118 -0.1214
 6468W        W21937  17.726   9.468  11.465 -0.3391 -0.0343 -0.1683
 6469W        W21938  12.935  15.799  15.020 -0.1176  0.2235  0.2243
 6470W        W21939  16.324   5.540  12.586  0.2023  0.0647  0.0346
 6471W        W21940   2.262  17.042   0.395  0.1143  0.0272  0.3874
 6472W        W21941  15.129   4.542   1.009  0.0145  0.0001  0.1314
 6473W        W21942  15.413   9.792   4.725  0.3013  0.1108 -0.1520
 6474W        W21943  10.608  17.814   0.381  0.3888  0.2246  0.0155
 6475W        W21944   2.723   7.972   0.636 -0.1027 -0.2802 -0.0297
 6476W        W21945   5.924   4.607  11.417 -0.3299  0.2127  0.4644
 6477W        W21946   3.911  15.464   1.838 -0.0733 -0.1216 -0.4080
 6478W        W21947   9.324   6.515  13.234  0.0842  0.3199  0.0942
 6479W        W21948  16.891   7.283   5.459 -0.0556  0.2574 -0.0293
 6480W        W21949   8.235   1.868   0.178  0.2601 -0.1390  0.0851
 6481W        W21950  17.830   4.915  12.908  0.1653  0.0534 -0.1552
 6482W        W21951  18.443  11.387  10.937  0.0150 -0.0185 -0.0983
 6483W        W21952   0.622   4.336  13.817  0.2272  0.4016  0.1383
 6484W        W21953  12.226  18.923   3.661 -0.1627 -0.0874 -0.2289
 6485W        W21954  10.764   4.205  13.540  0.3530  0.0621  0.3556
 6486W        W21955  13.416   1.030  14.356 -0.0339 -0.0951 -0.0163
 6487W        W21956   5.930  15.008  12.054  0.0228  0.0214 -0.1569
 6488W        W21957  15.966   9.201  10.226 -0.2248  0.2459  0.0622
 6489W        W21958  12.140   9.965  13.457  0.2023  0.0239  0.1520
 6490W        W21959  15.010   3.188  15.298 -0.0767 -0.1077  0.3464
 6491W        W21960  16.575   1.208   2.306 -0.2705  0.0770  0.3639
 6492W        W21961   2.802  14.187  10.745  0.4236  0.0259  0.2097
 6493W        W21962   3.893  16.061   1.260  0.0314 -0.0589  0.0359
 6494W        W21963   3.958   7.592  14.452  0.2377  0.3426  0.1417
 6495W        W21964  16.434   4.851   3.638 -0.1176 -0.0779  0.0964
 6496W        W21965  14.014  13.003   3.532 -0.0499 -0.3181  0.2386
 6497W        W21966   9.254   9.932   3.161  0.0207  0.2811 -0.0010
 6498W        W21967  14.984  18.295   5.007 -0.0157 -0.1476 -0.1696
 6499W        W21968   1.016   5.021  14.286  0.1942  0.1359  0.1964
 6500W        W21969  18.669  14.295  14.006 -0.0630 -0.1331  0.3078
 6501W        W21970   8.408   3.942  10.874  0.1647  0.2005 -0.0016
 6502W        W21971  13.250   4.351   1.277  0.1008 -0.1786  0.3530
 6503W        W21972  11.350  15.221   4.933 -0.1399 -0.1542  0.0616
 6504W        W21973  11.655  17.255   1.638  0.0203  0.2736 -0.1888
 6505W        W21974   4.090   1.877   0.788  0.2121  0.0145  0.1475
 6506W        W21975  11.460  10.250   4.600 -0.1781 -0.0291 -0.1063
 6507W        W21976   9.090   9.584  11.398  0.0726 -0.3202 -0.0880
 6508W        W21977   0.782  16.843   4.092 -0.0742  0.0010 -0.2368
 6509W        W21978   8.110   1.457   2.277 -0.2532 -0.1429 -0.0280
 6510W        W21979   8.721  14.525  11.435 -0.2180 -0.2038  0.2066
 6511W        W21980   5.009  15.965   3.719  0.0105  0.1126  0.1158
 6512W        W21981  13.349   9.590   1.692  0.0235  0.0715  0.1604
 6513W        W21982   4.728   7.896   3.624  0.1884 -0.0874 -0.0522
 6514W        W21983   3.678   9.415   2.198  0.4191  0.1447 -0.2736
 6515W        W21984   7.434  14.464   4.874  0.0624  0.1704 -0.0341
 6516W        W21985  15.772  17.178   3.050 -0.0033 -0.1535  0.0350
 6517W        W21986  15.404  15.242   4.808  0.2345 -0.1450 -0.2941
 6518W        W21987   5.793   5.594  14.053 -0.0533 -0.1492 -0.2516
 6519W        W21988  16.816  11.350  14.321 -0.0358  0.0021 -0.0635
 6520W        W21989  14.236  11.534   2.341  0.1676 -0.0043  0.0553
 6521W        W21990  11.549   1.621   3.393  0.3837 -0.3120 -0.0623
 6522W        W21991  13.057  16.421  14.263  0.0447 -0.0576  0.1912
 6523W        W21992   0.816   2.934   2.573  0.1038 -0.1877  0.2748
 6524W        W21993   0.112  15.046  13.261 -0.1111  0.2840 -0.0451
 6525W        W21994  12.964   9.287  11.599 -0.0990  0.2684  0.0044
 6526W        W21995   3.375   0.387   1.497 -0.0998 -0.0073  0.1091
 6527W        W21996   3.575   8.555  13.396  0.0795  0.1027  0.1115
 6528W        W21997   1.745  15.676  12.428 -0.1628 -0.3743  0.0967
 6529W        W21998   7.754   2.897  12.053 -0.1647  0.2478  0.0112
 6530W        W21999   5.303  17.590  15.093  0.0664  0.1146 -0.1834
 6531W        W22000  16.341   1.984   2.442 -0.0879  0.2598  0.1804
 6532W        W22001   2.852  12.845   4.160  0.0880  0.0067  0.1311
 6533W        W22002   6.321   2.959   0.842  0.0057 -0.0543  0.1633
 6534W        W22003   8.370  12.352  13.777  0.2174  0.0901  0.4040
 6535W        W22004  10.248   9.652   0.161 -0.2298  0.0567  0.1357
 6536W        W22005   5.512   0.710   3.824 -0.2515  0.2559  0.1545
 6537W        W22006   7.372  13.319  12.167  0.4326  0.0250 -0.1132
 6538W        W22007   3.473   6.651   2.559  0.1407  0.0132 -0.0807
 6539W        W22008  17.061   6.478  13.065 -0.2443 -0.1756  0.2470
 6540W        W22009   9.790  12.858   3.528  0.2241 -0.0289 -0.0650
 6541W        W22010  11.192  15.313   2.747  0.2678 -0.3045 -0.2304
 6542W        W22011   0.651  10.473   0.984 -0.0098 -0.2070  0.0566
 6543W        W22012  18.640  16.501  14.035 -0.1528  0.0636 -0.0480
 6544W        W22013  15.633  10.313  13.011 -0.0480  0.2890  0.0303
 6545W        W22014   3.012   2.516  13.229  0.1922  0.1264 -0.1868
 6546W        W22015  15.184   8.992   1.340 -0.4574 -0.0877 -0.2018
 6547W        W22016   6.297  14.352  11.594  0.2305 -0.3063  0.0373
 6548W        W22017   2.448  12.580   4.302  0.1039  0.1242  0.4705
 6549W        W22018   3.844   2.189   0.442 -0.3517  0.0120 -0.5147
 6550W        W22019   2.994  14.154  11.629 -0.0947 -0.0729 -0.2735
 6551W        W22020   7.514  15.380  10.863  0.1561 -0.1592  0.5673
 6552W        W22021  10.591  15.050  10.983  0.0532  0.3311  0.1656
 6553W        W22022  18.363  14.039  11.486  0.2892  0.2299  0.4676
 6554W        W22023  12.141  15.712   5.308 -0.1047  0.2182  0.1065
 6555W        W22024  17.214  18.935   0.748 -0.1387  0.1093 -0.2004
 6556W        W22025   1.316  15.162  11.421 -0.2625 -0.0864  0.0852
 6557W        W22026  10.241   8.045  12.235  0.0476 -0.1836 -0.1725
 6558W        W22027   2.795  11.652   5.384  0.2803 -0.3506 -0.0075
 6559W        W22028   5.199  12.327   2.755  0.0487  0.5224  0.0823
 6560W        W22029   0.469   2.317  11.019  0.2896 -0.2830  0.0441
 6561W        W22030  13.563   0.860   2.171 -0.0010 -0.2573 -0.3418
 6562W        W22031  15.994  15.112   4.274  0.0713  0.3560 -0.2506
 6563W        W22032   2.998   7.593  14.441 -0.2554 -0.0439 -0.0582
 6564W        W22033  16.469   8.411   4.735  0.1063  0.1145 -0.1226
 6565W        W22034   3.046   5.468  13.698  0.1251  0.0087  0.1043
 6566W        W22035  18.044   6.668   4.974  0.1036  0.1281 -0.1494
 6567W        W22036   0.624   3.978   3.118  0.1889  0.0468  0.0644
 6568W        W22037  10.038   2.994  12.994 -0.0622 -0.3039  0.1280
 6569W        W22038  16.240   9.268  14.263 -0.1024 -0.0412 -0.1434
 6570W        W22039  12.030  13.778   4.488 -0.3710 -0.2653 -0.1785
 6571W        W22040   0.594   7.669   5.033 -0.0822 -0.1127 -0.1725
 6572W        W22041  11.832   8.527  12.596  0.3391  0.0220  0.0067
 6573W        W22042   3.893  13.475  13.652 -0.1909 -0.0076  0.3664
 6574W        W22043   2.659  15.337  10.428 -0.1103 -0.0981 -0.1904
 6575W        W22044  18.267  15.288  13.589  0.0847  0.2373 -0.1480
 6576W        W22045  14.742   3.385  13.145  0.1605  0.0652 -0.0075
 6577W        W22046   9.411  17.580   4.104  0.4478  0.0622  0.0986
 6578W        W22047  17.798  10.269  10.972  0.2655 -0.1320 -0.0442
 6579W        W22048   2.122  10.675   4.731  0.1939 -0.0009 -0.1797
 6580W        W22049  16.454  12.021   3.944  0.0881 -0.1498 -0.1305
 6581W        W22050  17.408   4.738  11.309 -0.0194 -0.2922  0.0327
 6582W        W22051   8.125   9.557   4.685 -0.0105 -0.1698  0.5490
 6583W        W22052  14.396  17.369   5.028 -0.0004 -0.1425  0.2126
 6584W        W22053  17.826   4.551  10.478 -0.0900  0.0758  0.3431
 6585W        W22054  17.682  16.394  11.642 -0.0888 -0.1702  0.0851
 6586W        W22055  12.205   9.961   4.080  0.2340  0.0761  0.1939
 6587W        W22056  16.181   4.751  13.376 -0.1033  0.0518  0.0242
 6588W        W22057   9.921  18.683   2.869  0.1471  0.3571  0.2221
 6589W        W22058  13.133   8.581   2.539  0.0384 -0.0676 -0.0889
 6590W        W22059  15.411   8.388  11.380  0.1087 -0.0925 -0.0806
 6591W        W22060  16.608   3.054  11.544 -0.0746 -0.1001  0.3886
 6592W        W22061   8.325  11.005   0.919  0.3234  0.2546 -0.1562
 6593W        W22062  17.620   1.974   3.478  0.1562 -0.0434  0.0343
 6594W        W22063  17.847   3.802  11.253  0.0756  0.0681 -0.3560
 6595W        W22064   2.348  12.493  12.825 -0.3667 -0.1249  0.0700
 6596W        W22065   5.921  13.046  12.698 -0.1696 -0.1997  0.1485
 6597W        W22066  11.070   0.145   4.660  0.0434 -0.2631 -0.2735
 6598W        W22067  16.444   5.653   2.587  0.0586  0.2303  0.2163
 6599W        W22068   5.552  10.673   3.607  0.0443 -0.3477  0.1295
 6600W        W22069   5.964  11.200  14.632 -0.0124  0.0259 -0.0778
 6601W        W22070  16.034   6.758  15.412 -0.0111  0.2404 -0.0667
 6602W        W22071   4.564   4.896   2.165  0.1681 -0.0135 -0.0005
 6603W        W22072   2.330  12.013  10.565 -0.0173 -0.0510  0.2713
 6604W        W22073   9.970  12.584  14.430  0.0302  0.1713 -0.0080
 6605W        W22074  11.980  12.420   5.397  0.0066  0.0481 -0.2493
 6606W        W22075   9.049  15.138   1.846  0.3475  0.0416  0.0824
 6607W        W22076  18.547  12.641   4.795  0.3813 -0.3196  0.1431
 6608W        W22077  11.467  13.490   3.788 -0.6985 -0.3821  0.3843
 6609W        W22078   5.606   3.583   1.742  0.0761  0.0156 -0.1984
 6610W        W22079   6.781   7.088   0.395 -0.0622  0.0149  0.1759
 6611W        W22080  18.818   6.766  11.094 -0.1816  0.0406  0.0002
 6612W        W22081   3.688   6.025   4.676 -0.0126  0.0372  0.0401
 6613W        W22082  16.482   1.118   3.544  0.0168  0.1136  0.1517
 6614W        W22083  17.385  11.123  10.789 -0.1265  0.2039  0.0221
 6615W        W22084  15.126  13.827  12.346  0.2884  0.4125  0.0797
 6616W        W22085  12.700   8.994  13.458  0.1274 -0.0619 -0.0965
 6617W        W22086   6.322   3.372  15.112 -0.1249  0.4314  0.2824
 6618W        W22087  15.504   4.763   4.007  0.2107  0.0533  0.2149
 6619W        W22088   9.857   9.852   0.346  0.0751  0.0325 -0.2362
 6620W        W22089   2.875  18.686   2.470 -0.1978 -0.0065 -0.2963
 6621W        W22090  10.483   1.169  11.472  0.1789 -0.0680 -0.3974
 6622W        W22091   9.288  10.905   4.059  0.0476 -0.1813  0.0613
 6623W        W22092  14.319  17.505  14.118 -0.1079  0.2524 -0.3612
 6624W        W22093  10.937  13.326  11.437 -0.2152  0.4390 -0.2892
 6625W        W22094  18.785   5.904  15.497 -0.1470 -0.0403 -0.0373
 6626W        W22095   5.215   5.477   0.163  0.1743 -0.0120 -0.2279
 6627W        W22096   9.342  18.082   2.748 -0.1526  0.2392  0.1067
 6628W        W22097  10.524  16.064   2.004 -0.0287  0.3347  0.0809
 6629W        W22098   7.026   8.074   4.271 -0.0103  0.0045 -0.0235
 6630W        W22099   7.660  18.019  14.703 -0.1474 -0.2083 -0.0531
 6631W        W22100   2.452   5.751  10.854 -0.2481  0.0418 -0.0693
 6632W        W22101   0.229  15.447   2.201 -0.2557  0.3048  0.1283
 6633W        W22102  14.791  18.050   4.583 -0.1006 -0.0767 -0.2715
 6634W        W22103   4.311   8.011  13.679 -0.0419 -0.1245  0.1001
 6635W        W22104   4.951  11.606  13.868  0.0713 -0.0411 -0.0166
 6636W        W22105  11.884  16.245   0.685 -0.3757  0.1717  0.1439
 6637W        W22106   2.665  14.757   0.643 -0.1278 -0.0426 -0.0461
 6638W        W22107   8.245   9.885   3.400 -0.0483 -0.0593 -0.3140
 6639W        W22108  18.363   1.275   3.697 -0.0178 -0.0888  0.1118
 6640W        W22109  11.093  12.237   4.711  0.5611 -0.0856 -0.2707
 6641W        W22110  17.445  10.209   0.680  0.3118 -0.3148 -0.3401
 6642W        W22111   9.505  12.211  11.103 -0.1280 -0.1350  0.0898
 6643W        W22112   3.417   6.680  15.488 -0.0020  0.2661 -0.3027
 6644W        W22113  16.373   2.095  11.732  0.1191  0.1782 -0.2318
 6645W        W22114   8.138   6.171   4.305  0.5760 -0.1449 -0.2653
 6646W        W22115  13.208  10.181   4.661  0.2323 -0.1480  0.1746
 6647W        W22116   1.288   6.972  12.181 -0.1789  0.1679  0.1719
 6648W        W22117   2.215  15.723   2.794  0.4091 -0.0432 -0.1947
 6649W        W22118  12.436   0.329  14.966  0.3232 -0.0457  0.5741
 6650W        W22119   5.337   9.370  11.281  0.2075  0.0408 -0.1727
 6651W        W22120  10.621   0.892  12.558 -0.2831 -0.0349  0.1542
 6652W        W22121  14.347   7.632  14.602 -0.1414  0.3084  0.3417
 6653W        W22122   8.620   0.194   2.258 -0.1877 -0.0794  0.2292
 6654W        W22123  14.913   7.100  13.933 -0.3138 -0.1192  0.1704
 6655W        W22124   4.706  14.560  14.124  0.0226  0.1275  0.5549
 6656W        W22125   5.220  15.111   0.275  0.3137  0.1779 -0.2328
 6657W        W22126   8.283   8.917   3.596  0.1703  0.0008  0.1219
 6658W        W22127   5.778  11.581   2.062  0.1261 -0.2687 -0.0606
 6659W        W22128  10.061   9.923  12.281  0.0164 -0.4714 -0.2477
 6660W        W22129   3.848   2.828  14.871 -0.1305 -0.1578 -0.2693
 6661W        W22130  14.611   4.422  12.885 -0.0182  0.2009 -0.0247
 6662W        W22131   5.432   6.429   4.580  0.0091  0.1126 -0.2007
 6663W        W22132   6.812   0.349   4.493 -0.1449  0.3512 -0.1891
 6664W        W22133   2.627   6.195  12.171  0.2056  0.0599 -0.0265
 6665W        W22134   4.949   9.784  13.169  0.0522 -0.0857  0.0134
 6666W        W22135   1.495  16.571  13.413  0.3988 -0.0991  0.1128
 6667W        W22136   6.250   6.540  14.986  0.4846  0.0113 -0.2139
 6668W        W22137  17.629   9.346   5.113 -0.1551  0.1604  0.0424
 6669W        W22138   0.002   3.494  15.401 -0.1274  0.1477  0.1299
 6670W        W22139   6.631   4.743  11.930 -0.0687 -0.1237 -0.1281
 6671W        W22140   9.939   4.953  12.231  0.2208  0.3038 -0.2031
 6672W        W22141   0.678  17.637   3.237  0.1178  0.1790 -0.1414
 6673W        W22142  10.270  12.334   3.363 -0.3639  0.1260 -0.0009
 6674W        W22143   4.177  16.726  14.455 -0.3500  0.2365 -0.2705
 6675W        W22144  13.889  16.124  15.141  0.0527 -0.2788 -0.1743
 6676W        W22145  17.454   8.346   0.284  0.0384 -0.0367  0.1118
 6677W        W22146  12.254   5.725   0.157  0.1001  0.0405 -0.0313
 6678W        W22147   5.670   2.994   1.887 -0.0614 -0.1610 -0.1413
 6679W        W22148   5.844   0.064   0.099  0.1557  0.1948  0.0363
 6680W        W22149  14.588  14.762   3.203 -0.1855 -0.2755  0.0589
 6681W        W22150   2.775  17.473  10.606 -0.0513 -0.1754 -0.3070
 6682W        W22151  17.772  18.545  10.928 -0.2983 -0.0605 -0.0690
 6683W        W22152  18.650  10.412  11.929  0.4050  0.1110  0.1690
 6684W        W22153  18.145  12.647   4.377  0.0285  0.0042 -0.1617
 6685W        W22154  13.004   8.769  10.755  0.2628 -0.0303  0.0044
 6686W        W22155   0.374   0.688  13.995 -0.0709 -0.0727  0.0937
 6687W        W22156   2.856   6.482   3.242  0.1437 -0.1691 -0.3492
 6688W        W22157  14.970   6.237   4.326  0.1686  0.1924  0.0612
 6689W        W22158  18.253   4.547  10.662 -0.1589  0.0068  0.0527
 6690W        W22159   3.538   5.822  15.244 -0.2155 -0.1326  0.0370
 6691W        W22160   8.733  13.259   1.879 -0.2020 -0.2864 -0.0704
 6692W        W22161   8.820   0.932   4.613  0.1055  0.1006 -0.0946
 6693W        W22162   2.119  11.614   0.171 -0.1066 -0.4605  0.0692
 6694W        W22163  15.637  16.177   4.323  0.1801  0.0359  0.1082
 6695W        W22164   6.124   3.689   2.582 -0.1597 -0.1259  0.0663
 6696W        W22165   1.797   3.601   5.066  0.3413  0.0519  0.1008
 6697W        W22166   7.656   5.094  14.264 -0.0899  0.0399  0.1859
 6698W        W22167   3.102   5.090   3.000  0.0542  0.0886 -0.0555
 6699W        W22168  16.261   0.516  10.619  0.1469 -0.2277 -0.1171
 6700W        W22169  17.337   9.602   4.812  0.3442 -0.1145  0.0287
 6701W        W22170   2.039   8.458   0.445 -0.3310  0.1810  0.2504
 6702W        W22171   8.533   3.680  13.108  0.2151  0.3808  0.0689
 6703W        W22172   3.515   1.855   3.193 -0.2119 -0.1080 -0.0380
 6704W        W22173  14.826   3.887   2.850 -0.0460 -0.4536 -0.3107
 6705W        W22174  13.695  18.443   2.616  0.1157  0.0234 -0.0744
 6706W        W22175  15.995  18.239   3.685  0.0870  0.2326 -0.1239
 6707W        W22176   3.673  12.462   1.513  0.3032 -0.0424 -0.1000
 6708W        W22177  18.453   6.997  14.711 -0.0511  0.1238 -0.1989
 6709W        W22178   2.765  10.581   4.041 -0.0693  0.0316 -0.0221
 6710W        W22179   1.288  11.743   4.233  0.3408 -0.0012  0.0415
 6711W        W22180   6.730   5.229   4.654  0.1476  0.1294  0.1950
 6712W        W22181  10.276   4.966   2.887 -0.0617 -0.0922  0.0123
 6713W        W22182  11.955   4.877  13.253 -0.1033  0.0191 -0.2086
 6714W        W22183  16.069   2.322   0.963  0.3928  0.0879  0.1346
 6715W        W22184  16.186  13.798  10.135  0.0822 -0.2993 -0.0434
 6716W        W22185  11.548  10.094  15.055 -0.1002 -0.0414  0.0431
 6717W        W22186   1.195   1.456  13.537  0.1189 -0.1535  0.0777
 6718W        W22187  17.604  18.418   5.395  0.2509 -0.2379 -0.1133
 6719W        W22188  14.677  17.066  10.718 -0.0642  0.0542  0.0290
 6720W        W22189  18.167   9.265  12.365  0.5180 -0.1051  0.0105
 6721W        W22190  16.655   6.008   5.387  0.0265 -0.0910  0.1719
 6722W        W22191   9.903   9.718   4.895  0.1663 -0.1150  0.2024
 6723W        W22192  16.499   5.533   0.038  0.0186 -0.1339 -0.3810
 6724W        W22193   9.535  17.363   2.876 -0.1044  0.0949  0.3243
 6725W        W22194   3.934   3.797   1.898  0.2209 -0.1853  0.0424
 6726W        W22195  18.856  17.953  10.726 -0.1953  0.0234 -0.2416
 6727W        W22196  13.479   0.729  10.805  0.0245  0.0472 -0.0319
 6728W        W22197   7.760  17.480   1.396 -0.0026  0.0648 -0.0608
 6729W        W22198   9.111   2.229  13.877 -0.2167 -0.7848 -0.1550
 6730W        W22199  18.810   3.667  11.535 -0.0904 -0.1691 -0.0434
 6731W        W22200  18.433  17.560   3.149  0.3675 -0.2431  0.0541
 6732W        W22201  12.293  12.981   3.574  0.0491  0.0584 -0.2381
 6733W        W22202  14.350   3.710  12.963 -0.0810  0.3295 -0.2802
 6734W        W22203   6.914   4.066  14.573  0.0357 -0.0666 -0.2569
 6735W        W22204   6.725  15.338  11.536 -0.2211 -0.0548  0.0689
 6736W        W22205  18.724   9.225  12.671  0.2325 -0.3375  0.4540
 6737W        W22206  14.341  10.370  13.528 -0.4272  0.1837 -0.0980
 6738W        W22207  12.032  12.218  10.716  0.1395 -0.2172  0.0340
 6739W        W22208   0.997   9.035  13.364  0.4415 -0.0349 -0.1102
 6740W        W22209   0.304   2.039  14.033 -0.3414  0.0834 -0.1045
 6741W        W22210  14.727   4.056  12.257 -0.1105  0.2653 -0.4474
 6742W        W22211   0.765   8.154  11.189 -0.4145  0.1678  0.1230
 6743W        W22212  13.040   3.920   4.276  0.1174 -0.1717 -0.2700
 6744W        W22213   1.037  17.143  14.694 -0.0024  0.0172  0.3000
 6745W        W22214  11.623  10.916   3.825  0.0653 -0.0160 -0.1515
 6746W        W22215   5.570   2.900   2.412  0.1194 -0.1482 -0.0101
 6747W        W22216  15.939  11.267  11.212  0.1440  0.0342  0.2986
 6748W        W22217   3.335  18.754   4.423  0.0901 -0.1131 -0.0465
 6749W        W22218   4.269   0.245   5.626  0.1361  0.1558  0.0338
 6750W        W22219   6.247   5.053   4.799 -0.1355  0.3678  0.0636
 6751W        W22220   9.399   0.163   5.740  0.0624 -0.3932  0.0674
 6752W        W22221  18.014   9.647   2.384 -0.1474  0.2690 -0.0598
 6753W        W22222   1.985   4.064   2.795 -0.2162  0.1936  0.5616
 6754W        W22223  18.251  16.309  15.411 -0.1413  0.0806  0.2280
 6755W        W22224  14.864   2.876   2.338  0.2581  0.0941  0.1461
 6756W        W22225   3.936  12.227   1.139  0.0793 -0.1436  0.0065
 6757W        W22226   5.357  18.782   4.895 -0.1799 -0.0788 -0.1792
 6758W        W22227   7.301   7.945  14.077  0.0795 -0.1735  0.1733
 6759W        W22228   1.765   7.482   9.644 -0.3359 -0.1618  0.2424
 6760W        W22229  15.579   3.167  11.497  0.0164 -0.2597 -0.0698
 6761W        W22230   0.503   8.219   1.881 -0.2753 -0.1995  0.0547
 6762W        W22231   4.808  15.597   3.404  0.0095  0.4582 -0.3717
 6763W        W22232  15.933   4.887   3.403 -0.1185 -0.0047 -0.0117
 6764W        W22233  17.913  15.429   4.643 -0.2452 -0.3479  0.2339
 6765W        W22234   4.838   4.539   4.381 -0.0692  0.1555 -0.2239
 6766W        W22235   1.471  11.458  13.704  0.0858  0.2641  0.2100
 6767W        W22236   7.251  13.166   6.040 -0.2866  0.0068 -0.1688
 6768W        W22237   1.904   6.675   5.286 -0.1393  0.3130 -0.1779
 6769W        W22238   0.457   4.516   3.781  0.0662 -0.1169 -0.0593
 6770W        W22239   4.198  15.287  12.944 -0.2459  0.2375 -0.0894
 6771W        W22240   6.158  12.595   3.549  0.4752  0.0396 -0.1574
 6772W        W22241   6.610   6.379  12.744 -0.0445  0.1113 -0.1282
 6773W        W22242  13.027  17.568  10.482 -0.0977  0.0588 -0.2009
 6774W        W22243   4.475   8.381   2.812  0.2176  0.0470  0.0581
 6775W        W22244   7.620  14.137  10.666 -0.1973  0.1505 -0.3996
 6776W        W22245  12.971   9.881  10.437 -0.3244  0.2336  0.1942
 6777W        W22246  17.372  10.763   4.651  0.0476 -0.0413  0.1292
 6778W        W22247  18.305  13.212  10.607 -0.0545 -0.0418 -0.1448
 6779W        W22248   0.378  12.184   2.715  0.1918 -0.1586 -0.0800
 6780W        W22249   3.180  17.272  12.573  0.0264  0.2520  0.0121
 6781W        W22250   3.304   1.659  15.414 -0.1552 -0.1405  0.0923
 6782W        W22251  12.835   4.946  14.668  0.1088  0.1845  0.5330
 6783W        W22252   7.379  13.943   4.921 -0.1774 -0.1117  0.0309
 6784W        W22253   8.926  14.526   5.793 -0.2033  0.0809 -0.1953
 6785W        W22254  11.790   4.067  13.344  0.2145 -0.0544 -0.2100
 6786W        W22255  15.341   7.904   1.528  0.4283 -0.1374 -0.0730
 6787W        W22256  11.115   4.096  14.275 -0.0322 -0.0970  0.3679
 6788W        W22257   2.806   7.352  14.886  0.5618  0.1776 -0.2743
 6789W        W22258  14.496  16.980  12.370 -0.1659  0.1496 -0.4403
 6790W        W22259   6.443   0.651  13.486  0.0272 -0.1952  0.3732
 6791W        W22260   1.823  13.117  12.490 -0.1534  0.0689 -0.0353
 6792W        W22261   6.882   4.342  12.768  0.2182 -0.0604  0.0514
 6793W        W22262  11.159   4.914  14.988 -0.0222  0.1045 -0.5014
 6794W        W22263  11.842   9.801  14.622  0.0309  0.0494 -0.2172
 6795W        W22264  10.886   7.487  13.303  0.0991  0.2405  0.1224
 6796W        W22265   9.452   3.308  10.596 -0.0424  0.0850 -0.4161
 6797W        W22266   0.572   7.522   3.471 -0.2031 -0.1932  0.2182
 6798W        W22267  18.722  15.605   1.707  0.1212 -0.2054  0.2677
 6799W        W22268  12.556  16.388   1.909 -0.1366 -0.0456 -0.0611
 6800W        W22269   4.797  17.389   3.169  0.3600  0.2913  0.1564
 6801W        W22270  14.921  16.410   2.131 -0.0359  0.0578 -0.1040
 6802W        W22271  15.920   2.905  12.370  0.0770  0.0912  0.2215
 6803W        W22272   6.818  13.035   2.252  0.0114 -0.0753 -0.3030
 6804W        W22273  17.119   5.579   3.155 -0.0245  0.2580 -0.2112
 6805W        W22274   7.888   4.635   0.663 -0.1708  0.1105  0.0909
 6806W        W22275   2.605  11.167   3.029  0.0304  0.1865 -0.0791
 6807W        W22276   0.674  17.311   3.818 -0.0498 -0.1881 -0.0961
 6808W        W22277   4.919  17.996   2.465  0.1531 -0.0882 -0.2157
 6809W        W22278  13.134  17.070  15.106 -0.0113  0.1891 -0.2665
 6810W        W22279  17.030   3.429  14.021 -0.1543  0.2150  0.0102
 6811W        W22280  13.878   2.715   1.471 -0.0245 -0.1561 -0.0234
 6812W        W22281  16.162  11.140   0.824 -0.3691 -0.1373 -0.0024
 6813W        W22282  18.087   0.638  10.967 -0.0915 -0.0760 -0.2198
 6814W        W22283   4.543   8.745  14.518 -0.2956 -0.0271  0.2793
 6815W        W22284   2.650  13.790   3.850 -0.0549 -0.1445 -0.0422
 6816W        W22285  17.117   5.980  10.659 -0.0015  0.1617  0.1074
 6817W        W22286   7.946  14.826  10.174  0.2865 -0.0930  0.1300
 6818W        W22287  12.695   4.503   2.617 -0.0845 -0.0668 -0.1001
 6819W        W22288  11.557  10.336   5.121 -0.1837  0.2179  0.2483
 6820W        W22289  16.337  18.482  12.209 -0.2291  0.3194 -0.0350
 6821W        W22290   3.121  14.931   2.458 -0.2044  0.1815  0.0782
 6822W        W22291  17.559   6.075   3.925 -0.1105 -0.0611  0.0142
 6823W        W22292   3.866   6.675   2.853  0.0806 -0.0082  0.0088
 6824W        W22293   2.604  14.974   1.143 -0.0541  0.0472 -0.1917
 6825W        W22294  13.909   5.994  10.791 -0.0309  0.2953 -0.3067
 6826W        W22295  11.294   4.690  11.044 -0.0566 -0.0053  0.2669
 6827W        W22296   9.599   1.040   2.069  0.0118 -0.1042 -0.1324
 6828W        W22297  16.442   2.141  15.192 -0.2004 -0.0205  0.1410
 6829W        W22298   9.445  16.013   4.035  0.0305  0.0592  0.1547
 6830W        W22299  13.242  13.877  14.425 -0.2468 -0.2146 -0.4175
 6831W        W22300  16.862   4.925  13.422  0.1271  0.0374 -0.0099
 6832W        W22301  13.557   7.196  13.001  0.2395 -0.1812  0.3307
 6833W        W22302  18.802  12.812  12.727  0.2084  0.0139  0.2278
 6834W        W22303  10.673   2.342   0.077 -0.0041 -0.1314  0.1305
 6835W        W22304  12.383   2.114  13.100  0.1327  0.3580 -0.0456
 6836W        W22305   2.980   2.335   1.587 -0.0559 -0.0004  0.2739
 6837W        W22306  10.405  11.321  12.428  0.2965  0.0076  0.0362
 6838W        W22307  16.262   7.925  10.080 -0.0244 -0.3445 -0.0636
 6839W        W22308  13.305  18.343   1.277 -0.4425  0.2530  0.0274
 6840W        W22309   2.666   0.048  10.439 -0.1127  0.1072  0.3264
 6841W        W22310   3.852  18.883  14.398 -0.2477  0.2746 -0.0536
 6842W        W22311  12.559   2.020  11.831  0.1371  0.2385  0.1170
 6843W        W22312  15.013  11.176  11.133  0.1304 -0.4556  0.2387
 6844W        W22313  18.022  11.626  11.347  0.0666  0.0025  0.1675
 6845W        W22314  16.304  12.888  10.465 -0.2102  0.3790  0.0446
 6846W        W22315  15.517   2.577  10.851  0.0369  0.0445  0.3413
 6847W        W22316  14.420  15.970  11.620  0.1977  0.0052  0.1758
 6848W        W22317  10.856  14.774  13.089 -0.2815  0.1372  0.0300
 6849W        W22318  16.024  13.669  14.330 -0.2318  0.1642 -0.0601
 6850W        W22319  10.975  10.046  10.006 -0.1046  0.6450  0.2531
 6851W        W22320   2.626   7.169   2.445  0.0661  0.2858  0.0971
 6852W        W22321   7.305   8.311   0.695  0.0373 -0.0247  0.1214
 6853W        W22322   9.200   3.032  12.285 -0.0863 -0.4055  0.0092
 6854W        W22323   5.614   8.323  12.141  0.0216 -0.0072  0.0022
 6855W        W22324  14.241   0.399  11.673  0.0183 -0.0501 -0.0955
 6856W        W22325  18.815   3.294   2.118 -0.0340 -0.3001  0.3970
 6857W        W22326  11.769  16.310  13.917 -0.1974 -0.0316 -0.1571
 6858W        W22327  11.129   5.899   4.708  0.2085 -0.0197  0.1043
 6859W        W22328  16.655  17.227   2.832  0.0965 -0.4825 -0.3174
 6860W        W22329  13.570   3.528   5.046 -0.1390 -0.4461 -0.1293
 6861W        W22330   0.051   2.849  13.800  0.2861 -0.2591 -0.5119
 6862W        W22331   1.397  12.995  12.199 -0.0581 -0.0625  0.0326
 6863W        W22332   2.801  12.902   4.639  0.0260 -0.0167  0.0886
 6864W        W22333  14.805  14.233  12.388 -0.1719  0.0139  0.1111
 6865W        W22334  14.681  13.792   1.040  0.0454  0.3520  0.2063
 6866W        W22335  18.742  11.352  14.355  0.2566  0.0491  0.2129
 6867W        W22336  18.742  17.072  10.977 -0.4218 -0.0468  0.1420
 6868W        W22337   7.223   5.471  15.347  0.0691  0.0631  0.0117
 6869W        W22338  13.164  11.402   2.127  0.1391 -0.1356 -0.1622
 6870W        W22339  12.501   2.813   1.894 -0.0189 -0.0793  0.2345
 6871W        W22340  17.905   0.181  13.983  0.2424 -0.3820 -0.1743
 6872W        W22341  17.319  13.413   2.609 -0.0841 -0.0809 -0.1235
 6873W        W22342  15.926   1.251   3.628 -0.0394 -0.0986 -0.1779
 6874W        W22343  17.959   2.939  14.087 -0.2049 -0.2151  0.2418
 6875W        W22344  14.668  14.510   0.804  0.0049  0.0024  0.1015
 6876W        W22345  10.555   7.346   0.974 -0.2690 -0.0565  0.3211
 6877W        W22346  12.480   2.607   1.394 -0.0974 -0.1399  0.1523
 6878W        W22347  15.944   9.668   4.505 -0.1023  0.0905  0.0358
 6879W        W22348   4.717  14.493   4.818 -0.0174  0.0500 -0.0515
 6880W        W22349  13.169  17.448   1.360 -0.0710 -0.3329  0.1113
 6881W        W22350   5.608   8.184  14.553  0.0893  0.0173  0.1312
 6882W        W22351   4.285  11.606  12.065  0.0394 -0.4080  0.1411
 6883W        W22352  15.898   9.863  11.888  0.1035  0.0173  0.0264
 6884W        W22353  18.220  16.799   5.483  0.0550  0.2988 -0.1008
 6885W        W22354   1.773   4.997  11.072  0.2002  0.0671 -0.4042
 6886W        W22355   3.672   8.512  12.829  0.0817 -0.0567 -0.4995
 6887W        W22356  11.135   0.756  14.658  0.2874  0.0446 -0.1232
 6888W        W22357   6.246   3.878   4.364 -0.1653  0.4664 -0.0737
 6889W        W22358   5.639  12.133  14.210  0.0923 -0.2069 -0.2413
 6890W        W22359  18.645  11.722  10.645 -0.2585  0.0582 -0.0485
 6891W        W22360  12.226  15.272   0.570  0.0599 -0.1288  0.1430
 6892W        W22361  10.405   1.739  11.392  0.0260 -0.2149  0.2315
 6893W        W22362  17.667   1.697  11.876 -0.2814 -0.0602  0.2259
 6894W        W22363  14.081   3.921  14.424  0.0942  0.0606 -0.0357
 6895W        W22364   6.188   6.212  10.734 -0.0008  0.1227  0.0201
 6896W        W22365   6.154  13.421  14.155  0.0684  0.5061  0.4098
 6897W        W22366   4.278  16.787  11.354  0.0250  0.1558 -0.0545
 6898W        W22367   4.980   7.252   0.851 -0.2342 -0.3453  0.0129
 6899W        W22368   4.751  14.296  15.233  0.3101 -0.0970  0.2110
 6900W        W22369   6.153   4.139  13.819 -0.1074  0.0058 -0.1364
 6901W        W22370  18.545   2.583   1.198  0.0331 -0.0072  0.0639
 6902W        W22371  16.352  16.702  12.420 -0.1487 -0.2994 -0.1302
 6903W        W22372  18.330   5.431  11.211  0.1729  0.0886  0.0803
 6904W        W22373   8.610  11.255  15.489  0.0870 -0.2947 -0.1881
 6905W        W22374  14.502  14.833  14.960 -0.1453  0.1140 -0.0191
 6906W        W22375   6.867   9.471  13.444 -0.0252  0.0620 -0.1507
 6907W        W22376  13.525   7.833  10.632 -0.3267  0.2653  0.1907
 6908W        W22377  18.103   7.484   4.836 -0.1297 -0.5011 -0.0611
 6909W        W22378   6.203   0.113   1.820  0.1276 -0.0909 -0.0183
 6910W        W22379   5.413  18.510   1.283 -0.2680 -0.0927  0.2093
 6911W        W22380  12.628   4.892  10.028 -0.0828  0.1751 -0.0056
 6912W        W22381  11.539   5.992  14.076  0.4426  0.0650  0.1070
 6913W        W22382  12.421   6.091  13.723 -0.0565 -0.3736  0.0327
 6914W        W22383  15.878   7.823   4.018 -0.1747  0.1448  0.2956
 6915W        W22384   4.575  16.721   0.082  0.1203  0.2785 -0.0271
 6916W        W22385  18.381  18.261   0.067 -0.0314 -0.0534  0.0594
 6917W        W22386   5.287  13.732   2.891  0.1271  0.0932  0.0495
 6918W        W22387  10.805   2.959  13.781  0.1630  0.1292  0.0483
 6919W        W22388  11.233   2.228   4.557  0.0717 -0.1935  0.0912
 6920W        W22389   9.090   1.123  14.690 -0.0053 -0.0007 -0.1574
 6921W        W22390   3.274  14.502   3.782  0.0883  0.2746  0.0329
 6922W        W22391  12.591  13.497  12.629  0.0042  0.1282 -0.1843
 6923W        W22392   8.477  10.814  14.459  0.0842 -0.1016 -0.0209
 6924W        W22393   4.551   6.200   2.911  0.1080  0.1688  0.0118
 6925W        W22394   1.184  10.081  12.046  0.2050  0.0124 -0.0817
 6926W        W22395  17.256   4.184   3.476 -0.1193 -0.1668 -0.1142
 6927W        W22396   2.399   5.504  11.420  0.3156 -0.2246 -0.0071
 6928W        W22397   0.752  12.541  13.356 -0.1727 -0.1640 -0.1534
 6929W        W22398   0.572  16.059  13.360  0.3055 -0.2342 -0.2669
 6930W        W22399   5.554   2.854  11.096  0.2790  0.2255  0.1733
 6931W        W22400  15.162  14.879  11.896 -0.2910  0.2808 -0.1503
 6932W        W22401   9.660  10.222   5.179  0.0070  0.1592 -0.2602
 6933W        W22402  17.663  14.637   2.806 -0.3130 -0.2801  0.1535
 6934W        W22403   7.359   7.521  11.297 -0.1581 -0.2982 -0.1174
 6935W        W22404   3.234  18.543  15.492  0.0138 -0.1225 -0.1727
 6936W        W22405  13.709  17.263   4.488 -0.2515 -0.1290 -0.0134
 6937W        W22406  16.755   2.484  11.680 -0.1435  0.3760 -0.0522
 6938W        W22407   5.185   0.311  14.631  0.1314  0.4569  0.1630
 6939W        W22408   1.506   5.562   2.484  0.2203  0.0327 -0.1519
 6940W        W22409  16.397   9.844   1.011  0.1012 -0.1682  0.3566
 6941W        W22410  14.175   1.170  14.328 -0.4576  0.0674 -0.1381
 6942W        W22411   1.416  14.739   1.400 -0.0277  0.1663  0.1446
 6943W        W22412  13.409   1.236   5.141 -0.2068  0.0686 -0.2314
 6944W        W22413   7.680   4.581   0.146  0.3301  0.0701 -0.0158
 6945W        W22414  16.113   5.925   0.583  0.3712  0.0052 -0.0741
 6946W        W22415  16.179  18.819   3.379  0.2173  0.1609 -0.3943
 6947W        W22416   1.310  13.550   3.947  0.1693  0.0315  0.1621
 6948W        W22417   7.608   0.739   2.385 -0.2112  0.1381 -0.2975
 6949W        W22418  11.470  15.622  13.412  0.2853 -0.4384 -0.1625
 6950W        W22419  18.805  18.374  14.665  0.0769  0.1278 -0.2637
 6951W        W22420   8.441  17.521  11.982  0.0934 -0.0430 -0.0591
 6952W        W22421   5.211   7.084   1.977 -0.0226 -0.3268 -0.1174
 6953W        W22422  12.242   2.396   2.667 -0.2361 -0.0809 -0.2379
 6954W        W22423   8.000   2.209   0.553 -0.0907  0.1023 -0.1159
 6955W        W22424  11.117   5.371  15.415 -0.0871 -0.2051 -0.2516
 6956W        W22425   7.563  13.461  14.813  0.1486 -0.0311  0.1692
 6957W        W22426   8.568  14.262   0.612  0.2737 -0.4369  0.0880
 6958W        W22427   1.290  10.517   3.349  0.2371  0.0732 -0.0144
 6959W        W22428  14.399   4.197  13.698 -0.0699  0.1148  0.0459
 6960W        W22429  11.109   3.770   5.149 -0.2762 -0.3684  0.2194
 6961W        W22430  11.186   5.064   4.161  0.1226 -0.0074  0.0498
 6962W        W22431   1.790   9.279  11.589  0.2498  0.3223 -0.1665
 6963W        W22432   3.434  18.602  13.500 -0.2522  0.0283 -0.3091
 6964W        W22433   6.208   8.031   4.300  0.1839  0.1844 -0.1287
 6965W        W22434   8.850   9.086  12.606 -0.1779  0.3699  0.0521
 6966W        W22435   5.211  18.906  15.370 -0.0789  0.0962  0.0406
 6967W        W22436  17.836  15.492   1.025 -0.0620  0.2113 -0.2208
 6968W        W22437   4.351   1.365  10.668 -0.2645  0.0328 -0.1209
 6969W        W22438   4.343   3.943   3.797  0.0031 -0.0341 -0.3505
 6970W        W22439  10.491   7.471  13.928  0.2397  0.1860  0.1795
 6971W        W22440   3.329   8.738   4.288 -0.1153  0.0103  0.2232
 6972W        W22441   0.450   2.511  13.974  0.0844  0.2324 -0.1172
 6973W        W22442  17.556   6.976  10.430 -0.0381 -0.0256  0.2792
 6974W        W22443  12.228   5.628  14.457 -0.0439 -0.1647  0.2549
 6975W        W22444   8.786  12.068   4.392 -0.0507 -0.1593 -0.2726
 6976W        W22445  17.357   3.841  14.123 -0.3047 -0.1074  0.1135
 6977W        W22446  12.762   8.565   2.035  0.1668  0.1197  0.3234
 6978W        W22447   2.264  10.130   5.166 -0.3097 -0.0194 -0.0131
 6979W        W22448  12.614  10.964  14.777  0.0182 -0.0570  0.2631
 6980W        W22449   1.293   1.726  12.925  0.2430  0.1291 -0.2339
 6981W        W22450   0.502  18.647  11.701 -0.3531  0.2838  0.3077
 6982W        W22451   1.016  16.674  13.263 -0.0583  0.3290  0.1076
 6983W        W22452   6.453  18.933  13.491 -0.1030  0.0491 -0.0797
 6984W        W22453  12.982  10.926   3.539  0.2218  0.3228 -0.2444
 6985W        W22454  10.040  15.244  11.516  0.0763  0.0076 -0.2441
 6986W        W22455   6.735   5.887   3.434 -0.0738 -0.2999 -0.1662
 6987W        W22456   3.099   5.793   4.659 -0.3678 -0.2100  0.2032
 6988W        W22457   1.922   8.970   0.750  0.0436 -0.3047 -0.2469
 6989W        W22458  15.172   7.348   5.718 -0.0790 -0.6758  0.0385
 6990W        W22459  17.429   7.407  13.346  0.1788  0.2123  0.1042
 6991W        W22460  14.247   5.664  13.884 -0.0955  0.0185 -0.2625
 6992W        W22461   1.168   5.716   4.256 -0.1524 -0.1334 -0.1163
 6993W        W22462  13.427   1.926   4.374  0.2347 -0.2904  0.0075
 6994W        W22463   4.467   1.538   3.358  0.2518 -0.3181  0.1670
 6995W        W22464   7.253   4.068   3.417  0.0016 -0.2171 -0.0237
 6996W        W22465  11.462  16.072  14.257  0.3877  0.1079 -0.1503
 6997W        W22466   4.471   4.626  13.753  0.0319  0.1007  0.0798
 6998W        W22467  17.942  10.330   0.578 -0.2071  0.0675  0.0773
 6999W        W22468  10.037  14.610   5.092 -0.1905 -0.1544  0.0654
 7000W        W22469   6.787  11.657   4.698 -0.1276 -0.3070 -0.2319
 7001W        W22470   6.770  13.918   1.529  0.0243 -0.1111  0.0544
 7002W        W22471   8.541  10.023  13.967 -0.2399  0.0305 -0.0169
 7003W        W22472   6.810   1.628  11.645  0.0263  0.0873  0.1734
 7004W        W22473   5.866  11.422   0.852 -0.0210 -0.0729  0.1075
 7005W        W22474  16.991   1.586  15.198 -0.1448  0.0210 -0.3676
 7006W        W22475   0.038  14.963   2.592 -0.0731 -0.2258  0.2849
 7007W        W22476   4.481  18.749   1.665 -0.2434 -0.2400  0.0592
 7008W        W22477   0.028   1.718  15.224  0.2550  0.0848 -0.0750
 7009W        W22478   5.612   7.860   5.224 -0.0620 -0.2556 -0.1891
 7010W        W22479  10.785  13.766  12.116 -0.0523 -0.1185 -0.0160
 7011W        W22480  16.123  10.453  13.180  0.0493 -0.1554 -0.1255
 7012W        W22481  16.737  12.378  13.957 -0.5356 -0.2197 -0.0334
 7013W        W22482   4.687  12.462  10.494  0.3607 -0.1652 -0.1054
 7014W        W22483   3.052  17.253   2.409 -0.1209 -0.0791  0.1826
 7015W        W22484   7.463   0.406   4.362  0.1215  0.0704  0.2430
 7016W        W22485  14.787  11.435   1.729  0.1657  0.0355  0.0318
 7017W        W22486  18.883   3.448  11.963  0.0886  0.2556  0.1690
 7018W        W22487  14.151   8.309  14.477  0.1307  0.4535 -0.0686
 7019W        W22488  12.428   7.928  11.718  0.3287 -0.1517 -0.0082
 7020W        W22489  10.696  11.677  15.351 -0.0627 -0.0752 -0.1039
 7021W        W22490   8.801   6.878   3.920  0.1898 -0.1950 -0.0020
 7022W        W22491   2.592   5.662  13.643  0.2666  0.3584  0.0881
 7023W        W22492  17.518  12.904  13.159  0.0677  0.1751  0.1513
 7024W        W22493  12.757  11.876  13.034 -0.1435  0.3251 -0.0003
 7025W        W22494   0.098  14.570   1.284  0.0797  0.1546  0.0427
 7026W        W22495  12.998   9.594   4.208  0.1339  0.2575  0.1369
 7027W        W22496   0.377  12.039   3.921  0.3937  0.0958 -0.0701
 7028W        W22497  15.288   2.122  10.968 -0.1873  0.3030 -0.0376
 7029W        W22498   6.603   4.393   4.640  0.1655 -0.0446 -0.0477
 7030W        W22499  16.033  13.164  13.089 -0.2135  0.0238 -0.0103
 7031W        W22500   4.157   8.858  11.042 -0.1054  0.0658  0.1255
 7032W        W22501   2.482  12.593   3.127  0.0841 -0.0312 -0.1674
 7033W        W22502  11.207  12.261   1.998  0.0292  0.0447 -0.2535
 7034W        W22503  14.005  18.418  11.307 -0.1447  0.2255 -0.0823
 7035W        W22504   3.388  12.458  10.557  0.5302 -0.0939  0.2845
 7036W        W22505   7.842  10.917   0.844 -0.2460  0.0906  0.1900
 7037W        W22506   4.497  10.865  13.949  0.0395  0.0304  0.1412
 7038W        W22507   7.581   6.182  15.074  0.1053 -0.1949  0.3397
 7039W        W22508   5.079  14.333  13.796 -0.1227  0.0591 -0.1852
 7040W        W22509   7.204   0.392  14.228  0.0252  0.1480 -0.0037
 7041W        W22510  14.681  15.322  10.741  0.0949  0.1224 -0.1350
 7042W        W22511   1.399   6.863  14.200  0.2244 -0.0183  0.1358
 7043W        W22512   2.412   9.947  13.276  0.0328  0.3582  0.0662
 7044W        W22513   4.583  13.118  12.172  0.2128 -0.0451 -0.2096
 7045W        W22514  16.740   3.293   0.344 -0.0320 -0.0303  0.1126
 7046W        W22515  10.880   6.578   0.288 -0.1502  0.0302 -0.1969
 7047W        W22516  12.281  16.147   3.747 -0.3379  0.5578 -0.1423
 7048W        W22517  14.650   6.057  12.651  0.1216 -0.1797  0.1626
 7049W        W22518  12.623   9.518   9.440 -0.1515  0.1111 -0.0276
 7050W        W22519  17.361   0.934   1.638 -0.0916  0.1384 -0.0894
 7051W        W22520  15.161   2.886  11.187  0.0183 -0.2245 -0.1143
 7052W        W22521   0.030  17.361   1.112 -0.0100  0.3525  0.4943
 7053W        W22522  17.876  18.500   5.838 -0.3285  0.1381  0.3495
 7054W        W22523   6.738  15.670  10.958 -0.0482 -0.1681 -0.4489
 7055W        W22524  17.022   7.405   1.825  0.0797  0.1777 -0.3152
 7056W        W22525  15.699   9.534  11.595  0.1242  0.1110  0.0789
 7057W        W22526  12.070  12.704   0.088 -0.1822  0.0232 -0.0709
 7058W        W22527  16.892   0.397   0.980  0.1145  0.0761 -0.0827
 7059W        W22528   0.705  17.463   2.161  0.0347 -0.0766  0.3478
 7060W        W22529   3.499   1.738   2.598 -0.1683 -0.3219 -0.2109
 7061W        W22530   9.180   3.789  11.596 -0.1894  0.1981 -0.1414
 7062W        W22531   2.050  14.135  10.966 -0.2209 -0.3737 -0.0150
 7063W        W22532  18.313  18.409  11.498 -0.1337  0.3571  0.1808
 7064W        W22533  17.494  17.192   0.348  0.3422  0.0011 -0.0035
 7065W        W22534   8.375   7.691  11.827 -0.1207 -0.0435  0.1364
 7066W        W22535  12.631   5.339  11.044  0.1486  0.0853  0.2195
 7067W        W22536   0.794   1.974   0.939 -0.1399 -0.2340  0.1261
 7068W        W22537   3.680  14.045  12.036 -0.0625  0.0707  0.0407
 7069W        W22538   9.089  15.719   0.498 -0.0574  0.2609  0.1646
 7070W        W22539  15.227  12.709   0.228  0.0815  0.1323  0.0307
 7071W        W22540   6.161  12.759   0.933  0.0082  0.1159  0.1093
 7072W        W22541  16.733  10.600   4.025  0.3609 -0.5539 -0.0964
 7073W        W22542   5.171   6.605  13.682  0.3090  0.1203 -0.1157
 7074W        W22543  17.984   3.148   0.207  0.2712 -0.4926  0.0717
 7075W        W22544   0.435   4.496   1.760  0.0191  0.2166  0.1918
 7076W        W22545   8.609   1.435  14.120 -0.2327  0.0432 -0.1650
 7077W        W22546   8.916  17.979  12.003 -0.3029 -0.2547  0.0412
 7078W        W22547   2.145   0.582   1.571 -0.1361  0.0930 -0.0445
 7079W        W22548   5.728   4.665  14.250  0.0919  0.0114 -0.0481
 7080W        W22549   7.266  18.218  11.445 -0.0341 -0.2841 -0.0005
 7081W        W22550   5.310   3.749  14.680 -0.1721  0.1011  0.0870
 7082W        W22551  13.398   8.495   3.402 -0.4327  0.5832  0.0415
 7083W        W22552  16.084  10.487  12.681  0.4207 -0.3061 -0.2236
 7084W        W22553  17.913   7.037   4.712  0.2908 -0.3509 -0.4563
 7085W        W22554   8.480   6.548   1.013  0.1067 -0.0619  0.3058
 7086W        W22555  17.550  10.332   0.221  0.0285  0.0932 -0.0172
 7087W        W22556   5.591  18.924  14.441  0.0990  0.0018  0.0787
 7088W        W22557  13.981  18.059   4.627  0.0765  0.1505 -0.0817
 7089W        W22558  14.912   4.595   1.822  0.2620  0.2024  0.0409
 7090W        W22559   9.625  16.215   2.849  0.0901 -0.0460  0.3514
 7091W        W22560  15.447   6.705  13.033  0.0678  0.1012  0.1730
 7092W        W22561   7.106  15.824   0.577  0.0883  0.3862  0.0583
 7093W        W22562   9.402  18.616   5.033  0.2013  0.1018 -0.2629
 7094W        W22563   7.711   9.675   1.246  0.3199 -0.0422 -0.1980
 7095W        W22564   3.557  14.658   4.398 -0.0282  0.0093 -0.3256
 7096W        W22565  16.058   8.942  15.503  0.0457 -0.1915  0.1380
 7097W        W22566   9.997  13.150   5.233 -0.1841 -0.0283  0.0966
 7098W        W22567   1.954  12.883  13.468  0.1237  0.1686  0.3148
 7099W        W22568  11.473  13.103  11.280 -0.1215 -0.2295 -0.3987
 7100W        W22569  15.571  15.293  11.933  0.1368  0.1618 -0.0780
 7101W        W22570   2.320   8.132   4.162  0.0951 -0.3672  0.1186
 7102W        W22571   6.240  14.723   0.344 -0.1925 -0.0207 -0.3973
 7103W        W22572   6.442   3.978  14.577 -0.0540 -0.0237  0.1264
 7104W        W22573   5.541  13.077   4.765  0.1336  0.4236 -0.3539
 7105W        W22574   8.212  18.064  15.365 -0.3293 -0.0207 -0.1088
 7106W        W22575  15.699  12.913  12.494 -0.2161 -0.0353 -0.2705
 7107W        W22576  11.933   5.169   5.289 -0.0878 -0.1309  0.2035
 7108W        W22577   7.333  14.127  15.397  0.2983  0.2849 -0.2890
 7109W        W22578   2.718   7.420  13.911  0.0253  0.1577 -0.0954
 7110W        W22579  14.818  11.214  11.718 -0.1796  0.0723 -0.1684
 7111W        W22580  14.973  13.194  13.667  0.3106 -0.2775 -0.1704
 7112W        W22581  10.048  13.070   9.893 -0.0760 -0.1019 -0.3218
 7113W        W22582  16.130   2.172   4.681  0.0210  0.3561  0.4061
 7114W        W22583  14.248  16.580  12.734  0.0725 -0.0323  0.1234
 7115W        W22584   1.731  16.084  14.601 -0.3666 -0.1216  0.0942
 7116W        W22585   7.473   8.587   3.213 -0.3238  0.1338 -0.1649
 7117W        W22586  10.845  17.488  10.854 -0.0172  0.3814 -0.1862
 7118W        W22587  15.398   9.178   2.779 -0.0279  0.0643  0.2731
 7119W        W22588  14.255   3.483   4.555  0.3336  0.1009 -0.0890
 7120W        W22589  15.762  11.284  10.232  0.1141  0.2057 -0.2772
 7121W        W22590  10.966  10.631   2.508  0.1001  0.1035 -0.0320
 7122W        W22591   6.851   8.177   1.454  0.1115 -0.0171 -0.0046
 7123W        W22592  16.526  10.045  12.609 -0.2319  0.3664  0.1528
 7124W        W22593   0.099  18.309   3.600 -0.0039 -0.0020 -0.2466
 7125W        W22594   9.240   0.009  11.353  0.1382  0.3090 -0.2771
 7126W        W22595   8.794  16.875   1.814 -0.3928  0.1667  0.1811
 7127W        W22596   3.068  16.970   2.789  0.0293 -0.1518 -0.5590
 7128W        W22597   7.715  13.685  13.160 -0.1888  0.2243 -0.0111
 7129W        W22598   4.703  16.519   2.498 -0.1534 -0.2866 -0.1984
 7130W        W22599   0.007   3.773   1.893  0.4663 -0.1479  0.0384
 7131W        W22600  11.420   0.415  13.797 -0.2535  0.1622  0.1394
 7132W        W22601   9.393   0.277   2.447  0.1947  0.1307 -0.1254
 7133W        W22602  15.691  12.384  15.500  0.0920  0.0044  0.1704
 7134W        W22603  12.346   0.048   4.507 -0.2128 -0.2735 -0.0650
 7135W        W22604  13.582   5.010   0.599  0.1011  0.1331 -0.0605
 7136W        W22605  16.576   6.733   3.754 -0.0448 -0.0742  0.0087
 7137W        W22606   5.229   0.483  11.245  0.0430  0.1692 -0.0107
 7138W        W22607   5.699  14.536   4.325 -0.4858 -0.0197 -0.1094
 7139W        W22608   3.729   6.334  15.274  0.1553 -0.1124  0.0279
 7140W        W22609  18.555  13.700  15.103 -0.0181 -0.0047 -0.1642
 7141W        W22610  16.585   2.259   4.846  0.0048 -0.0061 -0.0838
 7142W        W22611   5.780  15.673  15.286  0.0031  0.2470 -0.1748
 7143W        W22612  10.995  12.807  14.575  0.0255 -0.1226  0.0712
 7144W        W22613   4.288   3.527  14.835  0.0369  0.0208 -0.2007
 7145W        W22614   1.173  14.699   3.362 -0.0969  0.1872 -0.0064
 7146W        W22615   0.547   7.630   2.010 -0.2306  0.3954 -0.0721
 7147W        W22616   5.627   4.962   2.864  0.2131 -0.1674 -0.0713
 7148W        W22617   5.133  16.668  14.754 -0.1760  0.0472 -0.1369
 7149W        W22618  11.913   2.086   2.441 -0.0916  0.0853 -0.0815
 7150W        W22619  12.594   6.751   2.285  0.0253 -0.0130  0.0661
 7151W        W22620   2.572  12.072  12.222 -0.0858  0.1428 -0.2587
 7152W        W22621  12.528  14.105  14.973 -0.2187 -0.0809  0.0306
 7153W        W22622   6.865   2.353   1.432  0.1004 -0.0166 -0.1219
 7154W        W22623   7.511  10.591   2.543  0.0118 -0.0841  0.1031
 7155W        W22624  14.723  18.605  11.906 -0.4282 -0.0893 -0.0844
 7156W        W22625   1.378  17.133  12.625  0.1038  0.3415  0.0398
 7157W        W22626   3.994  14.757   2.809 -0.0480  0.0686  0.1078
 7158W        W22627  17.148  14.030  11.354  0.1091 -0.1291  0.2717
 7159W        W22628   8.140  15.006   1.391 -0.1674  0.1969  0.2530
 7160W        W22629   3.274  10.658  15.082  0.1895 -0.0344 -0.0644
 7161W        W22630  11.365  14.422  11.059 -0.2129  0.1945 -0.0551
 7162W        W22631  13.390  13.134  10.569 -0.2137  0.0050 -0.1428
 7163W        W22632  10.962  10.705   1.236 -0.0085 -0.1196  0.0592
 7164W        W22633  11.777  13.519   0.284 -0.1101 -0.2364  0.0470
 7165W        W22634   7.306  16.108   0.180 -0.0630 -0.0706  0.1111
 7166W        W22635   2.475  12.446  10.817 -0.0589 -0.2299 -0.1953
 7167W        W22636   6.485   8.913   0.790  0.0915 -0.3245 -0.1237
 7168W        W22637   4.458  11.873   3.846  0.0990  0.0191 -0.3127
 7169W        W22638   8.345   1.920   2.069  0.0287  0.0114 -0.0226
 7170W        W22639  15.821   7.978  14.712 -0.0251  0.0515 -0.0009
 7171W        W22640   7.260   9.874   3.615  0.2225 -0.0463 -0.0667
 7172W        W22641  14.095   4.705  11.016  0.1052  0.0659  0.1057
 7173W        W22642  18.396   1.091   4.540  0.3310 -0.0096 -0.1918
 7174W        W22643  13.953   7.842   4.036 -0.0479 -0.2471  0.4194
 7175W        W22644   0.849   1.773   0.349  0.0449 -0.0786 -0.0511
 7176W        W22645   9.373   6.130  15.336  0.3031 -0.1013 -0.1248
 7177W        W22646  12.991   9.381  11.063  0.2370 -0.4402  0.1101
 7178W        W22647   4.661   3.035   4.419  0.3002  0.3609 -0.0905
 7179W        W22648   1.158   9.828   0.947 -0.1475 -0.0033  0.0170
 7180W        W22649   6.876  12.199   3.849  0.1233  0.1493 -0.2598
 7181W        W22650  13.448   5.730  14.168  0.0873  0.0562 -0.2151
 7182W        W22651   2.341  18.468  13.836  0.2662  0.0061  0.6168
 7183W        W22652  12.678  13.928  15.481  0.1043 -0.0377 -0.0235
 7184W        W22653   8.208   4.646   0.195  0.3128  0.0206  0.0981
 7185W        W22654   3.797   5.423   0.138 -0.3517 -0.0194  0.2351
 7186W        W22655   8.551  16.095  10.737 -0.1380  0.0993 -0.0129
 7187W        W22656  16.949  15.685  14.749 -0.0870  0.1893 -0.0875
 7188W        W22657  11.103  16.943  13.167  0.0846  0.0858  0.0561
 7189W        W22658  13.711  10.987   3.065  0.0125  0.1694  0.0467
 7190W        W22659  11.885  13.058  15.158 -0.0512 -0.0118  0.3273
 7191W        W22660  10.836   8.598  14.367  0.1416  0.0128  0.2164
 7192W        W22661   9.971   9.474   4.138  0.2185 -0.0342 -0.0735
 7193W        W22662  15.698   5.800  14.328 -0.0638 -0.0307 -0.0705
 7194W        W22663  11.647   9.945   4.146  0.0220  0.1542 -0.0753
 7195W        W22664   8.785  11.288   2.128 -0.3963 -0.4509  0.4909
 7196W        W22665   6.433  10.762  15.213  0.0044 -0.1969 -0.2363
 7197W        W22666  12.112  16.515  12.404  0.0816  0.4075 -0.3059
 7198W        W22667  14.200  13.808  11.329 -0.0324 -0.2902  0.2147
 7199W        W22668   4.011   4.729   0.254 -0.1044  0.0627 -0.1906
 7200W        W22669  17.674   8.756  10.671  0.2919  0.0851  0.1624
 7201W        W22670   1.780   7.179   1.261  0.0123  0.2414  0.2761
 7202W        W22671   3.970   1.762   2.826 -0.3745 -0.1878 -0.0263
 7203W        W22672  16.327  18.155  11.753 -0.2541  0.2407  0.1186
 7204W        W22673   5.930   4.518   2.540 -0.2621 -0.1203 -0.2088
 7205W        W22674  10.063   5.886  14.078 -0.0759  0.1781  0.3444
 7206W        W22675   6.493   5.359  11.199 -0.3114  0.2661  0.1475
 7207W        W22676   4.833   5.267   0.423 -0.0876 -0.0372  0.0042
 7208W        W22677  17.778  14.015  12.055 -0.3464 -0.1140  0.3139
 7209W        W22678   9.544   1.390   3.660  0.0948  0.1104 -0.0563
 7210W        W22679  11.296   3.002   3.130  0.1145  0.1097 -0.0598
 7211W        W22680  16.779  18.490  14.468 -0.3833  0.3772  0.1110
 7212W        W22681  11.131   6.054  11.230 -0.0617 -0.1203 -0.0163
 7213W        W22682  12.785   8.895   2.559  0.0323 -0.0938  0.2815
 7214W        W22683  14.144   9.364  13.228  0.0986 -0.0485  0.2296
 7215W        W22684  10.279   0.795   0.950  0.0008 -0.2034  0.1035
 7216W        W22685  18.307   0.171   2.261 -0.1078  0.1502  0.2287
 7217W        W22686   5.578  12.650   4.399 -0.1418  0.0374 -0.2812
 7218W        W22687   7.712  12.183  13.039  0.1354 -0.0749  0.4370
 7219W        W22688  18.771  14.887   4.471  0.1023  0.1728  0.2368
 7220W        W22689   6.284   4.887  11.516 -0.3838 -0.3823 -0.2242
 7221W        W22690   8.086   5.673  13.337  0.1813 -0.2391 -0.0821
 7222W        W22691   9.183   2.825  10.742  0.0159 -0.1152  0.0015
 7223W        W22692  18.323  13.045  14.518  0.2917  0.0671 -0.0462
 7224W        W22693   7.980   9.178   2.096  0.2454  0.1206 -0.1874
 7225W        W22694  11.207   2.977   2.645  0.2284 -0.0540  0.0959
 7226W        W22695   7.763   4.027   5.427  0.2106 -0.2124  0.0800
 7227W        W22696   5.190   3.201  12.226  0.5974 -0.0033 -0.2000
 7228W        W22697   9.526  15.099  12.974 -0.2151  0.0725 -0.0252
 7229W        W22698   0.026   9.459   1.911  0.1351  0.0532  0.0991
 7230W        W22699  15.253   6.731  12.538 -0.4114 -0.2815 -0.1598
 7231W        W22700  18.436   7.662  11.703  0.2365 -0.3226  0.2394
 7232W        W22701  12.478  12.481   5.383 -0.2903 -0.2345 -0.1807
 7233W        W22702  11.578   4.576   4.600  0.3445  0.0628  0.1156
 7234W        W22703   0.206  10.161   1.437  0.4234 -0.1049  0.0837
 7235W        W22704   8.590  18.181  14.544  0.2958 -0.0474 -0.0930
 7236W        W22705  18.411   8.771   5.279 -0.1844  0.1515 -0.0826
 7237W        W22706   8.957   2.447   4.923 -0.0147 -0.2626 -0.0919
 7238W        W22707   4.603   8.739  13.218  0.2217  0.3572 -0.2496
 7239W        W22708  18.387  17.140   1.755  0.2598 -0.2760 -0.3240
 7240W        W22709  17.297   7.053   2.634 -0.0458 -0.3893  0.0301
 7241W        W22710   4.541   8.156  11.838  0.2517 -0.2677 -0.0466
 7242W        W22711   1.541   9.004  15.124 -0.2230 -0.0817 -0.2539
 7243W        W22712  16.799  13.439  13.415 -0.2640  0.2154  0.3626
 7244W        W22713   7.603   2.030   0.755  0.2006 -0.0966 -0.2691
 7245W        W22714  15.930   9.346  12.018  0.0097 -0.1359 -0.1477
 7246W        W22715   5.832  12.873  14.624 -0.2433  0.1256  0.1188
 7247W        W22716   8.273  17.982  10.677 -0.2484 -0.0826 -0.1169
 7248W        W22717  12.532  11.781  13.630  0.0560 -0.0869  0.0420
 7249W        W22718   7.650  18.330   2.618 -0.2818  0.0337 -0.3945
 7250W        W22719   0.064   4.850   1.891  0.2742  0.0270 -0.2034
 7251W        W22720  15.828  10.138   2.050 -0.2290 -0.2863  0.1035
 7252W        W22721   4.541   7.809  14.584 -0.1588  0.1400 -0.1094
 7253W        W22722   2.177  17.012   3.731  0.0579 -0.3110  0.2068
 7254W        W22723  14.819   7.171  10.542 -0.0203 -0.0100  0.0811
 7255W        W22724  14.639   0.151  11.614  0.0887  0.0056  0.2016
 7256W        W22725  14.752   5.819  14.019 -0.3246 -0.0182 -0.1846
 7257W        W22726   2.517   0.737   3.593  0.0743  0.3711  0.0578
 7258W        W22727   0.553   2.640   0.467  0.1576 -0.0694 -0.2261
 7259W        W22728   0.100  10.517   2.863  0.1241 -0.2669  0.0944
 7260W        W22729   9.499   7.360   0.610 -0.0877  0.1454  0.1942
 7261W        W22730  14.323   8.571  11.703  0.1045 -0.0310  0.0624
 7262W        W22731   6.205  11.890   4.117 -0.1230 -0.0987  0.2526
 7263W        W22732  16.357   4.577   4.124 -0.0856 -0.1189  0.1346
 7264W        W22733  10.622  17.997   2.878 -0.2295 -0.2941  0.0912
 7265W        W22734   5.051   6.970  14.068  0.2790  0.3410  0.1718
 7266W        W22735   3.449  17.718  12.545  0.3102 -0.0149 -0.1931
 7267W        W22736  12.392  13.455  11.193  0.1192 -0.0080 -0.0831
 7268W        W22737   7.378  16.731  14.602  0.1638  0.5289  0.1446
 7269W        W22738  12.071  13.497  13.483 -0.2760 -0.3383  0.1517
 7270W        W22739  11.338   6.750   0.021  0.0180  0.0288 -0.3550
 7271W        W22740  12.197   2.569   0.661  0.1062  0.2354  0.0296
 7272W        W22741   2.912   1.977   0.215  0.0904  0.0044  0.0381
 7273W        W22742  12.888   4.324   4.583 -0.2261  0.0705 -0.1653
 7274W        W22743   8.151  15.946   4.275 -0.3100  0.0030 -0.0682
 7275W        W22744   8.406  16.116   4.804  0.6738 -0.0845  0.1502
 7276W        W22745  16.710  12.313   5.536 -0.0397 -0.1033 -0.2609
 7277W        W22746   3.396  16.314  14.353  0.2586  0.1493  0.3601
 7278W        W22747  16.458   5.560   5.180 -0.0932 -0.1041  0.2291
 7279W        W22748   1.394   7.342   5.031  0.0865  0.0340  0.2457
 7280W        W22749  14.542   3.651   4.920  0.1698 -0.2616 -0.3064
 7281W        W22750   0.890   7.592  14.736 -0.3286  0.1424 -0.2949
 7282W        W22751  18.500  16.602  14.566  0.0492 -0.2454  0.2315
 7283W        W22752   8.700  14.486   5.183 -0.5734  0.0135 -0.0354
 7284W        W22753  16.659   1.934  14.189 -0.0340 -0.2294 -0.1395
 7285W        W22754   9.493   4.202  13.074 -0.2547  0.2066  0.1881
 7286W        W22755  16.011   7.788  12.312 -0.2811 -0.1306 -0.0474
 7287W        W22756  13.271   8.399  11.621 -0.1910 -0.0072 -0.2048
 7288W        W22757  16.797  10.108   2.071  0.1111  0.3037  0.1011
 7289W        W22758  15.767   5.446  12.801 -0.0914  0.0978 -0.0899
 7290W        W22759   4.513  14.126  12.082  0.3269 -0.2605 -0.0221
 7291W        W22760   8.461   1.465   1.886  0.0795  0.1405  0.0909
 7292W        W22761  14.296   8.907   4.246 -0.1811 -0.1197  0.2456
 7293W        W22762   4.691  14.185  11.224 -0.0352  0.0800 -0.3356
 7294W        W22763  15.689  17.569  14.663  0.0411 -0.1633 -0.0561
 7295W        W22764   9.139  12.892   1.769  0.0065 -0.4013 -0.0968
 7296W        W22765  18.612   6.485  15.389  0.1047  0.0734 -0.0288
 7297W        W22766   1.662  18.538  11.197 -0.2501  0.1049  0.1368
 7298W        W22767   0.611   3.395   4.247  0.2769  0.1800 -0.1276
 7299W        W22768  12.055   0.103   4.110 -0.2545  0.0557 -0.1889
 7300W        W22769  14.138   9.034  10.753  0.1825  0.0898  0.6266
 7301W        W22770  13.955  14.377   1.215  0.1538 -0.4195  0.1929
 7302W        W22771  14.492  10.156  12.072 -0.0342  0.2054 -0.1850
 7303W        W22772  16.012   9.875  11.378 -0.1219 -0.1265  0.0634
 7304W        W22773  10.065   7.305   5.068 -0.0052 -0.0059  0.1577
 7305W        W22774   6.557  17.810  13.248  0.3510 -0.2642 -0.2950
 7306W        W22775   9.256  13.772  12.702 -0.0591 -0.0490  0.3588
 7307W        W22776  16.778  13.437  14.093 -0.0945 -0.2458  0.4184
 7308W        W22777  15.662  15.704  12.749 -0.1609  0.0686  0.1125
 7309W        W22778  11.847  18.753  14.527 -0.0509  0.0535 -0.1297
 7310W        W22779   8.199   1.372  10.671 -0.3311  0.3435  0.3480
 7311W        W22780  12.918   4.899   5.362 -0.1028 -0.2056  0.3903
 7312W        W22781  14.970   3.637   1.200 -0.1151  0.0466 -0.0424
 7313W        W22782  13.019   5.640  11.496  0.1003 -0.1107  0.2735
 7314W        W22783  15.515   7.585  10.926  0.0032 -0.0080 -0.1346
 7315W        W22784   4.353   7.314  14.714  0.1283 -0.1876  0.0043
 7316W        W22785   4.297   8.680  10.576 -0.2887  0.3750 -0.0224
 7317W        W22786   8.542   0.540  13.553  0.3216  0.1693  0.1094
 7318W        W22787  15.171   2.605   4.507 -0.2100 -0.2751  0.1934
 7319W        W22788  18.745  15.712  13.594 -0.2304 -0.1155  0.0997
 7320W        W22789   6.827   2.495  12.875  0.0435 -0.1968 -0.1062
 7321W        W22790  15.783  13.667  13.272  0.3688  0.1802 -0.0955
 7322W        W22791  13.149   3.833  10.722  0.0381 -0.0811 -0.0672
 7323W        W22792  18.484   9.898  14.916  0.3311  0.1487 -0.0069
 7324W        W22793  14.584  15.020   0.932 -0.1696 -0.2651 -0.0025
 7325W        W22794   7.067  12.966  15.300  0.1117 -0.0345  0.0231
 7326W        W22795  13.738   5.094   1.340 -0.0268  0.3327 -0.0256
 7327W        W22796   6.602  12.827   5.727 -0.2798  0.2449 -0.1088
 7328W        W22797   9.622  18.533  13.360  0.0949  0.2430 -0.3336
 7329W        W22798  15.801   4.146  15.470  0.1592  0.2719 -0.0905
 7330W        W22799   3.518   1.456   2.241  0.0069 -0.1165 -0.0628
 7331W        W22800  15.570   2.257   2.217  0.1383  0.1022 -0.3749
 7332W        W22801  12.902   2.159  13.862  0.2005 -0.0387 -0.3061
 7333W        W22802   3.194  10.352  13.633  0.0366  0.1754  0.2915
 7334W        W22803  10.849   0.681   1.673  0.0978 -0.3912  0.0604
 7335W        W22804  12.136  14.938   3.408 -0.2129  0.0430  0.2972
 7336W        W22805   2.474   5.028  12.562  0.0184 -0.3248  0.0908
 7337W        W22806  18.849   5.491   3.148  0.0588  0.0028 -0.0213
 7338W        W22807  13.194  16.890   1.576 -0.0643 -0.0001  0.1567
 7339W        W22808   0.159  14.061   4.710  0.2819  0.1534 -0.1325
 7340W        W22809  16.054  16.452  15.222  0.1874 -0.0582 -0.1062
 7341W        W22810   9.592   1.301   0.134 -0.2417 -0.0081 -0.0083
 7342W        W22811   1.513   9.160  13.362  0.3677 -0.2241  0.0224
 7343W        W22812  11.866  13.535  15.205 -0.0639 -0.0060  0.0831
 7344W        W22813  14.053   6.206   1.159 -0.0447 -0.1453  0.0408
 7345W        W22814   4.137   3.080   1.286 -0.0976 -0.1127 -0.1253
 7346W        W22815   4.360  11.208   5.126 -0.1334  0.4237 -0.2501
 7347W        W22816   3.358  11.656  11.665 -0.1306 -0.0116 -0.0433
 7348W        W22817  16.018   9.134   4.618  0.0377 -0.1312  0.0885
 7349W        W22818   5.739   4.071  14.557  0.0938  0.1269 -0.2148
 7350W        W22819   7.338   1.656  11.213  0.0390 -0.2193  0.1879
 7351W        W22820   4.722   4.113  13.774  0.2650  0.1357  0.2080
 7352W        W22821   3.596   0.612   1.128  0.1452 -0.0234  0.2077
 7353W        W22822  14.320   3.761  12.135  0.0539  0.0001  0.2287
 7354W        W22823   7.350  16.979   1.942  0.0703 -0.2642  0.2001
 7355W        W22824   7.872  12.697  15.130  0.0445 -0.1407  0.2872
 7356W        W22825  12.529   7.815  10.802  0.2166 -0.1210 -0.1551
 7357W        W22826   3.743   1.135   4.945  0.1360 -0.4523  0.0130
 7358W        W22827   0.186  17.330   2.293  0.3118 -0.0838  0.0169
 7359W        W22828  12.793  10.575   4.501  0.1587 -0.0956 -0.1782
 7360W        W22829  11.617  14.480   0.466 -0.1812 -0.2040  0.0739
 7361W        W22830   1.672   6.812  11.285  0.1726  0.0690  0.1793
 7362W        W22831  14.578   1.640   1.644 -0.2467 -0.0586  0.2345
 7363W        W22832   7.941   8.600   1.939  0.2058 -0.0581 -0.0020
 7364W        W22833   4.033  10.282   4.686  0.0605  0.1342 -0.2043
 7365W        W22834  13.012   5.641   0.136 -0.0720  0.0569  0.1945
 7366W        W22835   4.526  13.628  13.065  0.0423  0.0636  0.2777
 7367W        W22836   0.133  10.865   5.118  0.2375  0.0709  0.2218
 7368W        W22837  14.358  12.580   0.406  0.2555 -0.0796  0.4383
 7369W        W22838   8.977   6.972   1.987 -0.1687  0.1393 -0.2446
 7370W        W22839   1.948   9.701   5.200 -0.0026  0.1363 -0.4266
 7371W        W22840  15.064   3.846   3.734  0.0605  0.0212  0.1753
 7372W        W22841   9.885   4.541   1.732 -0.2926  0.2292  0.0867
 7373W        W22842   1.321   0.361  13.488 -0.3426  0.3900  0.1668
 7374W        W22843   4.273   5.842  10.709 -0.0232  0.2952 -0.1895
 7375W        W22844  14.739   5.930  11.151 -0.2827  0.1795  0.2073
 7376W        W22845   8.578   4.468  11.038  0.0963  0.0123 -0.2272
 7377W        W22846   0.623   5.285  13.092  0.2738 -0.0012  0.2091
 7378W        W22847  18.418  14.792  12.014  0.1349 -0.2686 -0.0137
 7379W        W22848   5.045   0.688   0.863  0.2556 -0.1862  0.0631
 7380W        W22849  10.563   6.003   0.774  0.3592  0.0543  0.1453
 7381W        W22850  18.690  16.471  11.779 -0.2847 -0.2357 -0.0174
 7382W        W22851   0.139   1.980   5.151 -0.0546  0.2401 -0.0020
 7383W        W22852   8.745   9.947  11.264  0.0450 -0.2075  0.0020
 7384W        W22853  11.095   4.853   0.017 -0.0462  0.2500  0.4436
 7385W        W22854   5.426   2.788  13.313  0.1050  0.1206  0.1201
 7386W        W22855   5.410   7.928  11.196 -0.0890  0.1764  0.0856
 7387W        W22856   6.253   7.692   0.338  0.2218 -0.0032  0.1865
 7388W        W22857  12.065  10.101   1.633  0.0315  0.0890  0.2151
 7389W        W22858  16.650   6.770  13.290 -0.2123 -0.1231 -0.2796
 7390W        W22859  13.238  13.869  10.561 -0.0506 -0.0824 -0.0011
 7391W        W22860   5.688  17.564   5.305  0.2643 -0.2178 -0.1455
 7392W        W22861  16.756  14.346  14.477  0.0477 -0.0550 -0.4749
 7393W        W22862   5.339   4.347  15.489 -0.0290  0.1622  0.3536
 7394W        W22863  16.323  17.332  11.634 -0.1064 -0.4985 -0.0906
 7395W        W22864   3.279  13.562  11.370  0.2635  0.1178 -0.0703
 7396W        W22865  18.199  16.246   3.386 -0.0848  0.0034 -0.1161
 7397W        W22866   2.133   6.959  12.522 -0.0737 -0.0182  0.0296
 7398W        W22867   0.730   9.949   4.068 -0.0877  0.1728 -0.0798
 7399W        W22868  16.734  11.529  11.980  0.0536 -0.1955 -0.2293
 7400W        W22869  11.911  10.960   4.368 -0.0454  0.0939 -0.0278
 7401W        W22870  14.061   2.480  13.684 -0.1969  0.3007 -0.1983
 7402W        W22871   9.184  14.649  11.611 -0.4323 -0.0032 -0.3323
 7403W        W22872   9.711  16.191   4.459 -0.0100  0.2158  0.0864
 7404W        W22873   4.582   0.879  11.514 -0.1157  0.3170  0.1378
 7405W        W22874  15.633   6.656   0.172  0.0636 -0.3121 -0.0557
 7406W        W22875  16.765   0.010   1.590  0.5699  0.1920 -0.2358
 7407W        W22876  12.709   8.747   0.716 -0.1355 -0.1245  0.0264
 7408W        W22877   7.087  10.997  13.438  0.1309  0.0879  0.1978
 7409W        W22878   4.769   9.372  11.191 -0.3044 -0.1347  0.2859
 7410W        W22879   6.342   9.901   4.856 -0.1436  0.0335 -0.2021
 7411W        W22880   9.514  18.543   3.486  0.0517  0.1487  0.2862
 7412W        W22881   8.458  17.824  13.570  0.4116  0.1030 -0.2780
 7413W        W22882   3.270   4.915  10.342  0.2178  0.0997  0.1172
 7414W        W22883  16.291   3.972   2.436  0.0227  0.0587  0.1884
 7415W        W22884   9.640  13.758   0.711 -0.1027 -0.1775 -0.0188
 7416W        W22885  13.220  11.104  13.531  0.3760  0.2927  0.2044
 7417W        W22886   5.136  16.154  11.666  0.0492  0.2473 -0.0115
 7418W        W22887  11.703   6.679   3.352  0.1178 -0.0368  0.0627
 7419W        W22888  12.359   0.718  15.306  0.2809  0.1559  0.0501
 7420W        W22889  12.537   9.653   3.773  0.1893 -0.1213  0.0571
 7421W        W22890  15.706  12.208   2.894  0.0882 -0.4165 -0.1701
 7422W        W22891  18.153  12.938   9.955 -0.3276 -0.1080 -0.1522
 7423W        W22892   1.219  14.243   1.381  0.3704  0.1026 -0.2208
 7424W        W22893   0.878  14.249   1.772 -0.1677 -0.0115 -0.0624
 7425W        W22894  13.033  11.132  10.610  0.4722  0.3576 -0.1377
 7426W        W22895   1.095   5.261   4.375  0.1161 -0.2887 -0.1923
 7427W        W22896  16.504   0.417   1.332  0.2249  0.3988  0.2575
 7428W        W22897   7.669   1.254  11.100  0.2301 -0.0730 -0.2757
 7429W        W22898  18.850  13.997  13.490  0.1080 -0.0303  0.2541
 7430W        W22899   2.647   8.249  12.287 -0.0024 -0.2267 -0.1683
 7431W        W22900  18.651  16.428  13.055  0.1724 -0.2492  0.1464
 7432W        W22901  11.701   0.264   9.814 -0.0270  0.0008 -0.2052
 7433W        W22902   9.584   7.578   5.177  0.2210  0.0768  0.1318
 7434W        W22903   9.902   2.288  15.210 -0.3561 -0.0919  0.0929
 7435W        W22904   6.888  15.702  14.371 -0.0340  0.2886 -0.2143
 7436W        W22905  10.127  11.142  11.884  0.0441 -0.0039  0.1437
 7437W        W22906   6.557   4.544   9.416  0.1619  0.1142 -0.1861
 7438W        W22907   8.529  12.999   0.505  0.1818  0.1337 -0.0279
 7439W        W22908   1.381   5.529  13.547  0.1413 -0.1215 -0.1311
 7440W        W22909   6.928  16.696  14.367 -0.1261  0.2299 -0.0097
 7441W        W22910   9.129   9.118   2.617 -0.0590 -0.1582  0.0651
 7442W        W22911  16.102  15.047   3.142  0.0870 -0.3528 -0.1533
 7443W        W22912   8.076   3.251   9.929 -0.3960 -0.0327 -0.1921
 7444W        W22913  11.624   9.838   2.053 -0.0622  0.0210  0.1830
 7445W        W22914  12.135   1.886   1.975 -0.1872  0.2168 -0.3280
 7446W        W22915   8.008   3.007  15.163 -0.1962  0.1319 -0.1757
 7447W        W22916  16.967  15.415  11.247 -0.0580 -0.0768 -0.1215
 7448W        W22917  11.376  16.318   0.572 -0.1637 -0.2425  0.2551
 7449W        W22918   7.876  12.377   2.189 -0.1508  0.1037  0.1453
 7450W        W22919  12.637   4.043   3.448 -0.3836 -0.0763 -0.2153
 7451W        W22920   0.815  18.499  15.142  0.0367  0.0851  0.1120
 7452W        W22921  16.953   6.641  15.454 -0.1333 -0.0146 -0.1530
 7453W        W22922  18.637  11.643   4.833  0.1846 -0.3204  0.3143
 7454W        W22923  15.918   5.479  13.607  0.1319 -0.2420 -0.2908
 7455W        W22924   3.644  14.517  15.346  0.1125  0.3127 -0.3081
 7456W        W22925  17.559   7.663   2.613 -0.1124 -0.1491 -0.0351
 7457W        W22926   2.225  12.790   2.056 -0.0157 -0.1577  0.0463
 7458W        W22927  15.870   2.618   2.113  0.1088 -0.0304 -0.1204
 7459W        W22928  10.464   0.724   2.072 -0.0806 -0.0654 -0.0825
 7460W        W22929   4.611   3.933   2.301  0.0433  0.1347  0.1996
 7461W        W22930  12.014   4.956   4.793 -0.0544  0.0661  0.0112
 7462W        W22931  11.290   2.520   2.844  0.2190 -0.1855 -0.1727
 7463W        W22932  11.497  10.371  13.246  0.0387 -0.2736 -0.2070
 7464W        W22933   7.727   8.729  15.351  0.1719 -0.2758 -0.1068
 7465W        W22934   4.502   4.846  14.348 -0.2489 -0.3564  0.1524
 7466W        W22935   6.174   1.078  10.699  0.0284 -0.0720 -0.2838
 7467W        W22936   1.900   5.326   3.738 -0.3671 -0.0003 -0.2089
 7468W        W22937   0.539  15.751  12.972  0.0199 -0.0814 -0.3361
 7469W        W22938   9.259   7.886  12.774  0.1132  0.1300  0.2379
 7470W        W22939  16.554   9.393   2.833 -0.1477  0.5488  0.0868
 7471W        W22940   5.449  12.572   3.140  0.0365 -0.0068  0.0415
 7472W        W22941  12.138  18.164   5.031 -0.2315  0.2646 -0.2383
 7473W        W22942   0.848   5.175  12.540 -0.2324 -0.2934  0.1934
 7474W        W22943   2.532   9.180  13.855  0.1258  0.0450 -0.3843
 7475W        W22944  15.816   1.720   4.135 -0.1076  0.4123  0.0535
 7476W        W22945   5.639   5.360   1.532 -0.2288 -0.1360  0.0683
 7477W        W22946  17.504  14.495  12.208 -0.2488 -0.0314 -0.1268
 7478W        W22947   2.130   9.772   1.384 -0.2253  0.0252  0.1528
 7479W        W22948  15.541  15.115   3.072 -0.1872 -0.2879  0.2823
 7480W        W22949   7.991   4.247   4.404 -0.2464  0.2432  0.0950
 7481W        W22950   9.776   6.418  11.903  0.2563  0.0712 -0.3144
 7482W        W22951  12.786   3.711   3.870 -0.4468 -0.1638 -0.1992
 7483W        W22952   1.182   2.034   4.903 -0.0975 -0.1258  0.1002
 7484W        W22953   4.705   4.720   4.981 -0.3056 -0.1354  0.3454
 7485W        W22954  18.516   2.577   1.658 -0.2881  0.1195  0.0988
 7486W        W22955   9.487   8.874   1.586  0.1129 -0.2303 -0.4654
 7487W        W22956   6.410   7.046  10.688 -0.2503 -0.0751 -0.3380
 7488W        W22957   9.394  18.194  15.328 -0.0890  0.1970  0.0223
 7489W        W22958  15.493   0.220   2.267  0.0437 -0.1862  0.1536
 7490W        W22959  10.808  18.238  12.091  0.2553 -0.1701 -0.2113
 7491W        W22960  18.873   8.060  14.201  0.0071  0.3478  0.1655
 7492W        W22961  13.109   0.040   2.089  0.3347  0.1260  0.1375
 7493W        W22962  16.587  14.329  12.484 -0.1167 -0.1480  0.0774
 7494W        W22963  11.487  10.395  11.432 -0.0013 -0.2676 -0.5266
 7495W        W22964  10.312   8.314   1.950 -0.0697 -0.1719 -0.0887
 7496W        W22965   1.844  17.139   2.681 -0.2465  0.0647  0.1266
 7497W        W22966  17.968   0.145  10.819  0.0342 -0.1970 -0.0641
 7498W        W22967  13.446   5.575   4.270  0.0837  0.1826 -0.1423
 7499W        W22968  11.892  17.367   1.049  0.1202 -0.0014  0.0457
 7500W        W22969  16.693   9.864  14.888  0.0097 -0.0759  0.1546
 7501W        W22970   5.278   6.320   3.387 -0.0393  0.0300 -0.1722
 7502W        W22971   1.601  12.248   2.539 -0.1830  0.0152 -0.0699
 7503W        W22972   8.198   2.055   5.167 -0.5694  0.0528  0.0350
 7504W        W22973  17.698  14.696  15.460 -0.1260  0.0986 -0.0526
 7505W        W22974   6.451  16.176  14.649  0.0904  0.1410 -0.1839
 7506W        W22975  17.083   8.535  10.829 -0.0898 -0.0477  0.1445
 7507W        W22976   0.312  13.652   5.512 -0.1236 -0.1917  0.0078
 7508W        W22977  18.749   8.059  10.358  0.1725  0.2551 -0.2335
 7509W        W22978  10.929   0.832  15.482  0.1671  0.0102  0.0905
 7510W        W22979  16.594   2.258   4.387 -0.2515  0.2667 -0.0862
 7511W        W22980  12.834  11.119  14.314  0.0909 -0.0150 -0.1269
 7512W        W22981   4.639  17.913  12.105 -0.0969 -0.0336 -0.1608
 7513W        W22982   6.990  16.639   1.766 -0.0599 -0.3741 -0.0156
 7514W        W22983  11.340   1.640  11.469  0.0367  0.0967 -0.2235
 7515W        W22984   1.589   0.299   5.329  0.0882 -0.0097  0.0838
 7516W        W22985  11.786  17.595  14.318 -0.0880 -0.3142 -0.1136
 7517W        W22986   0.058  12.276   1.940  0.0578  0.0419  0.1357
 7518W        W22987  13.674   4.574   4.985  0.0616  0.1144  0.1173
 7519W        W22988  11.915   5.976  14.957 -0.0607  0.0564  0.0867
 7520W        W22989   8.016  10.406  14.529 -0.0071 -0.2576  0.4444
 7521W        W22990   8.447  18.528   3.059  0.0985 -0.0251  0.1602
 7522W        W22991   7.949  16.049   5.329 -0.0495  0.0279 -0.1468
 7523W        W22992   5.027  16.441   2.144 -0.1869  0.2603 -0.1301
 7524W        W22993  16.298  16.225  12.397  0.2769 -0.1494  0.1517
 7525W        W22994   2.523   7.753  11.637 -0.1006 -0.1835  0.2093
 7526W        W22995  17.363   6.272  13.906  0.1024 -0.0652 -0.1414
 7527W        W22996   0.129   4.857  12.131  0.2512  0.1116 -0.2483
 7528W        W22997  11.951   6.493  13.383 -0.0349  0.0435  0.0187
 7529W        W22998   9.726   6.983  12.844 -0.0037 -0.1852 -0.3090
 7530W        W22999  17.914  14.234   2.628 -0.4341 -0.0393  0.2011
 7531W        W23000   4.583  17.692   3.576 -0.1282  0.3065 -0.3176
 7532W        W23001   1.276  12.231   5.707 -0.2003  0.0312 -0.0461
 7533W        W23002   5.120   8.635  14.028  0.3231 -0.1267  0.4432
 7534W        W23003  12.458  15.729  12.278 -0.3428 -0.1985 -0.3206
 7535W        W23004   9.921  17.186  12.016 -0.0965  0.0837 -0.0881
 7536W        W23005  12.507   7.789  15.306 -0.2096 -0.0383  0.5335
 7537W        W23006   4.615  16.734   2.016 -0.0694 -0.1797 -0.2971
 7538W        W23007   6.749  16.764  15.314 -0.0693  0.1286  0.1393
 7539W        W23008   5.368   0.439   2.926 -0.0918 -0.0845  0.5884
 7540W        W23009   8.734   8.869   3.967  0.2764  0.1944  0.3137
 7541W        W23010   5.753  15.363   2.606  0.1127 -0.0006  0.2117
 7542W        W23011  10.669   2.049   1.156  0.1318  0.0707 -0.4673
 7543W        W23012   1.968  16.450   3.850  0.1840  0.0052  0.3829
 7544W        W23013   4.044  10.183   4.140  0.1884  0.1203 -0.3323
 7545W        W23014   5.427  17.703   2.016  0.1130 -0.2805 -0.5607
 7546W        W23015   7.608  12.722   3.859 -0.0181 -0.0959  0.0097
 7547W        W23016  15.434  11.211   0.354 -0.2400  0.1821  0.3342
 7548W        W23017   1.048  18.415   2.235  0.1785  0.0329 -0.0621
 7549W        W23018   3.942   4.740   9.889  0.0606  0.0389 -0.2277
 7550W        W23019  16.497  18.360   3.531  0.0271  0.0164  0.0703
 7551W        W23020   6.212  15.738   0.667  0.2366  0.0745  0.0035
 7552W        W23021   3.721   9.868  14.825 -0.5647 -0.1757 -0.0706
 7553W        W23022   5.583  13.518   4.907  0.1414  0.1723 -0.1226
 7554W        W23023  10.844  14.576   1.593 -0.1089  0.1166  0.0488
 7555W        W23024  10.053  15.123   2.767 -0.1942  0.0673 -0.0530
 7556W        W23025  13.927  13.940   4.583 -0.2298 -0.2269  0.3299
 7557W        W23026   8.098   4.973  15.251 -0.0437  0.2543  0.0294
 7558W        W23027  17.286   3.043   5.803  0.1422  0.1212 -0.2336
 7559W        W23028  12.111  15.006   0.995 -0.3003 -0.0178  0.5452
 7560W        W23029  13.147  15.002  14.475  0.2142 -0.0752  0.1499
 7561W        W23030  12.981   1.852   2.757  0.1457 -0.1007  0.1585
 7562W        W23031   6.689  14.037   4.805  0.1927  0.0881  0.2999
 7563W        W23032   4.065  18.148   2.543 -0.2032 -0.0215 -0.0066
 7564W        W23033  15.071  12.179  12.183  0.3329  0.0580  0.1300
 7565W        W23034   3.891  14.252  11.013 -0.0300  0.5366  0.0686
 7566W        W23035   9.610   2.718  15.139 -0.1490  0.3528 -0.2890
 7567W        W23036   6.040   2.498   0.300  0.0544  0.1264  0.2467
 7568W        W23037   7.240  16.388  12.351 -0.0603  0.3589  0.0323
 7569W        W23038   8.690   8.365  10.615 -0.2584 -0.6884  0.3117
 7570W        W23039   9.118   8.604  12.591  0.0801  0.0744 -0.1987
 7571W        W23040   6.371  12.368   2.174 -0.1172 -0.3886 -0.1610
 7572W        W23041  14.679  17.070   2.299 -0.3005 -0.0371 -0.0921
 7573W        W23042   3.916  15.522  11.934 -0.1413 -0.1313 -0.1876
 7574W        W23043   4.847   9.986   0.901 -0.0492  0.1150  0.0827
 7575W        W23044   0.599   8.448   3.704 -0.0148  0.0812 -0.4139
 7576W        W23045   9.956   6.097   4.710  0.0429  0.2653  0.1965
 7577W        W23046   2.024   7.715  11.254  0.4240 -0.0281 -0.0364
 7578W        W23047  13.786   1.491  13.472 -0.1689  0.4554 -0.3337
 7579W        W23048  13.748   0.158  11.446 -0.0464  0.0539 -0.0834
 7580W        W23049   8.130  15.931  11.365  0.2924 -0.1935  0.3370
 7581W        W23050   6.069   2.100   1.402 -0.1991 -0.1577  0.0373
 7582W        W23051  11.007   7.834  13.714  0.0074 -0.2673 -0.0111
 7583W        W23052   3.085   8.054  12.448 -0.1076  0.2090  0.4151
 7584W        W23053  13.930   4.563   0.506  0.0893 -0.0638 -0.0924
 7585W        W23054  17.302   3.351   2.835  0.0221  0.1468 -0.0251
 7586W        W23055   9.437   0.305  13.734  0.0860  0.3135  0.0910
 7587W        W23056   2.015  16.169   2.876  0.3495 -0.5219 -0.0798
 7588W        W23057   6.057  11.742  13.865 -0.1757  0.0152 -0.0533
 7589W        W23058  15.186  16.349  14.704 -0.2444  0.0250  0.0910
 7590W        W23059  18.699  13.095  11.407  0.1069  0.1182 -0.0719
 7591W        W23060   1.311   7.110   1.848  0.3177 -0.0149 -0.2145
 7592W        W23061  15.781   4.371  14.482  0.2711 -0.1803 -0.0690
 7593W        W23062  14.755   4.127   4.007  0.3337  0.1486 -0.4563
 7594W        W23063  14.891  13.655   9.647 -0.0138  0.2916 -0.0055
 7595W        W23064   0.822   5.436   5.369 -0.1495  0.0212 -0.2361
 7596W        W23065  12.204   3.810   2.225 -0.0303 -0.4265  0.2333
 7597W        W23066  17.466   5.857   2.763 -0.0544  0.0878 -0.1674
 7598W        W23067   0.943   3.138  14.243  0.1604  0.3008 -0.0370
 7599W        W23068  16.246   0.271  11.724 -0.0977  0.0935 -0.2680
 7600W        W23069  17.119  12.860   3.267 -0.2241 -0.2051  0.1861
 7601W        W23070  11.962  13.292  10.996 -0.2781 -0.1343 -0.3155
 7602W        W23071  15.812  17.651  13.059  0.0257  0.0459  0.1532
 7603W        W23072   7.756  10.493  13.446 -0.0585 -0.1106 -0.2689
 7604W        W23073   6.038   8.473   4.022 -0.2614 -0.0373 -0.0647
 7605W        W23074  11.626  15.578   2.725 -0.2095  0.0345 -0.0383
 7606W        W23075   8.489  11.266   3.492  0.3455  0.1607 -0.2540
 7607W        W23076   4.127   1.763  12.775  0.0221  0.0555 -0.0598
 7608W        W23077  12.914   0.063   4.594 -0.3755 -0.0495 -0.1079
 7609W        W23078  14.478  16.935   1.145  0.2597 -0.0870  0.1407
 7610W        W23079  12.653  14.321   5.008  0.0066  0.0172 -0.2020
 7611W        W23080  16.315  10.058  14.523  0.2282  0.0208 -0.4240
 7612W        W23081  12.654   5.568  15.304 -0.4221 -0.0191 -0.5195
 7613W        W23082   4.941   5.167   0.941 -0.1342  0.0593  0.0544
 7614W        W23083   1.777   5.412  13.833  0.3332 -0.0140 -0.2104
 7615W        W23084  15.896   4.800   4.472  0.0506  0.1465 -0.1071
 7616W        W23085   5.739   4.019  12.995  0.1083  0.0013  0.0945
 7617W        W23086  18.468   7.836  11.227 -0.1668  0.0743 -0.1616
 7618W        W23087   3.823  14.945   1.996  0.1433  0.0862 -0.2133
 7619W        W23088   8.811   1.212  15.306  0.0614  0.3353  0.2075
 7620W        W23089   2.633   7.177  14.456  0.0516 -0.3652  0.0919
 7621W        W23090   5.798   4.364  10.972  0.5022  0.1338 -0.1202
 7622W        W23091  13.976   0.693   0.745  0.1402  0.0440  0.2002
 7623W        W23092   5.513   7.581   2.077 -0.0542  0.4115 -0.0490
 7624W        W23093   4.309   6.581   1.429 -0.0100  0.0059  0.1771
 7625W        W23094   4.273   8.738   3.222  0.1697 -0.1440  0.4122
 7626W        W23095  18.778   7.565   0.818  0.2639 -0.1429  0.3103
 7627W        W23096  14.426   0.286   3.869  0.0900 -0.1847 -0.0990
 7628W        W23097   3.122   4.433  10.395 -0.1269 -0.2054 -0.0252
 7629W        W23098   0.819  15.715  12.209  0.0215 -0.0216  0.0354
 7630W        W23099  11.817   5.216  11.570 -0.0713 -0.2764 -0.1451
 7631W        W23100   9.224  13.098   2.656 -0.1579  0.0579 -0.1953
 7632W        W23101   2.479  15.394  14.515  0.3011 -0.1038  0.0097
 7633W        W23102  12.166  11.445  14.822  0.1169  0.2883 -0.2025
 7634W        W23103  11.689   9.643   0.712  0.3691  0.0402  0.2201
 7635W        W23104  13.252  18.936   3.126  0.1204 -0.0307 -0.2101
 7636W        W23105  12.450  11.329   0.726  0.0010  0.0950  0.0658
 7637W        W23106   2.877   1.497   2.127 -0.1337 -0.0783  0.1288
 7638W        W23107  17.872  18.906   2.317  0.1255  0.1330 -0.1462
 7639W        W23108  10.189   0.145   0.686 -0.3573  0.0171  0.0585
 7640W        W23109   0.536  11.710  13.045 -0.1577  0.1650  0.1780
 7641W        W23110  13.077  18.534  10.380  0.1909  0.0134 -0.0925
 7642W        W23111  14.493  17.893   1.666  0.1074  0.3281  0.0631
 7643W        W23112   7.482  16.502   1.729 -0.0092  0.0901  0.1291
 7644W        W23113   8.285   1.677   4.326 -0.2678  0.0091 -0.1942
 7645W        W23114   1.613   4.214  12.126  0.0733 -0.4017  0.2406
 7646W        W23115   0.794  15.030  14.651 -0.1867  0.1568 -0.1513
 7647W        W23116  13.496  12.569   0.873 -0.0402 -0.0558 -0.1906
 7648W        W23117   4.010  17.142   2.757 -0.2119 -0.1047  0.1024
 7649W        W23118  17.418  16.138   3.829  0.2112  0.2831 -0.3442
 7650W        W23119   5.247  10.882   1.760  0.3883  0.1014 -0.0868
 7651W        W23120   8.421   7.204  11.969  0.3086  0.2051 -0.1834
 7652W        W23121   8.329  16.195  10.281 -0.5651  0.1822 -0.1605
 7653W        W23122  18.814   5.754  12.107 -0.1253  0.3054  0.0557
 7654W        W23123   2.645  15.692   4.488 -0.5075  0.2244 -0.1630
 7655W        W23124   5.957  17.905   5.109  0.1181  0.2407  0.0584
 7656W        W23125  17.408   4.057  11.976  0.0896  0.0286  0.0719
 7657W        W23126  17.080   9.218  13.210  0.1636  0.2087  0.3307
 7658W        W23127   4.120  13.847  11.931  0.0064 -0.2831 -0.0707
 7659W        W23128   6.711  14.669   4.845  0.0439  0.1300 -0.0370
 7660W        W23129   4.954  16.853   3.830  0.0760 -0.1649  0.0139
 7661W        W23130   7.529   5.264   3.106 -0.3363  0.0955 -0.1378
 7662W        W23131  15.480   2.204   4.754  0.2935 -0.0175  0.0169
 7663W        W23132   0.523   5.263  13.520  0.0894  0.3551 -0.1007
 7664W        W23133   9.019  11.686   2.871 -0.3670 -0.1867  0.0677
 7665W        W23134  18.700  14.756   5.755 -0.1777  0.3419 -0.0444
 7666W        W23135   9.223  10.344  10.865  0.4013  0.2037 -0.0164
 7667W        W23136   1.718  17.686  11.510 -0.3057  0.1633 -0.0844
 7668W        W23137   3.549  15.908  12.842 -0.2363  0.2515 -0.4108
 7669W        W23138   9.381   5.233  13.777 -0.0061 -0.0339  0.0636
 7670W        W23139  11.397   1.323  14.013  0.2102 -0.2421  0.2873
 7671W        W23140  12.948  15.955  11.786 -0.0101 -0.2471 -0.4096
 7672W        W23141   3.248  12.672  15.298  0.1003 -0.0847 -0.1199
 7673W        W23142   6.836  11.618  11.285 -0.2850 -0.3726 -0.2890
 7674W        W23143   7.557   9.082  12.745 -0.1417  0.1145  0.0593
 7675W        W23144   2.106   8.464   5.436 -0.0078  0.5419 -0.1969
 7676W        W23145  18.341   5.991   3.951  0.0373  0.1249 -0.1910
 7677W        W23146   2.233   5.973  10.431  0.0652  0.1500 -0.3143
 7678W        W23147  10.969  17.831   1.212 -0.1939 -0.0226 -0.1986
 7679W        W23148   3.250   5.401   2.478 -0.1294 -0.0667 -0.2911
 7680W        W23149   2.578  18.377   3.399  0.2017  0.3029 -0.1390
 7681W        W23150  11.263   4.140  13.293 -0.1218  0.0726 -0.0995
 7682W        W23151  18.752   1.600   0.663 -0.0003  0.0837  0.0601
 7683W        W23152  18.559   0.128   1.010  0.0916 -0.1246 -0.2056
 7684W        W23153  15.438   2.795  12.198  0.3757  0.1532  0.0040
 7685W        W23154   6.671   0.930   5.545  0.2141  0.1493  0.2114
 7686W        W23155   9.523  12.028  12.012  0.1741 -0.4060  0.1957
 7687W        W23156  12.037  17.535  11.192 -0.2266 -0.1813 -0.0257
 7688W        W23157   8.606   6.223  14.989 -0.0601 -0.0195  0.1044
 7689W        W23158   1.919  13.204   1.570  0.2651  0.2719  0.2455
 7690W        W23159  15.080   6.625   9.786  0.1513  0.0242  0.3150
 7691W        W23160   3.812  18.789  13.806 -0.0606  0.1876  0.0699
 7692W        W23161  13.567   9.470  12.381 -0.0610  0.2183 -0.3740
 7693W        W23162  13.549  11.322  12.240  0.2042 -0.1634  0.0365
 7694W        W23163  13.011   4.502  10.253  0.2408 -0.1456  0.0066
 7695W        W23164   2.817   1.619   1.649  0.2005 -0.1400  0.2250
 7696W        W23165   8.809   0.557  13.942  0.3341 -0.1425  0.1666
 7697W        W23166   3.442   8.625  14.681 -0.3345  0.1944 -0.2827
 7698W        W23167   2.557   9.904  15.141 -0.3442  0.0136 -0.5987
 7699W        W23168   0.416  13.619  13.978 -0.0572 -0.1223 -0.1023
 7700W        W23169  14.248   5.808   2.551 -0.1314  0.1474  0.0174
 7701W        W23170   6.400  18.922  14.120 -0.2703 -0.0020 -0.1095
 7702W        W23171   4.561  10.381  12.019  0.2234  0.1563 -0.3447
 7703W        W23172   1.808  14.703   4.269  0.3667  0.1990  0.2255
 7704W        W23173  16.821  10.039  14.023  0.3460  0.3111 -0.2830
 7705W        W23174   9.017   3.066   2.274 -0.0472  0.1165  0.1003
 7706W        W23175  13.586   8.850  15.372 -0.0024  0.0442 -0.0411
 7707W        W23176  11.237   3.281  10.382  0.1239 -0.3147  0.0570
 7708W        W23177  14.823  13.438   3.003 -0.0166 -0.0903 -0.1370
 7709W        W23178   4.792   6.769  11.619 -0.2737  0.1297 -0.0617
 7710W        W23179  16.192  11.765   1.131 -0.1852  0.1547  0.1382
 7711W        W23180  17.236  16.312   0.277 -0.0784 -0.2277  0.0439
 7712W        W23181   1.237  16.253   0.449 -0.2570 -0.3126  0.1388
 7713W        W23182  12.947  18.474   3.115 -0.2348  0.2630 -0.1156
 7714W        W23183   6.406  12.199   0.107 -0.3837  0.2917 -0.1691
 7715W        W23184  14.496  15.827   4.687  0.0150  0.0480 -0.3497
 7716W        W23185   3.635  16.459  10.407 -0.1932 -0.2377 -0.0725
 7717W        W23186   5.135   3.100  11.177 -0.0264  0.2927  0.1665
 7718W        W23187  12.428  17.850  12.652  0.4748 -0.2192  0.2010
 7719W        W23188   4.124  12.296  15.184  0.0778 -0.0548 -0.1369
 7720W        W23189  10.094  10.090  15.459 -0.1415 -0.0067  0.2439
 7721W        W23190  10.458  18.764   4.010 -0.0639  0.2977  0.3573
 7722W        W23191  16.373   7.398   5.510 -0.3372  0.0491  0.2894
 7723W        W23192  16.290  10.196   4.773 -0.0155 -0.1238  0.2003
 7724W        W23193  17.192   9.708  13.363  0.1076  0.5120  0.0594
 7725W        W23194  10.270  16.775   3.978  0.0841 -0.1290 -0.2114
 7726W        W23195   2.534   7.385   3.786 -0.1732  0.0622 -0.0570
 7727W        W23196   1.125   6.378  13.943  0.1077  0.0938 -0.1954
 7728W        W23197   2.126   4.448   4.684 -0.0152 -0.0714  0.3479
 7729W        W23198  12.745   5.884  11.934  0.0690 -0.0824  0.1644
 7730W        W23199   1.477   2.192   4.002 -0.0984 -0.0096 -0.1253
 7731W        W23200  18.846   0.348  14.616  0.2870  0.0367 -0.1253
 7732W        W23201   4.052  12.907   1.721 -0.0525  0.1214 -0.0497
 7733W        W23202   8.235   9.736   1.362 -0.2090  0.1558  0.0768
 7734W        W23203   0.301   2.475   5.351 -0.0544  0.1823  0.3139
 7735W        W23204  14.262  12.378  15.084 -0.4199 -0.0397 -0.0236
 7736W        W23205   1.591  12.192   0.932  0.1195  0.1168  0.0859
 7737W        W23206   4.717   7.795  12.157 -0.0643 -0.0839  0.2321
 7738W        W23207   5.726  15.775   0.664  0.1986  0.0431 -0.1026
 7739W        W23208   8.292   8.444   0.663 -0.1369  0.0040 -0.3754
 7740W        W23209  17.609  18.597   1.407  0.3331  0.2505 -0.0236
 7741W        W23210   5.384  12.196  10.842 -0.1891  0.1049  0.1148
 7742W        W23211   5.544   4.086   3.786  0.0742  0.0455  0.2005
 7743W        W23212   9.486   1.805   3.879 -0.3054  0.1371  0.1398
 7744W        W23213   4.476  13.480  10.202 -0.1696  0.0391  0.1800
 7745W        W23214  13.297  17.574   3.475 -0.1369 -0.2715  0.3519
 7746W        W23215   8.142   4.587   2.985  0.1245 -0.1735  0.2263
 7747W        W23216  11.428  18.365  13.967 -0.1106 -0.3499  0.1513
 7748W        W23217   4.413  16.046   1.335 -0.0866 -0.0248  0.0774
 7749W        W23218  18.161   6.086  11.624 -0.0132  0.1345  0.1965
 7750W        W23219  13.769  14.601   1.963 -0.0526 -0.2045  0.1044
 7751W        W23220  10.174   7.606  15.212  0.1352  0.3588 -0.2297
 7752W        W23221   7.118   4.343   2.974 -0.1727  0.0529  0.2870
 7753W        W23222   2.327   9.828   1.810 -0.3131 -0.0845  0.1069
 7754W        W23223  16.496   5.410  15.001  0.1897 -0.0266  0.0298
 7755W        W23224  16.199  17.669   3.942 -0.0743  0.0129 -0.0934
 7756W        W23225  15.942   5.415   3.936  0.1852  0.1017 -0.0276
 7757W        W23226  14.245  11.211  10.838  0.1313 -0.1337 -0.0406
 7758W        W23227   8.537   6.658  15.237 -0.3013  0.3284  0.1826
 7759W        W23228   1.415   9.847   3.795  0.2047 -0.1744 -0.1771
 7760W        W23229  15.348  10.691  11.202  0.0306  0.1404  0.4200
 7761W        W23230  10.005   9.567  13.727  0.1775  0.0619 -0.2816
 7762W        W23231   7.763   1.393   0.162  0.1644 -0.1720 -0.3401
 7763W        W23232   5.912  15.678   1.196  0.4064  0.1002  0.4480
 7764W        W23233   6.521   4.374  13.426  0.1694  0.1510 -0.3757
 7765W        W23234  16.584   3.954  14.650  0.3060  0.1895  0.1862
 7766W        W23235  12.248   2.039  10.425 -0.0700 -0.0642  0.0998
 7767W        W23236  12.970  14.549  11.655  0.3504 -0.0407  0.2537
 7768W        W23237  11.541  10.644  12.749 -0.6118  0.0330 -0.0379
 7769W        W23238  18.387   8.007   0.947  0.1347  0.0274  0.1820
 7770W        W23239  10.949   7.994   0.321 -0.2637  0.1845 -0.1191
 7771W        W23240  17.040  14.510  10.553 -0.0259  0.0709 -0.1962
 7772W        W23241   2.485  11.639  13.649 -0.0162  0.1345 -0.2531
 7773W        W23242   9.475   8.003   3.271  0.3745  0.1718 -0.0587
 7774W        W23243  15.860   7.769   4.600  0.2607 -0.0709 -0.1891
 7775W        W23244   8.966   7.046   2.511 -0.2017  0.1075  0.1963
 7776W        W23245   2.096   5.890  12.225  0.3461  0.0873 -0.1673
 7777W        W23246   0.442   3.374   1.861 -0.0100 -0.1772 -0.2300
 7778W        W23247   0.945   0.231  10.092 -0.0035  0.1905 -0.2433
 7779W        W23248   6.336  11.990  13.531  0.0297 -0.2439 -0.2957
 7780W        W23249   7.463   0.013   3.968  0.1666  0.1916 -0.0606
 7781W        W23250   4.018   8.793  15.270  0.4204  0.1316 -0.3206
 7782W        W23251  13.149  12.407  13.428 -0.1855 -0.1121  0.0098
 7783W        W23252   0.133   8.378  10.478  0.2103  0.0345  0.2455
 7784W        W23253   5.734  17.322  15.218  0.0850 -0.0729  0.3127
 7785W        W23254  18.032   7.276   0.395 -0.0891  0.3504 -0.1140
 7786W        W23255  16.142  16.760  13.782 -0.3163 -0.0494  0.3883
 7787W        W23256  16.393  10.263   1.320  0.2131  0.2600 -0.2709
 7788W        W23257  10.571   6.728   2.457 -0.0807 -0.0160 -0.4648
 7789W        W23258  12.278  12.432   1.022  0.1601  0.1693  0.0517
 7790W        W23259   9.875  18.084  13.483 -0.2111 -0.2042  0.1232
 7791W        W23260  12.188   4.507  13.491  0.0360 -0.1346  0.1353
 7792W        W23261   7.343  16.439  11.011 -0.4042  0.0859  0.0252
 7793W        W23262  14.713   2.726   4.207 -0.0141 -0.1053  0.0310
 7794W        W23263   2.274   8.094   2.853 -0.1028  0.0507 -0.1581
 7795W        W23264  17.575  10.735   0.789 -0.0331  0.0710 -0.0627
 7796W        W23265  16.370   7.551   2.656  0.4133  0.0555  0.1250
 7797W        W23266   6.376   1.691   4.388 -0.1129 -0.1089 -0.1382
 7798W        W23267   3.217  14.809   4.721 -0.0303  0.0826  0.0251
 7799W        W23268   1.576   2.110   6.484  0.0660 -0.3979  0.0107
 7800W        W23269  18.362   3.481   2.821 -0.3810  0.1942  0.1596
 7801W        W23270   5.905   8.399  11.326  0.0834 -0.2877  0.2535
 7802W        W23271  17.793   4.558   0.522 -0.1084 -0.1488  0.1493
 7803W        W23272   6.639  13.139  15.078 -0.1796  0.1920  0.0784
 7804W        W23273   0.635   0.210   5.424 -0.4127  0.1003 -0.0291
 7805W        W23274   4.118  15.110   1.585 -0.4547 -0.1287 -0.3392
 7806W        W23275  10.267   8.631   1.494  0.1529 -0.0743 -0.1538
 7807W        W23276  13.579  16.244  14.245 -0.0546 -0.1301 -0.0644
 7808W        W23277   3.850   7.443  14.990 -0.4780 -0.0261 -0.0916
 7809W        W23278  11.017  15.411   1.920 -0.2130 -0.2533 -0.0865
 7810W        W23279  14.104  17.213   2.072  0.1342 -0.0698 -0.0872
 7811W        W23280  14.016  15.502   0.326  0.2825 -0.0677 -0.3282
 7812W        W23281  15.690  11.146  10.817  0.1009 -0.3556  0.1467
 7813W        W23282   1.568  16.709   5.013 -0.0799 -0.2031 -0.1089
 7814W        W23283  18.906   0.240   0.704  0.5286  0.0348 -0.0746
 7815W        W23284  14.509  14.796  13.169  0.0597 -0.2934  0.1241
 7816W        W23285  17.756   0.671  12.773 -0.0752  0.0413 -0.0356
 7817W        W23286  14.563   7.251  14.277  0.0279 -0.2173 -0.0674
 7818W        W23287  12.330   5.910   2.356 -0.0887 -0.0328 -0.2847
 7819W        W23288   6.575   8.585   3.786  0.1308  0.2074  0.1827
 7820W        W23289   6.524  14.423   2.403 -0.3710  0.1820 -0.0449
 7821W        W23290   4.336  16.332  12.294 -0.0218  0.1969 -0.2301
 7822W        W23291  16.800   7.352   1.420 -0.0891 -0.0428  0.2407
 7823W        W23292  12.025  12.851  12.906  0.1331 -0.1664 -0.0063
 7824W        W23293   6.660   1.868  14.720  0.0041  0.0547  0.1365
 7825W        W23294   7.103   5.272  11.763 -0.0608  0.1663 -0.1235
 7826W        W23295  14.131  12.379   2.667 -0.0251 -0.1616 -0.0081
 7827W        W23296  10.139   9.995  10.673  0.1263  0.1993  0.3442
 7828W        W23297   1.916   2.335  14.758 -0.0801  0.1089  0.0043
 7829W        W23298   6.532  18.527  14.929  0.2481  0.2379  0.0718
 7830W        W23299  14.430   6.887   2.770  0.3900 -0.1341 -0.1750
 7831W        W23300   4.249  14.173   0.026 -0.0819  0.0199 -0.2856
 7832W        W23301   8.611  13.514   4.206  0.0351 -0.0316  0.0924
 7833W        W23302  13.419  17.621   4.240 -0.0399 -0.2481 -0.1450
 7834W        W23303   6.527  11.249  12.611  0.1456  0.0079 -0.0353
 7835W        W23304   3.173   2.763  10.918  0.2015  0.2891 -0.1664
 7836W        W23305   0.504   1.618   0.725  0.2160  0.0424  0.0989
 7837W        W23306  17.162  12.984  10.814 -0.1780  0.0353 -0.2311
 7838W        W23307  13.521  13.904  12.052 -0.0164 -0.1452 -0.0249
 7839W        W23308  17.418  10.938  11.255  0.1788  0.2418  0.1206
 7840W        W23309  13.286  15.646   2.188 -0.0513 -0.2121  0.1232
 7841W        W23310  14.306   3.934   3.142  0.1356 -0.1434  0.0959
 7842W        W23311   6.731  10.375   4.178  0.3227  0.2363  0.1344
 7843W        W23312  10.708   8.079   1.595 -0.3866 -0.2303  0.7082
 7844W        W23313  10.784  18.872   2.361  0.5691  0.1374 -0.1391
 7845W        W23314   7.952   7.273  14.672  0.3623 -0.2928  0.1112
 7846W        W23315   6.910  15.699   3.594  0.1253 -0.0320 -0.1239
 7847W        W23316   4.074  10.267   3.246 -0.0822  0.0859 -0.2619
 7848W        W23317   9.119   2.597  14.847  0.0487  0.0124  0.2048
 7849W        W23318   6.371  12.744  14.814  0.0510 -0.3035 -0.2021
 7850W        W23319   5.297   0.147   1.935  0.2024 -0.0821 -0.0086
 7851W        W23320  18.448  10.031   4.380 -0.2347  0.2645  0.0797
 7852W        W23321  12.873  15.485  11.992 -0.0518  0.0866 -0.4274
 7853W        W23322  11.362  11.973  14.479  0.2085  0.1375 -0.2079
 7854W        W23323  15.933   0.047  13.700 -0.0682 -0.0969 -0.5276
 7855W        W23324   4.797  10.469  10.474 -0.0269 -0.0590 -0.1063
 7856W        W23325   6.172  12.283   6.118 -0.2176  0.1535 -0.2256
 7857W        W23326  18.216   9.614   4.275 -0.0502 -0.0219 -0.0225
 7858W        W23327  14.471   9.194  11.813  0.1864 -0.3523 -0.0026
 7859W        W23328  13.882  17.789   1.712  0.1843 -0.1455  0.0717
 7860W        W23329  18.647   3.042   5.195  0.0407 -0.2957 -0.2183
 7861W        W23330   5.824  14.560  12.384  0.1022 -0.2346  0.0260
 7862W        W23331  10.515  16.846  12.505 -0.3197 -0.1880  0.1762
 7863W        W23332  12.777   4.341  11.409 -0.5122  0.0896  0.4762
 7864W        W23333   6.957   4.501   9.775  0.2795  0.0294  0.1829
 7865W        W23334   5.320  10.654  13.468 -0.0852  0.0741 -0.0884
 7866W        W23335   0.395  12.604  11.979 -0.1868  0.1221  0.2417
 7867W        W23336   8.534  15.294  14.395 -0.1754 -0.0790  0.2075
 7868W        W23337   1.577   0.489  13.990  0.3116  0.1298  0.4205
 7869W        W23338  10.574  10.752   2.929  0.2084  0.0645 -0.0650
 7870W        W23339  17.179  11.642   2.199 -0.2748  0.1802 -0.1427
 7871W        W23340   9.504   9.820  14.142 -0.2491 -0.1078 -0.0425
 7872W        W23341   5.048  15.342   1.150 -0.2159 -0.1943  0.1929
 7873W        W23342   7.481  16.795   1.339  0.0101 -0.2745  0.0407
 7874W        W23343  16.028  15.699   4.944 -0.1979 -0.1668 -0.2730
 7875W        W23344  13.426  12.205   0.003 -0.0102 -0.0619 -0.0470
 7876W        W23345  17.265  16.660  12.710 -0.2894  0.1818  0.4966
 7877W        W23346   6.471   2.568  13.387 -0.2832 -0.3549 -0.1287
 7878W        W23347   5.216   5.991   5.852  0.0447  0.1645  0.0727
 7879W        W23348   2.411   0.165  15.496  0.3633  0.0374  0.0453
 7880W        W23349  17.805   7.698  15.188 -0.0192 -0.2732  0.2379
 7881W        W23350   1.146  18.271   4.605 -0.0747  0.0442  0.3033
 7882W        W23351  15.721  11.352   0.819 -0.0872  0.0984  0.0223
 7883W        W23352  13.995   7.208  15.147  0.1455  0.0058 -0.0506
 7884W        W23353  11.457   5.733  14.927 -0.0621 -0.0199 -0.3784
 7885W        W23354  17.517  16.408   3.008  0.2025 -0.0691  0.1443
 7886W        W23355   0.895   7.446   0.625  0.4508  0.0124 -0.2412
 7887W        W23356  18.795   9.947   1.729  0.0024 -0.0557  0.1545
 7888W        W23357   6.946   6.461  13.857 -0.2378 -0.2024  0.0100
 7889W        W23358   6.461   3.100   1.819 -0.5322  0.2390  0.2904
 7890W        W23359  15.664  10.942   5.689  0.1366  0.2250 -0.4133
 7891W        W23360  13.814   5.443   0.495 -0.3783 -0.0369  0.1111
 7892W        W23361  17.830   4.322  12.344 -0.1294 -0.1235  0.2415
 7893W        W23362  12.548  14.203   2.448 -0.0015 -0.2320  0.0155
 7894W        W23363   3.950  14.836   1.055  0.2366  0.2920 -0.0909
 7895W        W23364  12.823  17.303   4.322  0.1606 -0.3714  0.1285
 7896W        W23365  12.845   0.516  15.280  0.0018  0.0802 -0.0069
 7897W        W23366  11.652   3.101  14.479 -0.1387  0.1379 -0.1695
 7898W        W23367   8.100  10.953   3.537  0.1410  0.0650 -0.0044
 7899W        W23368   8.952   4.228   4.603 -0.0081 -0.0153 -0.1611
 7900W        W23369  18.242  15.096   3.037  0.1198 -0.3122  0.1174
 7901W        W23370   1.572  16.665  12.894 -0.1130  0.0909  0.3419
 7902W        W23371  10.109  12.969   2.244  0.2470 -0.0055  0.2473
 7903W        W23372  12.630   0.850   0.880 -0.2997  0.0755 -0.4104
 7904W        W23373   0.920  10.209   0.666  0.2314  0.4888  0.2602
 7905W        W23374  14.195   7.734   2.648  0.0036 -0.0082 -0.1093
 7906W        W23375   1.732   2.723   4.661 -0.1753  0.4142  0.0956
 7907W        W23376  12.465   6.332  11.056 -0.0879 -0.0115  0.2060
 7908W        W23377  11.293   6.546   4.171 -0.0624  0.0733 -0.0185
 7909W        W23378   5.239   2.316   4.165 -0.1676  0.0127 -0.3102
 7910W        W23379  12.066   8.336   1.382 -0.1458  0.1384 -0.0049
 7911W        W23380   7.211   2.608   0.836 -0.2631  0.1159 -0.2455
 7912W        W23381   4.386  13.219  15.234 -0.1795  0.0079 -0.2064
 7913W        W23382   3.514  17.870   0.153 -0.2031 -0.5992  0.0658
 7914W        W23383   8.382  11.610  10.748 -0.4036 -0.0645 -0.0129
 7915W        W23384  15.988   8.113   2.168 -0.2098  0.1174 -0.2067
 7916W        W23385  16.787  12.844   1.447  0.0601  0.0941 -0.1073
 7917W        W23386   0.016   2.969   9.644 -0.1032  0.1706 -0.0145
 7918W        W23387  14.279   0.036   0.293 -0.1416 -0.0282 -0.0409
 7919W        W23388  17.078   4.927   2.236  0.0989  0.0838 -0.1513
 7920W        W23389   3.976  14.100  12.472 -0.2059  0.1750  0.0796
 7921W        W23390  18.701   6.502   2.120 -0.3158 -0.0918  0.3707
 7922W        W23391   6.181   1.998  10.363  0.0647 -0.3232  0.4243
 7923W        W23392  17.904  11.190   1.162  0.1177 -0.1035  0.0548
 7924W        W23393  17.446  13.004   0.968  0.0119  0.0185  0.3930
 7925W        W23394  16.855  13.772   1.994 -0.0176 -0.1693  0.0661
 7926W        W23395   4.515   6.174  15.063 -0.0909  0.0618 -0.1772
 7927W        W23396   2.354  11.697   3.752  0.0550 -0.0529 -0.1251
 7928W        W23397   2.363  17.320  11.009 -0.0717  0.3009  0.1550
 7929W        W23398   9.338   2.909  11.351  0.0601  0.1110  0.3613
 7930W        W23399   3.188  14.687  15.484 -0.1869 -0.3497  0.2012
 7931W        W23400  17.263  11.274   4.695  0.0391 -0.0982 -0.2342
 7932W        W23401  13.089   7.937  14.194 -0.0062  0.0258  0.1251
 7933W        W23402   5.809   6.535   4.286 -0.1647 -0.0610  0.2278
 7934W        W23403   8.754   7.527   9.855 -0.1093 -0.0789  0.1001
 7935W        W23404  11.410   5.702  12.458  0.4411 -0.3128  0.1832
 7936W        W23405  14.445   9.200   2.462 -0.2895  0.1008 -0.1208
 7937W        W23406   9.418  10.918  14.678  0.0572 -0.0078  0.0425
 7938W        W23407  15.163  17.903  10.970 -0.1457 -0.2008 -0.0213
 7939W        W23408  14.775   9.925  13.359  0.1179  0.0487  0.3456
 7940W        W23409  16.497   7.937   1.090 -0.3590 -0.0178 -0.1292
 7941W        W23410   0.285   2.255   4.227  0.0723 -0.1150 -0.1357
 7942W        W23411   4.231  14.414  10.169  0.1965 -0.1871  0.2387
 7943W        W23412  11.322  14.074   1.479 -0.0048  0.0621 -0.0062
 7944W        W23413  11.734   1.809   4.788  0.1949 -0.1109 -0.1693
 7945W        W23414  17.462  18.270   0.343  0.3631 -0.0508 -0.1567
 7946W        W23415  16.012   6.433   1.579 -0.0087 -0.0217  0.0418
 7947W        W23416  18.941   6.914   0.010  0.2287  0.2880  0.0582
 7948W        W23417  17.552   3.007  14.317  0.2517  0.0119 -0.0314
 7949W        W23418  16.541  18.051   0.580  0.0962  0.1361  0.1514
 7950W        W23419  14.892   5.290   4.135  0.1502 -0.1732  0.3814
 7951W        W23420   3.266  16.992   5.040  0.1820 -0.2151  0.3861
 7952W        W23421  11.021   8.474   4.056 -0.1877 -0.0421  0.0349
 7953W        W23422   2.660   7.234   0.924  0.1974 -0.2158 -0.0292
 7954W        W23423  11.616   9.307   4.532 -0.2321 -0.0795  0.2482
 7955W        W23424   6.567   8.917   4.466 -0.3051 -0.2331 -0.0584
 7956W        W23425   8.551   3.649  12.096  0.1061 -0.3536 -0.3929
 7957W        W23426   8.320  10.597   0.616  0.0882 -0.0163 -0.0125
 7958W        W23427   5.038   6.518   4.309  0.2564 -0.3450 -0.1478
 7959W        W23428   8.627   0.814   4.056  0.0357 -0.2187 -0.0726
 7960W        W23429   6.185  15.696  13.547  0.1192  0.3031 -0.3577
 7961W        W23430  10.379  11.608   0.282 -0.0108 -0.1097  0.0965
 7962W        W23431   4.489   7.284  13.221  0.4790  0.1778 -0.1658
 7963W        W23432  17.979  18.864   3.942 -0.1693 -0.0305  0.1362
 7964W        W23433  11.838   7.093   2.904  0.0064 -0.2979 -0.1502
 7965W        W23434  14.843  10.974  14.955 -0.0745 -0.1755 -0.2072
 7966W        W23435  14.673  15.095  12.160 -0.1937  0.2930 -0.1744
 7967W        W23436  15.299   6.771   1.747 -0.0005  0.1031 -0.0227
 7968W        W23437   3.627   5.485   4.792 -0.0706  0.2524 -0.2850
 7969W        W23438   0.392   5.864   1.573  0.0955  0.1451 -0.2026
 7970W        W23439  10.745   5.030  14.699 -0.0470  0.0592 -0.1414
 7971W        W23440   9.168  14.558   2.356  0.2496  0.0333 -0.0493
 7972W        W23441   5.862   8.989  15.468  0.1490 -0.0651  0.0807
 7973W        W23442  17.253   1.479   1.472  0.0617 -0.1611  0.0708
 7974W        W23443  16.390  16.909  13.171 -0.0302  0.0146 -0.0396
 7975W        W23444  14.215   1.821   1.950  0.2540 -0.4450  0.1359
 7976W        W23445   7.262   4.606   0.783  0.0722 -0.0029  0.1701
 7977W        W23446   9.750   9.802   2.692  0.0016 -0.0450 -0.0255
 7978W        W23447   1.379   7.427  11.987  0.2905  0.1472 -0.1702
 7979W        W23448   8.403   8.975  12.273 -0.1261 -0.2765  0.0415
 7980W        W23449  10.716  11.058   0.308 -0.0484 -0.0332 -0.0285
 7981W        W23450   0.629   8.086   0.285 -0.0947  0.3261 -0.1418
 7982W        W23451   3.391  18.609  12.276  0.2552  0.0236  0.0929
 7983W        W23452  17.712  15.198  12.779 -0.1676 -0.1307  0.0708
 7984W        W23453  16.260  13.001  12.185  0.0927  0.1389  0.0251
 7985W        W23454  18.602   1.090   4.088 -0.2418  0.0591  0.0065
 7986W        W23455  14.295   1.652  12.642 -0.1455  0.1618  0.0699
 7987W        W23456  15.875   6.701   0.995 -0.0247  0.0791 -0.1278
 7988W        W23457   7.962  13.243   5.233  0.0809 -0.3277 -0.3335
 7989W        W23458  10.838  11.686   1.130  0.0205 -0.1275  0.0701
 7990W        W23459   4.830   4.652  13.007  0.0872 -0.0759 -0.4721
 7991W        W23460  10.861   6.378   3.304 -0.0035 -0.5239  0.1196
 7992W        W23461  17.236   7.473   2.276  0.1490  0.0038  0.0176
 7993W        W23462   6.497   2.852   3.019 -0.0297  0.1376 -0.2869
 7994W        W23463   1.230   8.234  11.786  0.0263  0.0283  0.0696
 7995W        W23464   4.231   0.067  12.261 -0.0563  0.4356  0.3049
 7996W        W23465  12.603   7.153  11.270  0.2856 -0.0784 -0.2632
 7997W        W23466  11.555  18.480   1.453  0.0732  0.1758 -0.0888
 7998W        W23467   8.157   1.062  11.091 -0.0118 -0.0266 -0.2888
 7999W        W23468   6.043   1.863   3.042  0.2138 -0.1218  0.2072
 8000W        W23469  16.975   5.522  15.351  0.2541 -0.0824 -0.3079
 8001W        W23470   2.525  10.133   2.156  0.3337  0.1837  0.2031
 8002W        W23471  14.923  10.220   3.446  0.1133 -0.1535  0.0292
 8003W        W23472   9.212  15.026  12.082  0.1989 -0.0185 -0.1006
 8004W        W23473  13.967  16.955  14.914 -0.1316  0.0147  0.3280
 8005W        W23474   3.210   8.619   3.263  0.1464  0.0895  0.0669
 8006W        W23475   4.370   3.381   0.430  0.3496  0.0092  0.1132
 8007W        W23476   8.749   7.570   3.329  0.0357  0.0884  0.1470
 8008W        W23477   5.321   7.094  13.665  0.1188 -0.0386 -0.0535
 8009W        W23478   9.162  15.442   2.701  0.0668 -0.1371  0.1977
 8010W        W23479   1.318   0.863   3.795  0.0595  0.1090 -0.0629
 8011W        W23480  12.868  17.553  11.378  0.0202 -0.1580  0.0607
 8012W        W23481   0.548  18.808   4.136  0.1617 -0.2868  0.0003
 8013W        W23482   9.788   3.450  14.248  0.1079  0.0845 -0.1555
 8014W        W23483  14.481  18.265  14.614  0.0944 -0.3071  0.0572
 8015W        W23484  16.219   7.892   5.350 -0.3912  0.0785 -0.1537
 8016W        W23485  13.213  12.447   1.519  0.0192  0.0750  0.4562
 8017W        W23486   2.113   3.016   4.572 -0.0906  0.1334  0.0211
 8018W        W23487   3.402   9.974  14.453 -0.1560 -0.0909  0.0471
 8019W        W23488   9.428   5.207   9.789 -0.0728  0.1258  0.1945
 8020W        W23489   0.296   1.863   3.727 -0.1661 -0.1175 -0.2396
 8021W        W23490  15.483   4.002   4.059  0.1337  0.3375 -0.1271
 8022W        W23491   8.488  13.025  13.759  0.2257  0.0368 -0.0444
 8023W        W23492   9.829   6.911   0.835  0.1484 -0.0365 -0.3594
 8024W        W23493   5.073   3.319   3.698  0.0462 -0.0318 -0.1391
 8025W        W23494  14.227  15.186  12.897  0.1236 -0.1639 -0.0788
 8026W        W23495   1.381  17.942  13.270  0.0094 -0.1674 -0.0699
 8027W        W23496   6.954   0.665  14.985  0.0233 -0.2322  0.0666
 8028W        W23497   0.747   6.555  11.603  0.0122  0.0820 -0.1557
 8029W        W23498  11.202   6.177  12.164 -0.0921 -0.3015  0.4122
 8030W        W23499  14.805   3.111  13.766  0.2094 -0.0904  0.2358
 8031W        W23500   2.410  15.390  11.577  0.2066  0.0947  0.0884
 8032W        W23501  16.764   6.981  10.543 -0.1703  0.0565  0.0281
 8033W        W23502   1.311  18.639  10.265  0.0703 -0.0804 -0.1735
 8034W        W23503   1.868   8.835   2.691 -0.0421  0.1206 -0.0041
 8035W        W23504  14.846  14.919   5.215  0.0312  0.4039  0.2154
 8036W        W23505   7.953   8.283   4.429 -0.1733  0.1768  0.1119
 8037W        W23506   8.700   1.800   3.993  0.0358  0.2528 -0.1318
 8038W        W23507  18.723   9.860   2.259  0.0573  0.1520 -0.0614
 8039W        W23508   2.243   8.587   3.013 -0.0487 -0.0889 -0.0127
 8040W        W23509   4.624  14.931   3.528  0.0483 -0.0591 -0.0541
 8041W        W23510   3.741   0.739  12.826 -0.0454 -0.0515  0.1101
 8042W        W23511  12.154  12.308  14.475 -0.3060 -0.1933  0.0816
 8043W        W23512   1.569  16.510  13.918 -0.1614 -0.3489  0.0918
 8044W        W23513   1.446  18.060  10.999  0.0383  0.0504  0.1517
 8045W        W23514  16.409  14.187  11.399 -0.3823 -0.0208 -0.2586
 8046W        W23515   1.293   8.424   5.080 -0.1566  0.1205 -0.0089
 8047W        W23516  10.007  13.326  14.254  0.2932  0.2635 -0.5601
 8048W        W23517   8.599  16.315  11.508  0.0578 -0.2187  0.1892
 8049W        W23518  12.624   6.630  10.521  0.1256 -0.2002 -0.0357
 8050W        W23519   1.003   3.838   4.867 -0.3580 -0.2158  0.0039
 8051W        W23520   1.424  16.925   5.457 -0.1714  0.2126 -0.4363
 8052W        W23521   0.960  16.019   5.141 -0.1340  0.0457  0.1569
 8053W        W23522  12.498   5.551   2.850  0.2525  0.3137  0.0564
 8054W        W23523  10.519  15.366   3.386  0.0856 -0.2221  0.1599
 8055W        W23524  16.052  14.613  13.783  0.1858  0.2352  0.0489
 8056W        W23525   3.109  17.248  15.231 -0.0424  0.1980  0.0038
 8057W        W23526   5.469   1.290  15.365  0.1633  0.0419  0.1294
 8058W        W23527   0.919   9.559   1.316  0.2421  0.3058  0.2790
 8059W        W23528  14.683   6.879  15.293 -0.0761 -0.0572  0.5134
 8060W        W23529   0.792  18.468   0.587  0.3466  0.0464 -0.1002
 8061W        W23530   9.217   1.531   1.005  0.1814  0.1630 -0.0936
 8062W        W23531  15.639  10.305   0.615 -0.0235 -0.0532  0.0255
 8063W        W23532  15.429  10.294  14.646  0.0561 -0.0177 -0.0656
 8064W        W23533   0.792   8.840  15.259 -0.3671  0.1681 -0.2179
 8065W        W23534   9.991   8.465  14.039 -0.0111 -0.1388 -0.1221
 8066W        W23535  18.358  13.940  13.775  0.0213  0.1879  0.3125
 8067W        W23536  13.829   4.725   0.968  0.3914 -0.0214 -0.1567
 8068W        W23537   2.034  14.295   1.568 -0.3130  0.1396 -0.2856
 8069W        W23538   5.839   2.507   1.846 -0.1176  0.2933  0.2356
 8070W        W23539   6.654   5.891  10.651  0.1096 -0.0379  0.1088
 8071W        W23540   1.182  11.099  10.353  0.0634  0.2104  0.3865
 8072W        W23541  12.737  17.179  13.691 -0.1408  0.0599 -0.1191
 8073W        W23542  10.817  13.243  12.107 -0.0569  0.1310 -0.5877
 8074W        W23543   1.496   2.541  12.018 -0.0934  0.3781 -0.1428
 8075W        W23544   3.000   5.171   3.590  0.2334  0.1917  0.0886
 8076W        W23545  14.349  15.949   0.156 -0.0194  0.0194  0.1829
 8077W        W23546   6.418   8.669  15.433  0.1121 -0.0577  0.4402
 8078W        W23547  13.555   2.837  13.403 -0.2175 -0.2895 -0.0407
 8079W        W23548   3.352  15.435  14.213 -0.1016 -0.1418 -0.1115
 8080W        W23549  17.464   8.934   3.835  0.1100  0.0275  0.1510
 8081W        W23550   9.780   1.569   2.032 -0.3754 -0.1407 -0.0754
 8082W        W23551   8.015  16.780   6.011 -0.2454  0.2642 -0.3073
 8083W        W23552  13.592  16.015   0.908 -0.1234 -0.0474  0.0018
 8084W        W23553  12.527   3.797   1.369 -0.5965  0.1620 -0.1547
 8085W        W23554   4.922   3.402  10.684 -0.3898 -0.0508  0.0519
 8086W        W23555  18.837  16.029   1.237  0.0910  0.0033 -0.2143
 8087W        W23556   8.267  11.356   5.141  0.2112 -0.0966  0.1634
 8088W        W23557  15.084  16.731  10.602  0.0775  0.0605  0.1268
 8089W        W23558  17.089  10.736  14.743 -0.0382 -0.2593 -0.0433
 8090W        W23559  18.396   3.556  15.254  0.1840 -0.2846 -0.0382
 8091W        W23560  18.934   7.312   4.342 -0.1925 -0.0370 -0.2360
 8092W        W23561   1.831   0.484  10.951 -0.1338  0.2832  0.1502
 8093W        W23562  13.345  10.108   1.649 -0.0451  0.2290  0.3103
 8094W        W23563  18.745   3.180  14.265 -0.0594  0.0583 -0.1511
 8095W        W23564   5.053  15.065  11.180 -0.0983  0.0074  0.0987
 8096W        W23565   7.030  17.672   0.175 -0.1357  0.2362 -0.1835
 8097W        W23566  18.340  12.512   3.872 -0.1233 -0.3309 -0.1424
 8098W        W23567  11.709  17.200  10.931 -0.0218 -0.2892  0.0884
 8099W        W23568   7.625   9.676   2.745  0.0493  0.1191  0.0293
 8100W        W23569   6.950  15.325   5.442  0.1996 -0.6085 -0.0416
 8101W        W23570  10.541   9.751  15.264 -0.0597 -0.1529 -0.2617
 8102W        W23571  18.859   3.111   4.406 -0.0948  0.0391  0.2366
 8103W        W23572  17.647   2.502  14.087  0.0392 -0.1146 -0.0746
 8104W        W23573   3.009  17.615   4.546  0.1063  0.1662 -0.2533
 8105W        W23574  18.523  12.740   3.004 -0.2457  0.0819 -0.1954
 8106W        W23575  11.910  11.871  14.352 -0.4185  0.2607 -0.2114
 8107W        W23576  11.637   1.775  13.907 -0.2113  0.1414  0.3409
 8108W        W23577   6.267   4.250   9.669  0.4181  0.0893 -0.5487
 8109W        W23578  16.234  16.314  14.403 -0.0555  0.2871 -0.1327
 8110W        W23579   8.872  14.985   3.114  0.1275  0.1987 -0.1580
 8111W        W23580   5.391   0.256   3.948  0.1436  0.1270 -0.1922
 8112W        W23581   4.326  15.082  15.430 -0.1137 -0.0280 -0.0907
 8113W        W23582   4.330  13.024   2.264 -0.3702 -0.0700 -0.2033
 8114W        W23583  14.109   0.508  12.274 -0.1976  0.0210  0.0023
 8115W        W23584  17.227  16.773  11.806 -0.0323  0.2351 -0.1576
 8116W        W23585   2.188   4.092   5.833  0.2616 -0.1397 -0.0272
 8117W        W23586  15.474   9.226  12.405  0.4685 -0.3887  0.1267
 8118W        W23587   0.873  18.902   0.936 -0.0465  0.0639  0.3329
 8119W        W23588   9.406  18.529   1.060 -0.2130 -0.0582 -0.1318
 8120W        W23589   5.809  12.936  15.374  0.1049  0.1111 -0.0680
 8121W        W23590  11.866   0.932   3.788  0.1023  0.0513 -0.1565
 8122W        W23591  17.436  11.087   4.183  0.0703 -0.0228  0.1343
 8123W        W23592  16.131   0.875   4.034 -0.0123 -0.1534  0.3363
 8124W        W23593  17.410   8.551   4.590  0.1273  0.0389  0.0756
 8125W        W23594  13.237   7.245   2.629 -0.1513  0.2206  0.0079
 8126W        W23595   9.792  15.180  15.022 -0.0475  0.1137  0.2266
 8127W        W23596  10.754   4.362   4.187  0.0562  0.0351 -0.0128
 8128W        W23597  12.513   8.608  13.115  0.0314 -0.1238  0.3268
 8129W        W23598  14.061  18.504   0.448  0.2588 -0.1802  0.0833
 8130W        W23599   7.519   6.372  11.088  0.2396 -0.1111  0.0394
 8131W        W23600  18.067   8.739   1.772  0.1306 -0.1409  0.1932
 8132W        W23601  13.764   3.187   1.547  0.0672 -0.0525  0.1737
 8133W        W23602  10.384   0.473   4.783 -0.0727  0.2427  0.0811
 8134W        W23603  15.683   7.993  11.125  0.4089  0.2043 -0.2106
 8135W        W23604   8.164  12.979   1.873  0.0091  0.2450  0.1712
 8136W        W23605   8.412  12.149  12.511 -0.4946  0.0341  0.0095
 8137W        W23606  16.807  13.523   5.327 -0.0483 -0.2702  0.1998
 8138W        W23607   6.020  15.742   0.202 -0.1467  0.0757 -0.0669
 8139W        W23608  13.712   9.202   2.361  0.0684 -0.1524 -0.2188
 8140W        W23609   3.413   0.521   3.595  0.1918  0.2137  0.0871
 8141W        W23610  17.681  13.113  12.134 -0.2261  0.0394 -0.1513
 8142W        W23611  13.291  16.614   0.995  0.1748 -0.2391 -0.0818
 8143W        W23612  12.657   6.540   1.578  0.3546  0.1446  0.1061
 8144W        W23613   0.969  14.270  14.297  0.2195  0.0350 -0.0366
 8145W        W23614   3.197  11.777   2.268  0.0372  0.0778 -0.1837
 8146W        W23615  12.683   3.159  11.269  0.1458 -0.0308  0.0201
 8147W        W23616  14.607   1.613  14.101  0.1012 -0.3543  0.1234
 8148W        W23617  11.111   4.017   3.240  0.1464  0.1400 -0.0066
 8149W        W23618   1.878  18.388  12.232  0.2702  0.0124  0.1837
 8150W        W23619  13.532  12.597  13.156  0.2750 -0.0157  0.0557
 8151W        W23620  12.711   6.087   3.000 -0.3652  0.1164  0.3659
 8152W        W23621   5.745  18.861   4.167  0.1652 -0.1104 -0.3331
 8153W        W23622  11.112   8.264  11.438 -0.0901  0.0001 -0.2663
 8154W        W23623  12.313  10.492  10.675  0.1691 -0.2716  0.0822
 8155W        W23624   3.514   5.647  14.741 -0.3500 -0.1066 -0.0675
 8156W        W23625   6.780   6.285  14.300 -0.2312  0.1022 -0.2013
 8157W        W23626  15.414   0.353   5.772  0.2219  0.0176 -0.0892
 8158W        W23627  16.258   2.811  14.716  0.2391 -0.0340 -0.0866
 8159W        W23628   0.145  13.433   4.981  0.0805 -0.1161  0.2130
 8160W        W23629   6.667  17.416   5.051 -0.2199 -0.0499  0.2322
 8161W        W23630  18.658  18.095   9.635 -0.0675  0.1000 -0.0058
 8162W        W23631   1.196  12.568  12.415 -0.0305  0.0647 -0.1057
 8163W        W23632  12.598  11.776   3.115  0.3067  0.1820 -0.4247
 8164W        W23633   3.992  18.232   1.063  0.0770 -0.1786  0.2731
 8165W        W23634  11.411  18.601   4.482 -0.2875 -0.1740 -0.0111
 8166W        W23635   5.128   9.296   3.999  0.0867 -0.1701 -0.0936
 8167W        W23636  12.661   4.992   2.533  0.0750  0.1564 -0.2758
 8168W        W23637   2.647   5.147  14.479 -0.5295 -0.2610 -0.1451
 8169W        W23638  17.477   9.402   0.207  0.1681 -0.1607  0.3328
 8170W        W23639   3.125  17.273   0.296 -0.0447 -0.3658  0.0982
 8171W        W23640   3.810  13.517   5.211 -0.2101 -0.0703  0.2057
 8172W        W23641  13.047  16.182   2.225 -0.0474  0.2915  0.0862
 8173W        W23642   5.615   7.547  15.119  0.0032  0.0355 -0.0158
 8174W        W23643  15.579   3.224   3.316  0.0583 -0.1978 -0.0103
 8175W        W23644   6.235  10.082   5.789 -0.1591 -0.0379 -0.2670
 8176W        W23645   4.985  18.866   3.163  0.1855 -0.3146  0.3539
 8177W        W23646   5.454  17.425  14.052  0.1274 -0.3731  0.1179
 8178W        W23647  10.024  14.224   2.739  0.3260 -0.2615  0.2467
 8179W        W23648   4.037   6.800   4.902  0.0497 -0.0619 -0.0946
 8180W        W23649  18.748  16.892  12.033 -0.1759 -0.0801  0.0620
 8181W        W23650  13.946  16.744   0.413  0.1104 -0.4152 -0.4158
 8182W        W23651   8.701   5.190   0.902 -0.0038  0.1368  0.1317
 8183W        W23652  17.088   8.280  15.426 -0.3675 -0.0584  0.5533
 8184W        W23653   6.145  15.731   4.732  0.1363  0.0665  0.1287
 8185W        W23654   5.482   1.890  11.671  0.3370  0.1159 -0.3220
 8186W        W23655  17.003  16.689  11.103  0.4228 -0.1909 -0.0166
 8187W        W23656   2.596  16.728   5.096 -0.0187 -0.0460 -0.0106
 8188W        W23657   0.238  14.200  13.815 -0.0030  0.2935  0.1976
 8189W        W23658   3.337  16.175   4.905  0.1131 -0.3062 -0.1761
 8190W        W23659  15.750  11.621   4.267  0.1312 -0.1403  0.1112
 8191W        W23660   7.495   5.526   9.784 -0.1382  0.0882  0.1361
 8192W        W23661  12.009  15.634   4.371 -0.1792  0.0770 -0.1710
 8193W        W23662  12.433   7.373   0.082 -0.3656 -0.2643 -0.1820
 8194W        W23663  15.509   7.160  12.364  0.1730 -0.2988 -0.1237
 8195W        W23664   7.506   6.596   2.135  0.0176  0.0949 -0.1018
 8196W        W23665  13.234   9.383   3.533  0.0179 -0.2250 -0.0396
 8197W        W23666   0.511  11.503   2.798 -0.0154  0.1775  0.1349
 8198W        W23667   8.743  12.159   0.868 -0.0932 -0.0476  0.2152
 8199W        W23668   1.113   4.377  15.193  0.3606 -0.0197  0.2476
 8200W        W23669   0.697   8.001   0.847  0.0081  0.0720 -0.3365
 8201W        W23670   9.357  18.199  11.952  0.2174  0.0725 -0.2900
 8202W        W23671   4.057   6.617   0.121 -0.1574 -0.2147  0.1672
 8203W        W23672  17.073   2.091   3.538  0.1356  0.0116  0.1784
 8204W        W23673  17.517  16.118   4.835 -0.3656  0.0569  0.1436
 8205W        W23674   5.269  15.798  11.251  0.2043  0.2692  0.0278
 8206W        W23675   0.051   6.998   4.778 -0.1164 -0.0736  0.3336
 8207W        W23676  13.235  17.451  10.970 -0.0970  0.0935  0.1412
 8208W        W23677   0.163   1.309   0.026  0.0876  0.0389 -0.2541
 8209W        W23678  18.614  15.311  14.461  0.0844 -0.3091  0.4797
 8210W        W23679   2.874   9.945  13.207  0.3315 -0.0328  0.0231
 8211W        W23680   8.635   0.304   4.429  0.1089  0.0679 -0.0335
 8212W        W23681  10.391   8.833  11.107 -0.1392 -0.3665  0.3795
 8213W        W23682   7.938  11.943  12.619  0.0035  0.1769  0.4082
 8214W        W23683  16.659  14.872  12.399 -0.3017  0.0188  0.1529
 8215W        W23684  14.313  10.538  15.384 -0.0179 -0.1455 -0.1112
 8216W        W23685  10.845   2.693   0.414  0.1756  0.1448  0.0618
 8217W        W23686  16.800   2.924  10.343 -0.2685  0.0127  0.4618
 8218W        W23687  15.355   8.368  10.197  0.1335  0.1040  0.1338
 8219W        W23688  13.922  10.232  14.419  0.0787 -0.2445 -0.0119
 8220W        W23689   1.638  17.667   4.627  0.0912  0.0520 -0.3421
 8221W        W23690  11.381   9.131   1.535 -0.1511  0.0646 -0.1930
 8222W        W23691   0.210   9.096  11.474 -0.0606 -0.0187 -0.1199
 8223W        W23692   9.905   3.917  14.081  0.0126  0.0135  0.1859
 8224W        W23693   3.675   4.063   2.207  0.1255  0.0643  0.0697
 8225W        W23694  17.075   1.658   5.014 -0.1752  0.0881  0.2583
 8226W        W23695  11.095   6.243  10.402  0.2519 -0.1238  0.2330
 8227W        W23696   8.415   6.404   3.907 -0.1765 -0.1864  0.0112
 8228W        W23697  17.905  18.589  12.881 -0.2052 -0.0698  0.0121
 8229W        W23698   1.611   6.194   3.056  0.0652  0.5776 -0.1364
 8230W        W23699  12.706  15.902   5.411 -0.1367  0.3854 -0.3735
 8231W        W23700   6.362   2.737  15.105  0.0451 -0.1159 -0.0159
 8232W        W23701  16.779  11.595   4.073  0.4162  0.3411  0.5023
 8233W        W23702   1.822   5.620   3.323 -0.1423 -0.1497 -0.1161
 8234W        W23703   5.469  10.317  15.445 -0.1326  0.1322  0.4668
 8235W        W23704   3.688  14.592  13.222 -0.2130 -0.0241 -0.0882
 8236W        W23705   3.757  13.259  11.325  0.5261  0.1494  0.2645
 8237W        W23706   4.988  17.993  10.747  0.0996  0.0722 -0.0244
 8238W        W23707   1.911   3.383  15.376 -0.0006 -0.1055 -0.1033
 8239W        W23708  17.050   1.194  14.687 -0.1967  0.0400  0.0974
 8240W        W23709  16.555  13.320  12.919  0.1594 -0.0324  0.0396
 8241W        W23710   5.767  17.541   1.624 -0.2798  0.1354  0.1349
 8242W        W23711   9.330  14.381  14.823 -0.1024  0.1934  0.1292
 8243W        W23712   4.326   5.862  11.776  0.0549  0.0903  0.0733
 8244W        W23713   9.574  11.645  13.883 -0.2617  0.0299  0.1718
 8245W        W23714  14.555   3.578   0.165  0.1448  0.2082  0.3825
 8246W        W23715   2.863   2.819   3.784 -0.0911 -0.0101  0.3429
 8247W        W23716   9.357   0.484  11.186  0.1387 -0.0927 -0.1883
 8248W        W23717  13.702  10.955  10.137  0.3352 -0.0535 -0.1440
 8249W        W23718   1.996   4.782   2.183  0.0422 -0.5182  0.0787
 8250W        W23719   8.991   3.962  13.163 -0.2941 -0.4264 -0.1055
 8251W        W23720   2.746  17.082   4.188  0.0648  0.2458 -0.0213
 8252W        W23721  18.143   4.478  12.780  0.1567  0.3497  0.0516
 8253W        W23722   3.868   2.546   1.410  0.1985 -0.1327 -0.0796
 8254W        W23723   6.918  10.156  12.985 -0.0369 -0.2630 -0.0538
 8255W        W23724   9.432  15.995   1.944  0.1650 -0.0418  0.3142
 8256W        W23725   5.046   6.559   2.088  0.1248 -0.0641  0.0688
 8257W        W23726  17.385   0.896  11.069 -0.2521  0.1341  0.0441
 8258W        W23727   4.240   6.383   1.000 -0.3591  0.1207 -0.0332
 8259W        W23728   6.762   5.555   1.882 -0.1339  0.0541 -0.3803
 8260W        W23729   2.404   0.661  10.323 -0.0623 -0.0021  0.3339
 8261W        W23730  11.478   1.821  12.470 -0.2782  0.1213  0.1876
 8262W        W23731   2.711  13.519  15.061 -0.1184 -0.0071  0.2934
 8263W        W23732   6.913  16.837  13.629  0.1255 -0.0914 -0.2130
 8264W        W23733   6.217  12.903   1.429 -0.2212  0.0296  0.1509
 8265W        W23734  11.437  11.161   4.827  0.0538  0.1767  0.1507
 8266W        W23735   4.859  15.603  13.400 -0.0855 -0.0273  0.1946
 8267W        W23736   8.224   6.963  10.037 -0.2619 -0.2017 -0.0917
 8268W        W23737   9.722  18.168  13.995  0.0405  0.0618 -0.1358
 8269W        W23738  16.637  11.350   0.906  0.2284  0.1026  0.4948
 8270W        W23739  13.658   8.775  10.790  0.0800  0.2249  0.1188
 8271W        W23740  14.108   0.507   1.182 -0.2260 -0.0505  0.4036
 8272W        W23741   6.928  14.342   5.208 -0.0020  0.2615 -0.2090
 8273W        W23742  15.581   6.545  15.213 -0.5399  0.0186 -0.3032
 8274W        W23743  16.621  18.257  12.635  0.1086  0.2042 -0.1450
 8275W        W23744   6.429  12.262  12.583 -0.3627 -0.2213 -0.1022
 8276W        W23745   6.168   6.133   1.348 -0.2728  0.1083  0.1820
 8277W        W23746   1.055  13.085   2.743  0.0931  0.2847  0.0365
 8278W        W23747  15.757   4.052  11.146  0.2553  0.0106  0.2244
 8279W        W23748  11.864  16.508   3.674  0.2994  0.0913  0.1000
 8280W        W23749  15.946   3.044   4.246 -0.2053  0.1635 -0.3110
 8281W        W23750   6.484   0.009  14.730 -0.0976 -0.2896  0.2220
 8282W        W23751  10.860   7.563   0.029 -0.1468 -0.0342 -0.2001
 8283W        W23752   2.775   1.374   5.255 -0.2553  0.1553  0.3063
 8284W        W23753  13.467   4.038   1.567 -0.4167 -0.3431  0.0188
 8285W        W23754  16.605   6.599  12.807  0.3404  0.1103 -0.1896
 8286W        W23755   7.046   6.385   1.531  0.1608  0.0113 -0.1043
 8287W        W23756   7.471   9.175   0.795 -0.1970  0.0662  0.1650
 8288W        W23757  10.741   5.914  12.133 -0.1711 -0.1536  0.1432
 8289W        W23758  12.239   1.406   1.819  0.1253 -0.1382  0.0157
 8290W        W23759  12.444   7.025   3.170  0.1162 -0.1223  0.0945
 8291W        W23760   4.495  17.275  11.168 -0.0111 -0.3187 -0.2412
 8292W        W23761   9.292   4.187   1.283 -0.0933 -0.1523  0.1577
 8293W        W23762  11.786   5.959   2.472  0.0194  0.0900  0.0579
 8294W        W23763   8.921  17.999   2.990 -0.0872  0.0403 -0.0978
 8295W        W23764  11.354  15.746   1.296 -0.0110 -0.2434 -0.1500
 8296W        W23765   9.451   6.283  14.458  0.3186  0.0470 -0.1311
 8297W        W23766  14.988  15.351   1.023 -0.0628 -0.1800  0.4931
 8298W        W23767  13.887  12.754  14.909 -0.0369 -0.2178 -0.1423
 8299W        W23768   3.966  14.599   1.720 -0.2201  0.2534  0.1425
 8300W        W23769   5.796   0.586   5.138 -0.0522  0.3379 -0.2136
 8301W        W23770  13.956  12.985   5.550  0.2533 -0.1123 -0.4315
 8302W        W23771   6.115  16.121  12.237 -0.4720 -0.1458 -0.0639
 8303W        W23772  12.196   2.999   1.555 -0.1112  0.0264 -0.4081
 8304W        W23773   7.823   3.997   2.305 -0.3606  0.1341  0.3400
 8305W        W23774   2.956  16.437   5.296 -0.2441 -0.2104 -0.0336
 8306W        W23775  10.649   8.939   1.264  0.2642  0.0748 -0.0033
 8307W        W23776  16.469   1.588   0.598 -0.0193  0.0849  0.0778
 8308W        W23777   5.272  18.325  10.469 -0.1421 -0.1419  0.0439
 8309W        W23778  17.717   1.316   1.660 -0.1027 -0.0095  0.1409
 8310W        W23779   3.001   0.350   0.420 -0.1332  0.0363  0.1641
 8311W        W23780  14.963  15.951  14.901  0.0377  0.0818 -0.0884
 8312W        W23781  15.452   5.506  13.192  0.0943 -0.0688 -0.3497
 8313W        W23782  10.210   9.018   3.557  0.0503 -0.2490 -0.0983
 8314W        W23783  16.985   4.741  10.935 -0.2209  0.3637  0.4708
 8315W        W23784   4.113   6.739  10.451  0.1879 -0.2340  0.0250
 8316W        W23785   9.530  13.671   1.744  0.5346 -0.1957 -0.0400
 8317W        W23786   1.310  10.190  14.882  0.0299  0.0628 -0.0913
 8318W        W23787  17.473  13.318   4.470 -0.1545 -0.2035  0.2722
 8319W        W23788  16.295  12.906   4.090 -0.0889 -0.2602  0.0071
 8320W        W23789   6.652  12.356  11.104 -0.2612  0.1416 -0.1137
 8321W        W23790   7.592   1.343  12.188 -0.3698  0.3429 -0.0289
 8322W        W23791   1.727  18.408  10.563 -0.1679 -0.2906  0.1001
 8323W        W23792  12.515  18.222   4.035  0.0538  0.0280 -0.0573
 8324W        W23793   7.847   3.015  11.228 -0.2755  0.3635  0.0286
 8325W        W23794   9.461  10.791  10.778 -0.0814  0.3446  0.0927
 8326W        W23795   8.939  18.409   3.399  0.3830  0.0326 -0.0637
 8327W        W23796  15.766   5.541  10.946  0.1918 -0.0748 -0.0706
 8328W        W23797   8.190   1.703   3.783  0.0908  0.2117  0.1650
 8329W        W23798  15.512  12.728   0.831  0.0091  0.3648  0.0437
 8330W        W23799   8.546   9.964  12.110 -0.1194  0.2048 -0.0664
 8331W        W23800  15.874   5.887   3.766 -0.2553 -0.1594 -0.3291
 8332W        W23801  11.265   5.256  10.197 -0.2421 -0.2545  0.3654
 8333W        W23802  17.800  16.158  12.880 -0.1402 -0.0205 -0.0503
 8334W        W23803   9.239   0.237   3.022  0.0617 -0.2782  0.2281
 8335W        W23804  12.026  14.719  10.160  0.2137 -0.1370  0.2549
 8336W        W23805  12.433  14.244  10.989  0.1728 -0.0345  0.1105
 8337W        W23806   4.701  11.290  10.907  0.3998  0.0625 -0.0454
 8338W        W23807   5.841   8.363   1.411  0.0027  0.0672 -0.0097
 8339W        W23808   3.269  18.815   0.895 -0.1462 -0.0480  0.2174
 8340W        W23809   1.708   8.133   2.058 -0.1027 -0.3181 -0.1811
 8341W        W23810  14.500  11.484  14.427  0.0677 -0.1926  0.0828
 8342W        W23811   4.591  18.181   4.748 -0.1911 -0.1492 -0.1062
 8343W        W23812   3.376  12.174   1.205 -0.3274  0.2134 -0.2819
 8344W        W23813  16.854  16.479   2.519 -0.2287 -0.0166 -0.2108
 8345W        W23814  13.216  13.270  11.390 -0.2805 -0.1851  0.2107
 8346W        W23815  15.827   6.055   1.962 -0.1100 -0.2397  0.2270
 8347W        W23816  16.800   6.693   2.864  0.3045 -0.1217  0.1255
 8348W        W23817   3.459  10.360  11.970 -0.0958  0.0533  0.1234
 8349W        W23818   5.888  16.245  10.945  0.1826 -0.0920  0.0915
 8350W        W23819  15.798   9.077  14.449  0.0085 -0.3197  0.0270
 8351W        W23820  11.937   9.582   3.809 -0.0604  0.1901 -0.2302
 8352W        W23821   0.202   0.104   5.135  0.1816 -0.2251 -0.0599
 8353W        W23822   8.465  13.322  12.296  0.0587 -0.0314 -0.1421
 8354W        W23823  10.506  12.706   0.350  0.0284  0.2369 -0.1030
 8355W        W23824   7.805   7.403   2.362 -0.1468  0.3540  0.0403
 8356W        W23825  14.423  15.265  14.074  0.0820  0.1827  0.2984
 8357W        W23826   7.136   3.838  14.984 -0.3224 -0.0466  0.1086
 8358W        W23827   2.062  11.994  12.126  0.0426  0.1886  0.2368
 8359W        W23828   7.694  15.769  15.032  0.1304  0.1244  0.3189
 8360W        W23829  13.938  12.490  13.471 -0.4646  0.5099  0.1554
 8361W        W23830   1.827   8.666  15.417 -0.0923  0.2610  0.3279
 8362W        W23831  16.801  17.939  11.630 -0.1476  0.1012  0.0299
 8363W        W23832  11.274  13.041  12.165 -0.0577  0.1012  0.0925
 8364W        W23833  12.465   4.830  13.761  0.1834  0.0395  0.3154
 8365W        W23834  17.573   3.898  10.727 -0.3027 -0.4802 -0.0179
 8366W        W23835   1.713  13.023  14.486  0.3929  0.1842  0.1372
 8367W        W23836   6.303  12.660  13.552 -0.2332 -0.4316 -0.0933
 8368W        W23837  12.217  17.053   2.879 -0.1356  0.0781  0.0255
 8369W        W23838  13.572  17.869   5.242 -0.2062  0.1056  0.3984
 8370W        W23839  12.144  15.308   0.038  0.0832  0.0664  0.0725
 8371W        W23840  16.759   1.032   4.495 -0.1682  0.3049  0.0567
 8372W        W23841  18.154   9.178  11.793 -0.0263 -0.2239  0.1587
 8373W        W23842  16.093   2.045  12.786 -0.3603  0.0466 -0.2779
 8374W        W23843   5.704   7.450  11.511  0.0451  0.2784  0.1257
 8375W        W23844   9.280   7.857   0.093 -0.4538  0.0954 -0.0748
 8376W        W23845  12.904  13.232   6.641 -0.0022  0.0310  0.0533
 8377W        W23846  11.276  18.603  13.105 -0.3737  0.1083  0.0716
 8378W        W23847   7.816   1.618  12.471  0.0185 -0.3250 -0.1858
 8379W        W23848   0.105   6.413  10.320  0.0326 -0.1869  0.0643
 8380W        W23849  15.987  16.274  11.265  0.0708 -0.0529  0.1909
 8381W        W23850   4.342   8.070  12.977 -0.0748 -0.1866  0.0493
 8382W        W23851  15.480  15.719   2.115  0.1940  0.0107 -0.3328
 8383W        W23852   8.364  16.041   1.604  0.3468 -0.1823 -0.0018
 8384W        W23853  11.708   2.226   4.547 -0.2480  0.1715  0.2709
 8385W        W23854  12.231   2.406   3.204  0.1035  0.0482  0.3585
 8386W        W23855  15.209  10.176  13.828  0.1587 -0.0597  0.0852
 8387W        W23856  12.140   2.606  15.173 -0.2341 -0.0508 -0.0577
 8388W        W23857  12.464  17.106  11.944 -0.0397 -0.0790  0.0880
 8389W        W23858  10.740  18.745  12.158 -0.2601 -0.2044  0.1592
 8390W        W23859   8.774  16.699   2.254  0.3786  0.3138 -0.1733
 8391W        W23860   1.811   7.037   4.800 -0.0208  0.2354  0.1610
 8392W        W23861  16.359  18.693   0.732  0.0194  0.1287  0.1456
 8393W        W23862   0.682   8.844   3.406  0.0074  0.0956  0.0327
 8394W        W23863   8.078  10.128   4.105  0.0030 -0.0344 -0.2694
 8395W        W23864   4.326  15.726  11.635  0.1848 -0.0474 -0.3124
 8396W        W23865  11.781  12.857   4.256 -0.2035 -0.1217 -0.0394
 8397W        W23866  13.753  12.105   0.866 -0.0973  0.2041 -0.1984
 8398W        W23867  10.136  15.948  15.163  0.0053  0.0789 -0.0237
 8399W        W23868  12.497  10.900  10.408  0.1923 -0.3366 -0.1562
 8400W        W23869  12.684  14.628   5.567  0.2701 -0.0971 -0.2086
 8401W        W23870   2.878   4.810  10.694 -0.1501  0.0923 -0.2875
 8402W        W23871  12.366   8.690   4.208 -0.0596  0.0530 -0.1950
 8403W        W23872  10.580   7.460  11.348  0.0816 -0.1596  0.0029
 8404W        W23873   5.232   8.118  14.219  0.0624  0.1004 -0.1922
 8405W        W23874  14.370  11.663  10.677 -0.0987 -0.3747 -0.1059
 8406W        W23875   1.154   9.591   4.818 -0.1486 -0.0095 -0.1133
 8407W        W23876  14.656  12.373  10.934 -0.0462 -0.2129 -0.2105
 8408W        W23877  13.142  18.654   3.564  0.1531 -0.3805  0.0347
 8409W        W23878  13.523   0.276  13.598 -0.0169  0.0013 -0.4281
 8410W        W23879   2.512  15.616  10.842 -0.1892  0.1630 -0.0374
 8411W        W23880   6.704  17.327  13.400 -0.1832 -0.4270 -0.2126
 8412W        W23881  17.406  12.247  11.233  0.2413 -0.0073  0.0499
 8413W        W23882   7.882  11.753   0.344 -0.1727  0.0573 -0.3620
 8414W        W23883  12.957   4.029   3.061 -0.0868  0.0597  0.0081
 8415W        W23884   0.449  11.547  14.856 -0.0018 -0.1288  0.0220
 8416W        W23885   7.389   4.096   2.561 -0.3170 -0.1800 -0.1127
 8417W        W23886   5.142  16.806   4.742  0.2323  0.5130  0.1800
 8418W        W23887  18.886  11.902  12.642 -0.0417  0.0821 -0.2053
 8419W        W23888  11.110  14.752   4.425 -0.0615  0.1164 -0.2820
 8420W        W23889  13.351  16.851  10.781 -0.0068  0.0151  0.0521
 8421W        W23890  17.252   7.858   4.549  0.0114  0.1931 -0.0675
 8422W        W23891  11.736  15.894   0.951  0.2429  0.2718 -0.3660
 8423W        W23892  12.841   8.689   3.022  0.2854 -0.0815 -0.2904
 8424W        W23893   3.802   4.308  11.856 -0.0445  0.3520  0.2216
 8425W        W23894  14.721   3.638   3.283  0.2190 -0.0824  0.2157
 8426W        W23895  15.387  15.010   0.841 -0.0541 -0.3789 -0.0021
 8427W        W23896  11.985  17.044   4.248 -0.1208 -0.1050 -0.1700
 8428W        W23897   0.457   8.805  10.413 -0.1028  0.3431  0.3489
 8429W        W23898  16.655   8.993  14.092 -0.1752  0.1455  0.0368
 8430W        W23899  11.149   5.215   0.817 -0.1382 -0.3197 -0.2116
 8431W        W23900  11.798   9.524  13.460  0.1192  0.1431  0.0335
 8432W        W23901   8.450   3.210  14.971  0.2568  0.1354  0.2361
 8433W        W23902  18.565  18.003  11.472  0.2592  0.2109  0.0025
 8434W        W23903   5.111  14.526  14.440 -0.3780 -0.2343  0.1511
 8435W        W23904   0.486   7.245  13.127 -0.0985 -0.2261 -0.1384
 8436W        W23905  14.634  15.984   1.039  0.0611  0.1840 -0.0068
 8437W        W23906   1.720  17.746  12.950 -0.2749  0.1324  0.3357
 8438W        W23907   1.659   2.950   9.556  0.1789 -0.0289  0.0009
 8439W        W23908  14.399   6.983   2.220  0.0350 -0.1263  0.0671
 8440W        W23909   7.602  17.253   3.290 -0.2528 -0.2867  0.1088
 8441W        W23910   1.839   4.117  10.260 -0.0946 -0.0672  0.0432
 8442W        W23911   1.538   1.600  12.408  0.2045  0.0013  0.4180
 8443W        W23912   7.718  14.891   5.010 -0.1198  0.0720  0.0235
 8444W        W23913  18.909   7.127  14.474  0.0043 -0.1119 -0.1837
 8445W        W23914   8.289  18.523   0.051 -0.0520 -0.0903 -0.2688
 8446W        W23915   6.943  10.718  12.976 -0.2543  0.0943 -0.4729
 8447W        W23916  16.460   9.027  12.884  0.2570  0.1257 -0.2511
 8448W        W23917  16.643  10.471   0.959  0.0429  0.2114  0.2072
 8449W        W23918   9.714   6.645   4.192 -0.0710  0.1204 -0.1563
 8450W        W23919   5.500  11.800  13.851  0.3382 -0.3286  0.1893
 8451W        W23920  10.800   1.172   1.451 -0.0183  0.2865 -0.0998
 8452W        W23921   4.855   7.433  14.956  0.0091 -0.0125 -0.1172
 8453W        W23922   5.701  14.075  15.150  0.2049 -0.0971  0.1491
 8454W        W23923   5.496   0.223  11.909  0.1313  0.2560  0.0308
 8455W        W23924   0.685   3.533  12.417 -0.0848  0.0070 -0.0189
 8456W        W23925  13.919  14.725   0.372  0.5819 -0.0327  0.1082
 8457W        W23926   6.105   9.154  13.243  0.2993  0.3497 -0.0221
 8458W        W23927  16.545   6.491  12.325 -0.1127 -0.0247  0.2665
 8459W        W23928  13.506  17.118  14.819 -0.3060 -0.4636  0.3505
 8460W        W23929   0.269   6.696   9.954 -0.3478  0.0920 -0.2762
 8461W        W23930  13.521   5.539  14.627 -0.0590 -0.4509 -0.1294
 8462W        W23931  11.600   6.912   0.516 -0.1918  0.1669 -0.2252
 8463W        W23932   8.563   8.720   4.440 -0.3084  0.1287  0.0306
 8464W        W23933   5.471   1.414  11.305 -0.2767 -0.0831 -0.0299
 8465W        W23934   8.031  14.293  14.993  0.3121 -0.0912  0.0633
 8466W        W23935   3.812  12.177   5.153 -0.0575 -0.0331 -0.2794
 8467W        W23936  13.693  12.758  12.740 -0.0773  0.1786 -0.1957
 8468W        W23937   0.533   6.555  14.285  0.2518 -0.1824 -0.0491
 8469W        W23938  15.379   8.421  13.709  0.1330 -0.0688  0.0323
 8470W        W23939  10.493   7.609  10.564 -0.2908 -0.0977  0.2255
 8471W        W23940   4.664   7.109   3.329  0.2847 -0.0291  0.1099
 8472W        W23941  18.174   1.149   1.940  0.2114 -0.0362  0.1519
 8473W        W23942   7.121  16.152   1.920 -0.1267 -0.0531  0.0284
 8474W        W23943   7.214   7.001   0.756  0.0916  0.0107 -0.0104
 8475W        W23944   8.977   9.638  15.082 -0.0516 -0.0853 -0.0208
 8476W        W23945  10.871   9.309  10.489  0.1075  0.0816 -0.1768
 8477W        W23946  11.384   9.871  14.589  0.0830  0.0919  0.2606
 8478W        W23947  14.382   2.670   4.696  0.0357  0.0123  0.0889
 8479W        W23948   0.621   6.709   0.166 -0.4191  0.1115  0.1371
 8480W        W23949   0.715  15.157   0.567 -0.0254  0.0620 -0.3130
 8481W        W23950   1.649   1.658  13.311 -0.1252  0.0021  0.0688
 8482W        W23951  13.096  11.042  13.011 -0.3066  0.0506  0.1817
 8483W        W23952   4.385  16.987  14.833  0.2056  0.0266 -0.1526
 8484W        W23953   9.172  18.449   3.935  0.2651 -0.0843 -0.0619
 8485W        W23954   1.302  15.484  12.430  0.2406 -0.3163 -0.3177
 8486W        W23955  18.827   2.482   3.259  0.1747  0.1852 -0.3443
 8487W        W23956  11.243  10.597   2.940 -0.0746  0.5099  0.3796
 8488W        W23957  16.008   5.988   4.808 -0.1557 -0.0251 -0.3168
 8489W        W23958   7.405   4.534  10.545 -0.0479 -0.3389  0.0083
 8490W        W23959   7.972   7.499  12.028 -0.0424 -0.1833  0.2722
 8491W        W23960  14.689  16.613  11.019  0.0518 -0.1233 -0.0235
 8492W        W23961   2.840   5.038  12.874  0.1536 -0.0721  0.0368
 8493W        W23962  14.050  15.153  13.405 -0.0640  0.1280 -0.0150
 8494W        W23963  16.695  10.858  14.263  0.0915 -0.0690  0.0473
 8495W        W23964   2.409   8.297   0.961 -0.0042 -0.0871 -0.1715
 8496W        W23965   9.020   8.062   3.507 -0.2516  0.0616  0.2896
 8497W        W23966  13.211   6.037  11.721 -0.1056  0.2411  0.0744
 8498W        W23967   7.552  13.509   4.879 -0.2564  0.0116 -0.2182
 8499W        W23968   8.768   8.163  15.500 -0.1020 -0.3391 -0.1920
 8500W        W23969  10.451   7.083  11.670 -0.0327  0.2397  0.0193
 8501W        W23970   8.532   7.722  13.239 -0.1612  0.2382 -0.1059
 8502W        W23971   6.812  14.473  13.869 -0.0743  0.2455 -0.1001
 8503W        W23972   6.813   5.935   9.411  0.0364  0.0758 -0.2810
 8504W        W23973   1.367  18.184   2.624 -0.3010 -0.1944  0.0786
 8505W        W23974  13.873  10.620  14.918  0.3241 -0.0814  0.1657
 8506W        W23975   2.552   2.550  13.050  0.0602  0.2606  0.1295
 8507W        W23976   9.264  11.688   0.317  0.1574  0.0892 -0.0507
 8508W        W23977  18.717  11.535   0.737 -0.3199  0.1833  0.0918
 8509W        W23978   0.668   5.319   2.394 -0.0601  0.0420  0.1794
 8510W        W23979   1.803  15.043  10.745 -0.2393 -0.0202 -0.3164
 8511W        W23980   7.623   5.500  11.773  0.3007  0.1684 -0.2582
 8512W        W23981   9.668   0.907  15.104  0.2606 -0.0030 -0.1334
 8513W        W23982  14.571   5.700  13.021  0.0879 -0.4375 -0.0344
 8514W        W23983  11.380  15.506   4.551  0.2840  0.2724 -0.1769
 8515W        W23984   6.290   7.283  12.060 -0.2237  0.4546 -0.0404
 8516W        W23985  18.637  17.688  12.471  0.3105  0.0891 -0.1344
 8517W        W23986   5.697   5.336   2.061  0.1680  0.1642  0.2090
 8518W        W23987  14.113  13.602  10.859 -0.3014  0.0084 -0.0407
 8519W        W23988   6.178   0.242   2.416  0.0938 -0.0559  0.0248
 8520W        W23989   0.302  13.149   4.337  0.1298  0.0397  0.2171
 8521W        W23990  15.344  10.530   3.414  0.2823  0.1693 -0.5307
 8522W        W23991   0.277  13.065   2.950  0.3522 -0.1103 -0.1558
 8523W        W23992  15.424  13.307   4.138 -0.0365 -0.0106 -0.0564
 8524W        W23993  14.418   0.752   2.339 -0.1138 -0.1798 -0.2073
 8525W        W23994   7.809  16.913   1.682 -0.1080 -0.2909 -0.1115
 8526W        W23995   1.985  18.105   0.535  0.0799 -0.3074 -0.1948
 8527W        W23996  11.382   0.112   3.380 -0.1347 -0.0430 -0.0430
 8528W        W23997  16.675  17.614   0.402  0.0134  0.1795  0.1966
 8529W        W23998  13.870   5.009   0.207 -0.1356 -0.0801 -0.0699
 8530W        W23999  15.637  16.642  10.883 -0.0216  0.2652  0.0362
 8531W        W24000  17.692  15.119   0.706  0.2044 -0.3207 -0.1312
 8532W        W24001  12.847  15.415  12.501 -0.3082 -0.2062 -0.0189
 8533W        W24002  15.607  11.572  14.836 -0.2644  0.0362 -0.1688
 8534W        W24003   9.883  13.388   1.384 -0.2412  0.0555  0.0426
 8535W        W24004  16.252  17.969  12.262  0.0293 -0.3690 -0.4515
 8536W        W24005  18.257   4.481  13.691  0.1612  0.1839  0.2130
 8537W        W24006   1.006  17.878   4.019  0.1522  0.2548  0.3311
 8538W        W24007   0.969   5.380   3.884 -0.1633  0.3291  0.4303
 8539W        W24008   1.271   0.477  15.359 -0.2583  0.0187 -0.1794
 8540W        W24009   8.508   3.295  11.753 -0.2460 -0.1503  0.0235
 8541W        W24010  10.665   1.772  13.667  0.1465 -0.0551  0.2257
 8542W        W24011  14.329   8.584   3.771  0.2555 -0.0811  0.2389
 8543W        W24012   7.668  16.198  11.964 -0.0686 -0.3165 -0.1606
 8544W        W24013  11.650   6.889   1.524  0.2259 -0.0724 -0.0338
 8545W        W24014   5.098   2.810   4.950 -0.1499 -0.0038  0.1536
 8546W        W24015  17.105  14.312  14.886 -0.0064 -0.1022  0.1990
 8547W        W24016   2.119  18.067  12.405  0.1402  0.1963  0.0703
 8548W        W24017   5.192   4.019  11.689  0.3281  0.0600 -0.1903
 8549W        W24018  17.904   1.114   4.413  0.1456  0.3500 -0.1536
 8550W        W24019   8.264  14.304  12.600  0.2206 -0.0024 -0.1338
 8551W        W24020   9.531  11.939   0.995  0.1792 -0.1154 -0.4185
 8552W        W24021  13.019   8.248  12.631  0.0010 -0.0428 -0.0335
 8553W        W24022  13.554  17.125   5.756 -0.1467 -0.2522 -0.3413
 8554W        W24023  17.878  13.974   2.124 -0.1003  0.1371 -0.0194
 8555W        W24024   4.615   8.300  13.466  0.0411  0.1245  0.4178
 8556W        W24025   8.467   0.171   3.882 -0.0681 -0.2019  0.1663
 8557W        W24026   4.337  17.749  13.584 -0.1500 -0.0957  0.1203
 8558W        W24027   7.700  15.154   5.803  0.0392 -0.0226 -0.2627
 8559W        W24028  14.844   7.829   0.714  0.2679  0.3346  0.2741
 8560W        W24029  15.535   4.641   2.044 -0.5226 -0.0371 -0.1611
 8561W        W24030  14.157  10.657  12.778 -0.5111 -0.1215 -0.1533
 8562W        W24031   5.218   4.730   1.075 -0.2327  0.0718 -0.1901
 8563W        W24032   8.200   2.371  11.791 -0.0211 -0.0328  0.0516
 8564W        W24033   5.766  15.048  13.287  0.3650  0.1211  0.0848
 8565W        W24034  11.767  17.292   4.715  0.0519 -0.0469 -0.0680
 8566W        W24035   7.595  12.924   0.587 -0.0512  0.1382 -0.3426
 8567W        W24036  16.178  14.453  12.200 -0.0588  0.1434 -0.1480
 8568W        W24037   9.636   3.279   3.961  0.1411 -0.1276 -0.2829
 8569W        W24038   8.291   7.818   4.589  0.2226 -0.0045  0.1403
 8570W        W24039   2.000   3.107   2.849 -0.1817  0.0468  0.0789
 8571W        W24040   7.085  15.512   4.348 -0.2271 -0.1996 -0.1203
 8572W        W24041   2.822  11.248   0.465 -0.2561 -0.1377  0.0441
 8573W        W24042   8.572  12.163  14.734 -0.4099  0.3811  0.2120
 8574W        W24043   3.331  16.175  12.404 -0.1375  0.0925  0.0101
 8575W        W24044   6.247   3.790   1.991 -0.0502 -0.0884  0.2333
 8576W        W24045  10.751  15.380   0.846 -0.2240 -0.0109  0.0262
 8577W        W24046   4.996   6.415   0.174 -0.2497 -0.1220  0.1327
 8578W        W24047   5.093  10.908  11.376 -0.1118 -0.0829  0.2443
 8579W        W24048   7.384   6.511   0.682 -0.2231  0.1438 -0.2960
 8580W        W24049  11.792   0.610   0.102 -0.1328  0.0199 -0.2083
 8581W        W24050  16.364   7.545  11.938  0.3197 -0.1415 -0.2753
 8582W        W24051   8.788   6.482   4.321 -0.0925 -0.2196 -0.6003
 8583W        W24052   6.723  13.197  14.171  0.0206 -0.3401  0.1437
 8584W        W24053   3.767  18.062   0.611  0.1641  0.2870  0.0657
 8585W        W24054  12.546  14.184  13.306 -0.1295  0.1513  0.0813
 8586W        W24055  13.443   7.606  14.307 -0.1180 -0.2286  0.3327
 8587W        W24056   5.041  18.660  12.686 -0.0162 -0.2046 -0.1170
 8588W        W24057   2.683   3.316   3.653 -0.1130  0.0217 -0.0251
 8589W        W24058   3.899   0.952  11.104  0.2407  0.2165  0.1445
 8590W        W24059   6.452  12.719   0.423  0.0859 -0.0553 -0.1530
 8591W        W24060  16.650   9.185   1.995 -0.0271 -0.2062  0.0579
 8592W        W24061   1.878  10.543   1.848  0.0638 -0.3032  0.2734
 8593W        W24062  11.591  18.622  14.942 -0.0076  0.0446 -0.1976
 8594W        W24063  13.706  11.660   3.796 -0.2347  0.2480 -0.2866
 8595W        W24064  11.923  11.615  12.872 -0.2309  0.0189 -0.0026
 8596W        W24065  10.243  16.430   5.100 -0.2246  0.0872 -0.0740
 8597W        W24066  17.843   9.583   4.601  0.0035 -0.2787 -0.0763
 8598W        W24067  11.968  10.436  13.579 -0.2596  0.3115 -0.0013
 8599W        W24068  13.287  17.332  11.664 -0.3376  0.0507  0.0884
 8600W        W24069   8.067   6.419  15.150 -0.0511 -0.1992 -0.1133
 8601W        W24070  12.526  12.446   6.265 -0.0177 -0.0425 -0.4334
 8602W        W24071   7.774   3.661   4.565 -0.0261  0.1381  0.0418
 8603W        W24072   3.666  18.691  11.142  0.1171  0.2635 -0.0716
 8604W        W24073   5.038   2.073   2.163  0.0983  0.4043  0.5815
 8605W        W24074  10.815   2.083  13.265 -0.1631  0.1072  0.1538
 8606W        W24075   7.142  15.228   2.053 -0.0754 -0.3335  0.1818
 8607W        W24076   8.372   3.313  13.855 -0.0844  0.1828 -0.0574
 8608W        W24077  17.504   0.429  14.182 -0.1907 -0.1939 -0.0419
 8609W        W24078  16.416   7.795  10.729 -0.1378 -0.1261  0.2821
 8610W        W24079   0.566  13.350   5.191 -0.0548  0.0891 -0.0436
 8611W        W24080   4.300  12.556  11.693 -0.1543  0.3689 -0.1792
 8612W        W24081  15.587   1.293   2.855  0.2461  0.1834 -0.0319
 8613W        W24082  10.030  18.165  14.956  0.2542  0.1220  0.0711
 8614W        W24083  16.769  13.747   3.346 -0.2120  0.1982 -0.0094
 8615W        W24084   5.100  15.243  14.645 -0.1679 -0.0845 -0.1044
 8616W        W24085  10.360  17.897  14.530 -0.1949  0.0969 -0.2723
 8617W        W24086   6.752   4.442  14.000 -0.0584 -0.2173  0.2783
 8618W        W24087  18.414  16.229   1.506 -0.0704  0.0766  0.1027
 8619W        W24088  12.650  13.848   3.614  0.4741  0.0231  0.0699
 8620W        W24089   6.377  10.877   3.734  0.2603  0.0153 -0.0584
 8621W        W24090  11.524  15.165  14.292  0.1717  0.1775  0.1262
 8622W        W24091  10.359   3.790   1.843  0.1922 -0.1641 -0.1354
 8623W        W24092  10.854   6.994   2.018  0.0928  0.0549  0.0074
 8624W        W24093   7.991  12.853   0.942 -0.4699  0.1199 -0.1399
 8625W        W24094   1.234  10.950   5.788 -0.2702 -0.1449  0.2987
 8626W        W24095  14.988   2.459  11.763 -0.0491  0.1508  0.4082
 8627W        W24096   6.502   9.535  13.738  0.2828  0.2192 -0.0869
 8628W        W24097   6.945  16.240  10.282 -0.0204 -0.2745  0.1423
 8629W        W24098   9.607  15.669   4.591 -0.0616 -0.1415  0.0952
 8630W        W24099  11.891   7.176   5.263 -0.2553  0.0659 -0.0867
 8631W        W24100  13.329   9.655   1.019 -0.1775  0.0403  0.1010
 8632W        W24101  15.034  12.834   2.529  0.1687  0.1503 -0.0200
 8633W        W24102  11.969  16.452  14.947 -0.2422  0.0028  0.3064
 8634W        W24103   1.143   3.797  13.348 -0.0996  0.2924 -0.3118
 8635W        W24104   5.892   3.607  11.047 -0.3003  0.3441  0.1277
 8636W        W24105  10.112   2.186  11.241 -0.0695 -0.4414 -0.0683
 8637W        W24106  13.699   9.754  14.415 -0.4496 -0.3011 -0.0399
 8638W        W24107   9.609   5.380   1.754 -0.2461 -0.0371  0.1191
 8639W        W24108  17.224   8.872  12.586  0.0820 -0.2170  0.0916
 8640W        W24109   6.114   3.509  12.228  0.1261 -0.0571  0.1403
 8641W        W24110  16.460   9.587   2.292 -0.0314 -0.2080  0.2384
 8642W        W24111   4.905  16.068   2.615  0.0121  0.3775 -0.0976
 8643W        W24112   2.924   2.807  15.408  0.0500 -0.1180 -0.0921
 8644W        W24113  11.924   0.677   3.141  0.3106 -0.0152 -0.3270
 8645W        W24114   5.665   9.182  15.046 -0.3977  0.2187  0.1108
 8646W        W24115   1.811   0.338   1.908 -0.1271  0.0990 -0.0656
 8647W        W24116  16.244   9.465  11.638  0.0277 -0.0459 -0.1375
 8648W        W24117  10.154  17.470   2.744 -0.1596  0.1493  0.0248
 8649W        W24118   1.574   9.244  10.876 -0.2658  0.1174  0.2567
 8650W        W24119   2.942   7.885  13.018  0.2658 -0.1932  0.3699
 8651W        W24120  10.209   7.056   3.494  0.1692 -0.0077 -0.4043
 8652W        W24121  17.442   2.183   2.243  0.1575  0.1119 -0.2061
 8653W        W24122   4.077  11.923  10.997 -0.1640 -0.0195  0.1654
 8654W        W24123  16.753   1.501  14.377 -0.0200 -0.0653 -0.1078
 8655W        W24124   6.171   9.545   2.962 -0.2467 -0.2610  0.0154
 8656W        W24125   9.234  11.866  15.306 -0.0271  0.0519  0.2564
 8657W        W24126   9.762   3.936   3.433  0.0265  0.1657 -0.1116
 8658W        W24127  14.120   8.955   0.511 -0.0297 -0.1928 -0.1614
 8659W        W24128   7.097  15.310   3.133 -0.0252  0.0740  0.1008
 8660W        W24129   5.837  12.333   0.825 -0.2902 -0.2491  0.2171
 8661W        W24130  12.201   9.666  12.080  0.0160  0.5249 -0.2329
 8662W        W24131   1.248   2.346  13.536  0.0130  0.1247 -0.3884
 8663W        W24132  18.655   1.161  11.258 -0.1235 -0.0043  0.1715
 8664W        W24133   4.682  11.182   4.623 -0.0329 -0.1922  0.1060
 8665W        W24134   5.433   7.339   3.007 -0.4976  0.2137  0.0155
 8666W        W24135   2.459   7.966  13.053 -0.1614  0.0237  0.1154
 8667W        W24136  14.642   4.293   3.012  0.0803 -0.0516 -0.1739
 8668W        W24137  18.843   5.578   9.918  0.1830  0.1317  0.0028
 8669W        W24138  13.102   5.150  11.912 -0.0828  0.3248 -0.2534
 8670W        W24139   9.415   8.643   4.726 -0.2215  0.0312  0.0022
 8671W        W24140   0.005   7.346   3.278 -0.1977 -0.1915 -0.2011
 8672W        W24141   2.928   9.989  12.684  0.1510 -0.2852 -0.1930
 8673W        W24142   9.020   6.121  13.312 -0.1555 -0.2984 -0.2208
 8674W        W24143   9.458   0.939   4.915  0.1753 -0.3362 -0.1091
 8675W        W24144   0.040   6.260  15.167 -0.0986  0.2287  0.1079
 8676W        W24145   8.350  15.952  13.384  0.0389  0.1779 -0.1722
 8677W        W24146   7.814  12.856   2.186  0.1609 -0.0074 -0.2466
 8678W        W24147  17.485   6.214  12.455  0.0959 -0.2117  0.0907
 8679W        W24148  12.048   6.899  13.582  0.0238 -0.0291  0.0069
 8680W        W24149  12.917   0.186   2.797 -0.0687  0.1024  0.1684
 8681W        W24150   9.351   2.249  12.764 -0.1059 -0.1249 -0.3232
 8682W        W24151   4.270  16.699  10.356  0.1133 -0.4356  0.1223
 8683W        W24152   2.348   1.864  11.863 -0.3134  0.1328 -0.1520
 8684W        W24153  12.428   4.364  10.888 -0.0014  0.3217 -0.0868
 8685W        W24154  10.299   0.847   2.511 -0.2552 -0.1506 -0.0261
 8686W        W24155  12.339   4.110   4.483  0.1527 -0.1262 -0.1307
 8687W        W24156   7.240   1.048  14.858 -0.0465 -0.2600 -0.3698
 8688W        W24157  15.661   2.582   2.661 -0.0413  0.2410  0.0870
 8689W        W24158   6.376  13.964  12.803  0.0119  0.3254 -0.0288
 8690W        W24159   2.525  18.364   1.614 -0.0822  0.0432 -0.1029
 8691W        W24160  15.840   4.304   2.693  0.0057 -0.0212  0.1166
 8692W        W24161  10.852  18.007   2.043  0.1326  0.3072 -0.1584
 8693W        W24162   8.888   4.016  10.723 -0.1033 -0.2242 -0.0436
 8694W        W24163  10.113   0.440  11.323  0.1288 -0.4247  0.2058
 8695W        W24164  10.426   9.017  10.533  0.2358 -0.0292  0.1923
 8696W        W24165  12.535   1.021   5.235 -0.3198 -0.0161 -0.1547
 8697W        W24166  15.328  12.929   3.862  0.5599  0.0727  0.1096
 8698W        W24167   9.894   0.308   5.840 -0.0187  0.0729  0.0599
 8699W        W24168  16.588  14.092  11.952  0.1789  0.0055  0.0769
 8700W        W24169  17.500  15.791  14.601 -0.3831 -0.1266  0.1680
 8701W        W24170   1.607  10.596   0.381 -0.1249 -0.1889 -0.0607
 8702W        W24171  14.668   8.490  15.207  0.1282  0.2478 -0.0147
 8703W        W24172  17.085   8.531  12.944 -0.0973  0.2092  0.1242
 8704W        W24173  15.859  10.596   5.010  0.1919 -0.2477  0.0002
 8705W        W24174   2.522  13.066   1.729  0.1359 -0.1865 -0.0682
 8706W        W24175   9.392   9.841  13.118  0.2829  0.2258 -0.2704
 8707W        W24176   7.519   6.231   4.409 -0.0048 -0.1821 -0.2271
 8708W        W24177   3.710   4.357  14.103 -0.1347 -0.0628  0.2608
 8709W        W24178   8.948   6.358   0.891  0.3690 -0.0813  0.0751
 8710W        W24179  13.378  14.750  11.503 -0.0081  0.0901 -0.2254
 8711W        W24180   8.527   4.662   3.843 -0.0360  0.2899  0.1507
 8712W        W24181  14.308   7.554   1.611  0.1019  0.1201  0.0841
 8713W        W24182   7.729   1.777  12.014 -0.1596  0.0478 -0.1347
 8714W        W24183  15.695  12.190  11.017 -0.0470  0.2296 -0.1107
 8715W        W24184   0.796  10.391   4.819 -0.3291  0.2836  0.1101
 8716W        W24185   7.691   3.647  13.187 -0.1723 -0.0153 -0.0684
 8717W        W24186  13.396   2.905  10.558 -0.2128  0.0735 -0.0863
 8718W        W24187  15.317   1.808  12.550  0.2995  0.1866 -0.1739
 8719W        W24188   9.149   3.515  12.482  0.3260  0.1329  0.0120
 8720W        W24189   3.823  11.381  15.215 -0.2173  0.1656  0.0523
 8721W        W24190  10.830   1.361   2.554 -0.0930 -0.1429  0.0120
 8722W        W24191  10.120  14.881  11.816 -0.3063 -0.2459  0.1084
 8723W        W24192   1.429  11.412   3.562  0.0866  0.2652  0.0643
 8724W        W24193   5.292  18.291  15.135  0.1103  0.1408 -0.1521
 8725W        W24194   6.017   9.425   1.488  0.0996 -0.2880 -0.0590
 8726W        W24195   6.566   7.687  12.193  0.1501  0.0520 -0.1927
 8727W        W24196   8.842  16.082  11.916 -0.0321  0.5580  0.2627
 8728W        W24197   6.719  16.139   3.244 -0.2252 -0.0983 -0.0662
 8729W        W24198  12.057  14.420  13.075  0.0508 -0.1963 -0.0792
 8730W        W24199   8.679   0.916  12.057  0.3337  0.1590 -0.3483
 8731W        W24200   2.182   6.710  11.401 -0.2291 -0.3760  0.1289
 8732W        W24201   9.269  15.764  10.940  0.5551 -0.5744  0.1485
 8733W        W24202   6.992   1.340  13.969  0.4268  0.0371 -0.0611
 8734W        W24203   9.632   9.952  10.574  0.0364 -0.4787 -0.0894
 8735W        W24204   9.882  15.473   0.484  0.0701 -0.0050 -0.1497
 8736W        W24205  16.303   0.977   0.412 -0.1294  0.0977 -0.1584
 8737W        W24206  16.029   3.985   3.932  0.2212 -0.0302 -0.1971
 8738W        W24207  18.598  11.064   1.017 -0.2537  0.1214 -0.1616
 8739W        W24208  14.024  11.529   1.501 -0.1282  0.2385  0.1628
 8740W        W24209  14.225  15.973  11.153  0.2344  0.0108  0.1566
 8741W        W24210  15.311  14.410   4.629 -0.2356 -0.2233 -0.2486
 8742W        W24211  12.042  18.183  13.888 -0.0769  0.0777 -0.2558
 8743W        W24212  13.821  15.537  11.143  0.2545  0.1550  0.0494
 8744W        W24213  15.445   6.690  13.567 -0.0940  0.1044  0.0832
 8745W        W24214  12.783   9.377   1.696  0.0865 -0.2101  0.2186
 8746W        W24215   0.944   7.301   3.758  0.2282 -0.0974  0.2452
 8747W        W24216  10.074  11.566  12.757 -0.1439  0.2361 -0.0791
 8748W        W24217  15.602   7.586   2.911  0.2513  0.1034  0.1958
 8749W        W24218  11.592  17.873  13.969  0.1885 -0.0699 -0.4107
 8750W        W24219  17.981   5.072  13.992 -0.0400 -0.0045  0.1361
 8751W        W24220  14.237   2.318   1.084  0.1714 -0.6864 -0.0466
 8752W        W24221   9.223   5.358  14.280 -0.2415  0.0231  0.0707
 8753W        W24222   7.800   0.309   2.087 -0.0454 -0.0450 -0.3097
 8754W        W24223   8.588  10.646   3.349  0.0493 -0.0158  0.3527
 8755W        W24224   0.125   4.923   1.377  0.1336 -0.1039 -0.0586
 8756W        W24225   1.582  14.618  10.849 -0.1494 -0.4971 -0.3076
 8757W        W24226   1.715   6.600  12.775  0.1858 -0.1587  0.0857
 8758W        W24227   4.803   8.333  15.368 -0.0312  0.0692 -0.1124
 8759W        W24228  12.321   7.291  11.677 -0.0577  0.0589  0.1183
 8760W        W24229   7.509  10.877   1.240  0.0121 -0.2012  0.0193
 8761W        W24230  12.836   4.973   1.559 -0.2087  0.0325 -0.1166
 8762W        W24231   0.833  16.311   5.712  0.2520  0.1758  0.0316
 8763W        W24232   0.326  10.292  11.146  0.1584  0.2634 -0.0602
 8764W        W24233   4.212  17.154  12.680 -0.0743  0.0978 -0.0858
 8765W        W24234  18.330   1.901   4.598  0.1557  0.1839 -0.3575
 8766W        W24235  18.421   7.474   2.075 -0.0635 -0.1694  0.0421
 8767W        W24236   6.325  16.597   2.423 -0.0507  0.1783 -0.2124
 8768W        W24237  14.975   5.284  14.229 -0.0421 -0.0183 -0.0368
 8769W        W24238   5.075  15.422   2.453 -0.2058 -0.1869  0.1944
 8770W        W24239  16.666   3.620  15.327 -0.0817 -0.0716 -0.0744
 8771W        W24240   5.934  13.479  11.489  0.0665  0.0878  0.0643
 8772W        W24241  10.682  17.447  14.362 -0.3161 -0.1493 -0.3018
 8773W        W24242  17.459   7.038   4.442  0.3259 -0.0607 -0.3404
 8774W        W24243   0.669   2.569   4.039 -0.0759  0.0179  0.1783
 8775W        W24244   9.671  16.451   4.904  0.1109 -0.0261  0.0244
 8776W        W24245  16.926   7.301  11.238 -0.0804 -0.1003 -0.0980
 8777W        W24246   6.125   7.736  11.791  0.1442  0.2941 -0.0890
 8778W        W24247   2.478   7.422  12.324  0.0174  0.0378  0.0564
 8779W        W24248   0.785   7.559   2.565  0.0805 -0.2482 -0.2839
 8780W        W24249  13.706  13.420   3.324  0.1410  0.0188  0.3188
 8781W        W24250  18.020  10.623   3.341  0.1281 -0.1064 -0.3350
 8782W        W24251  15.991  13.527   1.230  0.1938  0.0888  0.1815
 8783W        W24252   4.839   2.870  11.514  0.0998 -0.0033  0.3121
 8784W        W24253   1.916   9.710   2.111  0.1127  0.1901 -0.2277
 8785W        W24254   4.907   9.994  10.439  0.4434 -0.0395 -0.3369
 8786W        W24255  18.001  11.772   4.522  0.0188 -0.0226  0.1590
 8787W        W24256  13.002   0.840  12.778 -0.0478  0.0909  0.2196
 8788W        W24257  13.436  13.442   0.522 -0.0270 -0.2997  0.1087
 8789W        W24258  18.607   9.706   5.190  0.0194 -0.2928  0.0555
 8790W        W24259   1.937   6.092   1.495 -0.0247  0.0492 -0.2068
 8791W        W24260  11.164  12.366   3.766  0.1215  0.0226 -0.0619
 8792W        W24261   2.512   4.468  11.381  0.0144 -0.1598  0.1781
 8793W        W24262   9.788   2.564  13.123  0.0435  0.1960  0.0828
 8794W        W24263  18.564  13.056   5.655 -0.0209  0.2694 -0.0139
 8795W        W24264  18.265  16.040  12.997  0.2753  0.1440  0.0536
 8796W        W24265  16.677  13.190   3.208 -0.1387  0.1893 -0.0992
 8797W        W24266  17.645  15.696  12.369 -0.2714 -0.0676  0.0368
 8798W        W24267   9.715  17.083   1.434  0.0998 -0.0332 -0.1471
 8799W        W24268  15.986  17.902  15.020 -0.0112  0.0430  0.3766
 8800W        W24269  10.063   2.326   1.941 -0.0949 -0.0802  0.2277
 8801W        W24270   1.085  11.353   0.066 -0.0078 -0.1725  0.0053
 8802W        W24271  11.159   5.714   5.297 -0.1021  0.0545 -0.1643
 8803W        W24272   9.758   7.244  14.544  0.2350 -0.1676  0.2387
 8804W        W24273  13.633   8.200   4.339 -0.1971 -0.1440 -0.0480
 8805W        W24274   2.719   9.584   1.302 -0.0384 -0.3447 -0.2638
 8806W        W24275  11.229   4.402   9.462 -0.0354  0.1046  0.3635
 8807W        W24276  18.013   0.302  14.469 -0.2362 -0.0748  0.0976
 8808W        W24277   4.259   7.110   0.635  0.1862  0.0183  0.2319
 8809W        W24278  18.478  11.370   0.325 -0.2125  0.1513  0.4568
 8810W        W24279   9.785  18.524  11.637 -0.1088  0.2054  0.1193
 8811W        W24280   4.843  10.614   4.137  0.2026  0.0054 -0.1446
 8812W        W24281  18.101  14.665   4.884 -0.1710 -0.1467 -0.0993
 8813W        W24282  10.238   0.319   2.370  0.0405 -0.2088 -0.0912
 8814W        W24283  14.954   5.853   4.762 -0.0899  0.3733  0.1879
 8815W        W24284   0.041   5.426  12.890  0.0546 -0.2939 -0.2293
 8816W        W24285   9.710  14.483  11.253  0.0709 -0.3769 -0.0197
 8817W        W24286   3.748   5.600   4.285  0.2554  0.0259  0.2477
 8818W        W24287  13.233   5.922   3.001 -0.2430 -0.2600  0.0407
 8819W        W24288  16.251   4.508  10.036  0.0124  0.2802  0.1870
 8820W        W24289  14.341   2.593  12.835 -0.2322  0.1758 -0.0194
 8821W        W24290  11.852   0.638  15.126  0.1777  0.0889  0.1365
 8822W        W24291  18.134  15.994  12.512 -0.0622 -0.3471 -0.1069
 8823W        W24292   2.814  16.286  15.217 -0.1455 -0.0517 -0.1246
 8824W        W24293  18.688  15.080  12.790 -0.4779 -0.1505 -0.1034
 8825W        W24294   2.352  16.797   1.725 -0.1186  0.0247  0.0922
 8826W        W24295   4.092  16.013  15.375 -0.1199 -0.3502 -0.3232
 8827W        W24296   2.052  17.396  11.932  0.0803 -0.2217  0.0418
 8828W        W24297   9.319  10.289  12.471 -0.0424  0.0068 -0.2580
 8829W        W24298   8.354   9.348   5.161 -0.2975 -0.0634 -0.0187
 8830W        W24299  16.051   9.830  12.796 -0.2126  0.1159 -0.0586
 8831W        W24300  10.785   4.142  14.660 -0.2361 -0.2026 -0.0198
 8832W        W24301  17.157   3.575   4.450  0.1911  0.3763  0.3380
 8833W        W24302  15.668   5.876  14.875  0.0687 -0.0850 -0.2145
 8834W        W24303   8.450  16.775  11.496 -0.0390  0.3009 -0.0426
 8835W        W24304  16.657  18.141   3.008 -0.2441 -0.0850  0.0891
 8836W        W24305  12.134  11.658   0.380  0.0597 -0.5158  0.2993
 8837W        W24306  10.150   2.150   0.128 -0.0883 -0.1457 -0.3154
 8838W        W24307  15.004   0.624  11.120 -0.3375 -0.1762  0.0677
 8839W        W24308   7.463   3.825   2.994 -0.1712 -0.5255  0.0924
 8840W        W24309  11.257   1.042   2.340 -0.2434  0.0738 -0.0797
 8841W        W24310  13.429   4.638   0.274 -0.1091 -0.1499 -0.1022
 8842W        W24311  17.972  17.758   5.356  0.1131  0.0556 -0.0946
 8843W        W24312   8.021   4.943  10.990 -0.0496  0.0241 -0.0324
 8844W        W24313  14.533   4.633   2.169  0.0538 -0.3574  0.1838
 8845W        W24314  13.289  16.523   4.087  0.0882 -0.1316 -0.3376
 8846W        W24315   2.552   0.288   3.349 -0.0319  0.0184 -0.2322
 8847W        W24316   1.609   1.643   1.768  0.0690  0.0549 -0.0674
 8848W        W24317  17.669   4.256   4.614  0.2080 -0.1742 -0.1246
 8849W        W24318   7.852  16.970  12.586  0.1535  0.0648  0.2325
 8850W        W24319  17.914  17.970   2.731 -0.1001  0.0044  0.3052
 8851W        W24320  17.565   6.956   5.858  0.0258 -0.0372  0.0376
 8852W        W24321   0.669  11.657  13.555  0.2062 -0.0493 -0.0528
 8853W        W24322   1.165   9.027   3.074  0.1655  0.0675  0.0106
 8854W        W24323  10.780   3.052  10.418 -0.1193  0.4493 -0.0109
 8855W        W24324   6.123  15.908   3.866 -0.0831 -0.0393 -0.0896
 8856W        W24325  18.092   3.816   5.043  0.1798 -0.2520 -0.2767
 8857W        W24326  10.579  11.883  12.527  0.1541  0.2877 -0.0766
 8858W        W24327   5.528   8.047  13.842 -0.1255 -0.2173  0.0075
 8859W        W24328   1.934   8.485   3.956 -0.1675 -0.1570  0.1475
 8860W        W24329   4.963  13.132   1.599  0.0121  0.1407  0.1340
 8861W        W24330   9.590   8.412  10.712  0.2422 -0.7801  0.1620
 8862W        W24331   1.279   9.181  10.490 -0.0946  0.2250  0.2456
 8863W        W24332  18.916  10.672  12.294 -0.0601  0.1196  0.0522
 8864W        W24333   4.204   2.250  11.941  0.0752  0.2370 -0.1582
 8865W        W24334  18.569  10.797   4.070 -0.1025 -0.2017 -0.0058
 8866W        W24335  13.940  15.645   4.253 -0.0525 -0.0786 -0.2936
 8867W        W24336  15.137  17.184   4.329  0.1155 -0.0195 -0.3273
 8868W        W24337   3.977   1.339   2.561 -0.3109 -0.1742  0.0377
 8869W        W24338   2.351  13.034   1.232 -0.2017  0.2659 -0.1641
 8870W        W24339   8.770  14.089   6.057  0.0914 -0.1992  0.1116
 8871W        W24340  11.301   5.360  13.916  0.1469 -0.1748 -0.0655
 8872W        W24341   3.776  13.886   3.209  0.2817 -0.0461  0.2142
 8873W        W24342  13.310   7.306   3.126  0.2946 -0.5629 -0.0043
 8874W        W24343  10.096   6.991  13.609 -0.1388 -0.1586  0.0289
 8875W        W24344  11.631   9.699  10.911  0.1372 -0.1244 -0.2044
 8876W        W24345  13.243   5.946  10.231 -0.3117 -0.0899  0.2936
 8877W        W24346  14.370   6.429   2.151  0.0167  0.0975  0.3452
 8878W        W24347  13.315   5.614   4.755  0.0607  0.0990  0.0597
 8879W        W24348   2.152   2.332   1.531  0.2098 -0.2514  0.2623
 8880W        W24349  10.690   0.325  11.863 -0.2297  0.0206  0.1799
 8881W        W24350   5.526  17.648   3.609 -0.1707  0.1797 -0.0516
 8882W        W24351  18.854  14.128  13.014 -0.0788 -0.3502 -0.1951
 8883W        W24352  15.827   9.337   0.396  0.2891  0.0397 -0.2178
 8884W        W24353   2.032  11.218   4.933 -0.2755 -0.0584  0.1400
 8885W        W24354   7.878  12.383   0.539  0.1366  0.0328 -0.0580
 8886W        W24355   5.263  10.029  15.073 -0.2519 -0.0657  0.4416
 8887W        W24356   3.395  15.402   2.164 -0.4716 -0.3667  0.1886
 8888W        W24357  10.616   1.622  14.306  0.0151 -0.3918 -0.3205
 8889W        W24358  18.676   5.340   0.213  0.3251  0.0718 -0.2370
 8890W        W24359   2.226   1.553   5.244  0.0062 -0.2315 -0.1844
 8891W        W24360   8.620   4.330   9.564  0.2057  0.0429  0.2566
 8892W        W24361   3.921   2.662  11.479  0.1637 -0.2064  0.1894
 8893W        W24362  12.599   0.311  10.593 -0.2581 -0.2489 -0.2420
 8894W        W24363   0.180   9.432  13.000 -0.1776  0.0671  0.3346
 8895W        W24364   4.047  10.271   2.174 -0.3695  0.1260  0.2057
 8896W        W24365  10.508  11.282   1.778  0.2622 -0.0029  0.3855
 8897W        W24366  17.123   6.497   4.564 -0.0114 -0.3158 -0.0798
 8898W        W24367  11.723   9.967  13.679 -0.0505 -0.0754 -0.0095
 8899W        W24368  15.441   1.619  14.157 -0.3660  0.0339 -0.0648
 8900W        W24369  15.241  14.730   0.217  0.1254  0.2264  0.0409
 8901W        W24370  11.706   0.134  12.208  0.1993 -0.1821  0.1840
 8902W        W24371  15.648   5.964  10.669 -0.1943 -0.1497  0.5395
 8903W        W24372  10.766   2.507  14.330 -0.0276 -0.0212 -0.1930
 8904W        W24373  14.100   3.999  15.215  0.0250 -0.1197  0.0379
 8905W        W24374   3.029  18.657  13.106 -0.0405  0.0855 -0.0983
 8906W        W24375   0.031  17.315  12.161  0.1520 -0.1126 -0.2481
 8907W        W24376  12.218  18.895   0.876  0.0628 -0.0616 -0.1439
 8908W        W24377   4.738  14.613  10.304  0.1921  0.2557  0.1470
 8909W        W24378   8.060   3.702  14.142 -0.2534 -0.1872 -0.2082
 8910W        W24379   9.134   7.067   0.334  0.0984 -0.1633  0.2205
 8911W        W24380   0.534  13.080  11.347 -0.0273  0.2151  0.2585
 8912W        W24381  15.778   7.789   3.471 -0.1293  0.0581  0.1649
 8913W        W24382  16.841   5.912   3.882  0.3625  0.1774 -0.0853
 8914W        W24383  10.803  11.088  12.293  0.2974  0.0383 -0.1929
 8915W        W24384  15.001  13.227  11.935  0.1219 -0.0047  0.1452
 8916W        W24385  10.578   6.821   4.307  0.0674  0.1140  0.0733
 8917W        W24386   4.543   6.310  13.002 -0.0387 -0.2802 -0.3155
 8918W        W24387   8.846  18.323  15.314  0.0949  0.0564 -0.5599
 8919W        W24388   4.375  11.230  12.926  0.0907 -0.2439  0.1936
 8920W        W24389   4.235  12.737  13.103  0.0030 -0.2065 -0.0999
 8921W        W24390  15.015   4.590   3.076 -0.2902 -0.2372  0.1497
 8922W        W24391  11.280   6.064  14.616  0.0119 -0.3070 -0.0421
 8923W        W24392  14.486   1.806   4.330 -0.3274 -0.1969  0.0828
 8924W        W24393   5.167   1.258   4.646 -0.4410  0.2706 -0.1556
 8925W        W24394  18.668   4.142  13.612 -0.0709 -0.2617 -0.0458
 8926W        W24395  17.589   1.666   4.890  0.0113 -0.0770 -0.3121
 8927W        W24396  14.124   8.011   1.884 -0.0785  0.4443 -0.1018
 8928W        W24397   0.771   2.709  14.368 -0.0217 -0.3485 -0.2471
 8929W        W24398  18.299   5.181  13.660 -0.1370 -0.1738 -0.0922
 8930W        W24399  16.563   8.522  14.284 -0.2562 -0.0160  0.5688
 8931W        W24400   0.254  16.331  13.833  0.0213  0.1717  0.0066
 8932W        W24401  14.138  12.271   5.181  0.0672  0.3816 -0.0375
 8933W        W24402  13.172  16.579   2.590 -0.1875  0.2884  0.1858
 8934W        W24403   7.495   6.494  13.259 -0.0233  0.0407 -0.2027
 8935W        W24404   9.037  10.296   0.720  0.0089  0.0051  0.0084
 8936W        W24405   4.238   6.843  11.395 -0.2315  0.2866 -0.2941
 8937W        W24406  16.967  12.504   4.589 -0.2148  0.1110 -0.2177
 8938W        W24407   8.922  10.692   3.754 -0.1337  0.1529  0.0741
 8939W        W24408   8.628   7.916   1.777  0.0675 -0.2727  0.2354
 8940W        W24409   1.127  13.693  10.690  0.0368 -0.2340 -0.0197
 8941W        W24410   4.006   9.262  14.021 -0.0188 -0.2347  0.3425
 8942W        W24411   0.837   5.701   0.308  0.0561 -0.1459  0.3993
 8943W        W24412   7.744   9.312   0.043  0.3634  0.2372 -0.0716
 8944W        W24413   6.395   5.624  12.297  0.1851  0.1752 -0.2088
 8945W        W24414  15.239  12.134   5.625  0.2124 -0.0860  0.2643
 8946W        W24415  11.534  15.450  12.047  0.1897 -0.1212  0.1824
 8947W        W24416  12.845  11.214  13.824  0.0023  0.0104 -0.3988
 8948W        W24417  15.378  16.861   2.804  0.0256  0.2449 -0.2021
 8949W        W24418   7.748   0.709  11.398 -0.1097  0.1655  0.1315
 8950W        W24419   1.720  11.909  13.365  0.0616 -0.3324  0.2344
 8951W        W24420   5.731   1.766   2.653  0.1668 -0.1524 -0.3883
 8952W        W24421   2.516  18.178   0.381  0.2048  0.0490 -0.2293
 8953W        W24422  15.193  14.547   1.600 -0.5494 -0.0363 -0.0217
 8954W        W24423   3.743   8.439  11.097  0.0514  0.3180  0.1109
 8955W        W24424   6.636  16.455   2.795 -0.0668  0.0755 -0.2115
 8956W        W24425   4.730  14.355  12.750  0.1075  0.1076  0.1334
 8957W        W24426  18.920   9.451  10.692  0.1567  0.0092 -0.1145
 8958W        W24427  18.403  12.326   0.119  0.0580 -0.0869 -0.0922
 8959W        W24428  12.783  12.845   3.227  0.0695  0.2001  0.2319
 8960W        W24429  13.071   2.966  13.230 -0.0271 -0.1071 -0.0789
 8961W        W24430  14.196   5.989   3.023 -0.4444 -0.0899 -0.5234
 8962W        W24431  11.925  10.162   4.796 -0.2208  0.4257  0.2346
 8963W        W24432   4.384   4.079   1.315  0.0368  0.0021  0.3211
 8964W        W24433  14.929  14.112   0.712 -0.0743  0.0094 -0.1096
 8965W        W24434   2.816   7.227  11.960 -0.2002 -0.0303  0.0888
 8966W        W24435  13.452   4.233  12.166  0.0536  0.1744  0.0950
 8967W        W24436   8.557   2.607  13.042 -0.2980 -0.0807 -0.0347
 8968W        W24437   9.369  14.465  12.072 -0.3781  0.0329 -0.1447
 8969W        W24438  11.512   6.803   3.823  0.1514 -0.1704  0.2659
 8970W        W24439   5.703   3.148   0.293 -0.4361  0.2144 -0.1494
 8971W        W24440  13.574  14.658   1.448  0.1537 -0.3034  0.0680
 8972W        W24441  11.346   9.923   1.036  0.0240 -0.0691  0.1687
 8973W        W24442   6.340  10.845   0.937 -0.3004 -0.0971 -0.1603
 8974W        W24443  14.235  13.997  10.528 -0.4350 -0.0207  0.1383
 8975W        W24444   2.015  15.533   4.374 -0.1781  0.0004 -0.4321
 8976W        W24445  10.266  18.677  12.273 -0.0979  0.0067 -0.2087
 8977W        W24446  18.384   9.278  14.858 -0.2684 -0.1075  0.1660
 8978W        W24447  18.904  15.754   0.774 -0.2798  0.1379  0.0757
 8979W        W24448   8.974  17.815  13.572 -0.0297  0.0224 -0.1502
 8980W        W24449   3.324   4.302   3.232 -0.2029 -0.2536  0.2117
 8981W        W24450   2.499  13.852  11.024  0.0860 -0.1176 -0.0967
 8982W        W24451  15.692   7.527   9.705  0.1380 -0.1196 -0.1328
 8983W        W24452  10.849  14.261   1.218  0.0644 -0.2874 -0.1031
 8984W        W24453   0.030  18.872  13.260  0.0413  0.1983 -0.0716
 8985W        W24454  17.509  14.577  10.810  0.1341 -0.1350  0.1711
 8986W        W24455   7.496   2.188   5.740  0.1277  0.0714 -0.4024
 8987W        W24456  17.596   5.639   3.171  0.0271  0.0867 -0.2861
 8988W        W24457   3.128  14.170   0.759 -0.1236  0.3431 -0.2232
 8989W        W24458  16.896   7.707   3.548  0.1789 -0.0493 -0.0486
 8990W        W24459   9.109  13.808   3.442 -0.1665 -0.0530 -0.1921
 8991W        W24460  17.734  14.057   4.196 -0.1596 -0.0463  0.1217
 8992W        W24461  14.429  11.619   3.155 -0.0129 -0.2230 -0.1101
 8993W        W24462  16.672  15.180   0.844 -0.1744 -0.0392  0.1061
 8994W        W24463   6.485   6.431   2.478  0.0552 -0.0251 -0.2712
 8995W        W24464  12.000  12.040  14.891  0.3895 -0.4387  0.0116
 8996W        W24465   4.174   4.201  15.492  0.0223 -0.1988  0.2114
 8997W        W24466  12.630  12.842   2.243  0.3635  0.1679  0.0798
 8998W        W24467   9.213  11.109  11.798 -0.2920  0.3264  0.1355
 8999W        W24468   6.177  11.494   3.770 -0.0483  0.0925 -0.1885
 9000W        W24469  14.501  12.695   4.040 -0.0489 -0.1434  0.0326
 9001W        W24470  14.446  15.649   1.919 -0.1242 -0.1237 -0.0374
 9002W        W24471   2.307  13.033  10.786 -0.0070  0.2074  0.1542
 9003W        W24472  12.406  11.832  14.530 -0.2626 -0.0640  0.2424
 9004W        W24473   3.994   1.783  11.345 -0.0233 -0.3113  0.1678
 9005W        W24474   2.725   2.534  10.837  0.0639  0.0603 -0.3621
 9006W        W24475  13.449  14.212   1.384  0.0734  0.1483  0.1551
 9007W        W24476   1.445  12.382   0.515  0.3107 -0.1142 -0.0898
 9008W        W24477  14.914  13.307  11.454  0.2820 -0.1443 -0.0093
 9009W        W24478  14.760  12.149   3.452  0.2225 -0.1861 -0.2101
 9010W        W24479   6.390   2.134  10.825  0.0896 -0.2041 -0.2800
 9011W        W24480   9.882   4.032   2.980  0.3137  0.0751  0.1066
 9012W        W24481  16.452  11.871   1.584  0.2615  0.1672 -0.1322
 9013W        W24482   8.957  18.548  10.931  0.0176  0.3631  0.4130
 9014W        W24483   4.862   4.115   3.857  0.3215  0.3331  0.0176
 9015W        W24484  14.660  17.550   2.474  0.0234  0.1313  0.2194
 9016W        W24485   0.968  13.452  12.029  0.0015  0.1631 -0.2600
 9017W        W24486   8.427   6.949   0.749 -0.1564 -0.0217 -0.1403
 9018W        W24487  10.921  16.971   4.155 -0.0475 -0.0141 -0.0271
 9019W        W24488  10.821   0.657  10.652  0.0349 -0.1253 -0.0260
 9020W        W24489  18.039  17.551   2.034  0.1585 -0.2369 -0.1457
 9021W        W24490  18.001  10.831  10.347  0.1108  0.0384 -0.0494
 9022W        W24491  16.590   2.265   0.692  0.3178 -0.2931  0.2859
 9023W        W24492   7.838   7.111  10.672  0.2446 -0.1297  0.2160
 9024W        W24493   4.583   4.920  13.309 -0.0778 -0.1811  0.0244
 9025W        W24494  11.391   5.790  12.955  0.0533 -0.2335  0.1234
 9026W        W24495  14.236  11.321   4.606 -0.2365 -0.2089 -0.2625
 9027W        W24496   5.849  11.475   5.126 -0.1800  0.3243 -0.3625
 9028W        W24497  14.262  10.463   0.501 -0.0066 -0.0260 -0.0328
 9029W        W24498   4.487   1.552   0.480  0.0501 -0.2127  0.2244
 9030W        W24499   9.877  12.596   6.147 -0.0834 -0.0825 -0.1286
 9031W        W24500   8.025  17.598   3.331  0.2013 -0.1462 -0.2349
 9032W        W24501  15.912   1.052   1.306  0.0725 -0.1425  0.1050
 9033W        W24502   4.477   5.726   0.411  0.0339  0.0354  0.1310
 9034W        W24503  18.776  14.481   4.795  0.1384  0.1685  0.0491
 9035W        W24504  17.249   1.681  12.182  0.0155  0.1345  0.3419
 9036W        W24505  10.822  17.250   3.299  0.3314  0.0733  0.5987
 9037W        W24506   8.227   7.365  13.027 -0.0592  0.2166 -0.2572
 9038W        W24507   4.428  13.345   9.746  0.3923 -0.0091  0.2322
 9039W        W24508  15.011   2.209  14.861  0.4784  0.1955  0.2426
 9040W        W24509   3.277   4.803   3.362  0.0275 -0.1699 -0.1182
 9041W        W24510   4.936   7.311  15.400 -0.1194 -0.5293  0.3458
 9042W        W24511   2.219   9.025  14.634  0.0769 -0.1441 -0.2785
 9043W        W24512   3.062   7.047  15.201 -0.2873 -0.5003 -0.0102
 9044W        W24513  14.690  15.968   2.592  0.3012 -0.1445 -0.2008
 9045W        W24514   5.591  17.290  11.149 -0.1498 -0.0099 -0.2138
 9046W        W24515  16.794   6.460   0.380  0.1902 -0.4273 -0.3523
 9047W        W24516  12.110  17.390   5.467 -0.0143  0.1646 -0.1823
 9048W        W24517   0.050   9.945  10.828  0.1277  0.3547 -0.5912
 9049W        W24518  11.992   9.111  11.862 -0.1888 -0.1789  0.1210
 9050W        W24519   9.099   8.544  14.813  0.3020  0.0490 -0.0108
 9051W        W24520   8.628  10.165  14.464 -0.2530  0.0619  0.1495
 9052W        W24521   0.577   9.898   0.036  0.3280  0.0901  0.2925
 9053W        W24522   7.465  18.287   4.826  0.1357  0.1157 -0.0328
 9054W        W24523   6.350   1.610  10.875 -0.0584 -0.0817  0.1737
 9055W        W24524   1.303  14.277  11.617  0.2992  0.1797 -0.5659
 9056W        W24525  13.546   6.024   4.574  0.3681  0.0221  0.1617
 9057W        W24526   1.754   0.276  14.399  0.0632 -0.0565 -0.2601
 9058W        W24527  11.875   5.428  12.121  0.1227  0.2469 -0.3508
 9059W        W24528   3.772  15.030  11.801  0.2285 -0.2706 -0.1911
 9060W        W24529   5.239   8.602   3.150 -0.1414  0.0299 -0.1364
 9061W        W24530   8.237  16.098   2.110  0.0470 -0.0524  0.1622
 9062W        W24531   0.747  16.082   3.530  0.1203  0.0737  0.3427
 9063W        W24532  17.006   0.050  11.868 -0.1019  0.0427  0.1777
 9064W        W24533  15.046  13.287   0.240  0.1562  0.0179 -0.1758
 9065W        W24534  15.265  15.397   0.492  0.2675 -0.0738 -0.3992
 9066W        W24535  13.394  11.733   2.350  0.1618  0.0044 -0.3227
 9067W        W24536  18.122   7.531  11.344  0.2418 -0.0938  0.2090
 9068W        W24537   3.307   6.777   4.235  0.3761  0.2236  0.1502
 9069W        W24538   0.645   5.514   4.270  0.2602 -0.0257  0.1859
 9070W        W24539   4.039   9.203  10.679  0.0682  0.1711 -0.0683
 9071W        W24540   4.586   8.260   1.382  0.1572 -0.0545 -0.0841
 9072W        W24541  12.644  13.068  12.368  0.1774 -0.2733 -0.0641
 9073W        W24542   0.290  12.630  15.286 -0.3642 -0.0346 -0.0754
 9074W        W24543   2.138   8.918   2.250 -0.1887 -0.0609  0.1336
 9075W        W24544  14.729  16.843  12.801  0.0301  0.1073 -0.2193
 9076W        W24545   6.525  11.861   3.726  0.3346 -0.2557 -0.2634
 9077W        W24546   5.731  10.660   3.054 -0.0496  0.0824 -0.4557
 9078W        W24547   7.984  16.393   1.632 -0.4045  0.0004 -0.1251
 9079W        W24548  15.529   3.662   0.113  0.0578  0.0430 -0.0128
 9080W        W24549   6.005  16.652   0.557 -0.0950 -0.1935  0.1811
 9081W        W24550   6.000   9.174  11.194 -0.3275 -0.1297  0.0865
 9082W        W24551   9.596   8.002  13.112 -0.1759 -0.0419  0.2754
 9083W        W24552   6.129   2.137   4.430 -0.1162  0.3657 -0.0347
 9084W        W24553  17.868   0.389   2.028  0.0876 -0.1118  0.2489
 9085W        W24554  12.038   4.587   4.419  0.2348  0.0065 -0.0038
 9086W        W24555  11.246  18.833   2.587  0.0048  0.2053  0.2187
 9087W        W24556   0.359  11.346  14.039 -0.0007 -0.0356  0.1967
 9088W        W24557   2.827  15.858  13.378 -0.2953  0.1038 -0.4265
 9089W        W24558   3.894  11.301   3.975  0.2098  0.0151 -0.1740
 9090W        W24559   7.544   7.560  14.281 -0.2313 -0.0704 -0.1914
 9091W        W24560  11.260  18.863  14.034 -0.2154 -0.2296 -0.0682
 9092W        W24561   0.414   7.034  14.183 -0.0381  0.0994 -0.2376
 9093W        W24562  17.524  14.568   9.899  0.0479  0.0710  0.0002
 9094W        W24563   3.715   7.127   2.651 -0.0247 -0.0393  0.0295
 9095W        W24564   0.314   2.041  12.114  0.1564 -0.0835  0.1069
 9096W        W24565   8.260  14.167   4.990  0.0592 -0.0215  0.0216
 9097W        W24566   9.985   4.894   0.063  0.1256  0.0437  0.0836
 9098W        W24567  14.561  14.109   2.468 -0.0127  0.2255 -0.2480
 9099W        W24568  11.366   2.141   3.745 -0.1223 -0.0731  0.1698
 9100W        W24569  12.486  13.789   4.514 -0.4090 -0.2224 -0.2172
 9101W        W24570   3.676   9.199   3.918 -0.2354  0.1018  0.0961
 9102W        W24571  16.848  18.600  14.943 -0.1702 -0.1592  0.0605
 9103W        W24572  11.937  16.378  12.898 -0.1408 -0.3111 -0.0820
 9104W        W24573   3.284  12.233  13.761  0.2808  0.4013  0.0645
 9105W        W24574   5.510  15.660  13.521 -0.2343  0.2276 -0.0151
 9106W        W24575   0.561   8.039  13.038 -0.0854 -0.0598  0.2058
 9107W        W24576   1.805   8.783  13.649  0.0363 -0.1356 -0.0428
 9108W        W24577  10.061  10.778  14.022  0.1051 -0.1925  0.0764
 9109W        W24578  16.839   0.236   2.262 -0.2613 -0.3003  0.0174
 9110W        W24579  13.312   6.757   0.142  0.2762 -0.1600  0.1744
 9111W        W24580   8.402  12.540   0.625  0.0535  0.3090 -0.1011
 9112W        W24581   2.769  12.267  12.676 -0.0612 -0.0692 -0.0434
 9113W        W24582  11.140   0.842  11.024  0.0243  0.1881 -0.0929
 9114W        W24583   6.186   8.123  12.135 -0.1845  0.0427  0.1280
 9115W        W24584  11.095   9.903  10.976 -0.1132 -0.0377  0.1164
 9116W        W24585   6.871   4.058   5.245  0.5082 -0.0618  0.1338
 9117W        W24586   8.214   1.971  10.798  0.1593  0.0858 -0.0559
 9118W        W24587   8.160   1.337   2.830 -0.0800  0.0399 -0.1177
 9119W        W24588   8.337  17.047  10.598 -0.2088 -0.3692 -0.0408
 9120W        W24589   7.495   4.979  13.734  0.2104  0.0238 -0.2089
 9121W        W24590   3.979   2.299   5.190 -0.1258 -0.1960 -0.1305
 9122W        W24591   7.197   8.577   0.154 -0.3221  0.0040  0.2449
 9123W        W24592   3.854   3.852  12.124 -0.2107  0.0404  0.3052
 9124W        W24593  11.610  17.234  12.844  0.2977  0.0621  0.1510
 9125W        W24594  17.713  14.650   1.714  0.0362 -0.2056  0.0746
 9126W        W24595   9.032   5.506  15.109  0.3586  0.0296 -0.1235
 9127W        W24596   4.201   9.439   3.764  0.1371  0.0244  0.2652
 9128W        W24597   2.809   9.447  13.092 -0.2793  0.3117 -0.0467
 9129W        W24598  15.249  17.094   0.595  0.1070 -0.0031 -0.3994
 9130W        W24599   8.119  10.108  13.588 -0.0842  0.0558  0.0591
 9131W        W24600   0.543  11.359  10.338  0.2799 -0.0372  0.1475
 9132W        W24601   8.265   3.696   4.763  0.3263  0.3754 -0.0479
 9133W        W24602   1.531   7.486   0.891 -0.1115  0.2133  0.0065
 9134W        W24603  13.693   6.965  11.266  0.0228 -0.1312 -0.2738
 9135W        W24604  15.115   8.716  11.857  0.2234 -0.4804  0.0898
 9136W        W24605  13.572  18.162   4.343 -0.3958  0.0005  0.0704
 9137W        W24606  14.025   0.969  13.195  0.3242  0.0863 -0.3126
 9138W        W24607  14.206  11.308   0.532  0.0703 -0.0244 -0.1077
 9139W        W24608   1.094   7.338  15.368 -0.1393  0.0382 -0.2165
 9140W        W24609   3.465   6.576   9.937  0.0007  0.1551  0.1123
 9141W        W24610   3.159   2.959   1.592  0.0898  0.0353  0.0286
 9142W        W24611   4.681  15.351  11.400 -0.1902  0.3352 -0.0241
 9143W        W24612  14.131   9.629   4.962  0.1149  0.2831 -0.1097
 9144W        W24613   3.667   4.892  15.454  0.0465  0.0089 -0.0946
 9145W        W24614   1.462   2.218   3.278 -0.0073 -0.1075  0.0522
 9146W        W24615  16.173  11.732  11.866 -0.1612  0.2663 -0.1172
 9147W        W24616  10.434  17.294  12.219  0.0765 -0.1610 -0.2872
 9148W        W24617  17.919   8.066   1.092 -0.1641  0.1008  0.0665
 9149W        W24618  15.019  11.795   3.975  0.0560  0.0257 -0.1666
 9150W        W24619  17.225  10.925  12.592 -0.0431  0.0900 -0.3115
 9151W        W24620   3.225  10.671   5.326  0.0722 -0.0643  0.1079
 9152W        W24621  15.105  10.889  14.043 -0.1562  0.1141 -0.1674
 9153W        W24622   5.876   7.949   2.781  0.2060 -0.5090  0.3195
 9154W        W24623   0.653   0.636  13.386  0.2492 -0.2167  0.2260
 9155W        W24624   5.883  11.481  12.434 -0.1736  0.2902 -0.0880
 9156W        W24625   7.560  17.940   5.313  0.2416  0.1264 -0.4489
 9157W        W24626   7.677   0.752   1.827  0.1269  0.1282 -0.1537
 9158W        W24627  13.007   1.814   3.352 -0.1214  0.0776 -0.0934
 9159W        W24628  11.397   0.961   1.284 -0.0291  0.1990 -0.0448
 9160W        W24629  15.913  17.999  13.381  0.2408  0.0209 -0.1833
 9161W        W24630   7.050  17.653   4.124  0.3786  0.1145 -0.5637
 9162W        W24631  17.988   2.191   3.029  0.1135 -0.0287  0.0099
 9163W        W24632  12.382  11.215  14.394 -0.1320 -0.0463  0.1220
 9164W        W24633   5.098  18.499   2.488 -0.0467  0.0972  0.0869
 9165W        W24634   3.464   2.415   1.804 -0.2822 -0.1703 -0.0735
 9166W        W24635   2.840   3.886   1.980  0.1180 -0.4581  0.0313
 9167W        W24636  11.485   7.681   4.324  0.2414 -0.0391 -0.1150
 9168W        W24637   7.387  16.590  11.917 -0.3118 -0.3149 -0.1481
 9169W        W24638   5.244   6.507   0.574 -0.2535 -0.0414  0.3262
 9170W        W24639   8.672   0.445   4.917 -0.3755  0.1543 -0.0522
 9171W        W24640   9.871   4.051   1.594  0.1843  0.1862 -0.2630
 9172W        W24641   0.516   7.094   5.119  0.2165  0.0199  0.1928
 9173W        W24642   0.738  11.267  15.196  0.0465 -0.0561  0.1337
 9174W        W24643   8.263   5.406  11.047 -0.2225 -0.1133  0.1369
 9175W        W24644   8.160  18.934   0.386 -0.2483 -0.1471 -0.0871
 9176W        W24645  16.325  13.741   2.894 -0.2478  0.0481  0.0463
 9177W        W24646  15.938  13.185  13.558  0.2456 -0.3568 -0.0195
 9178W        W24647   7.997   4.466  14.640  0.0754 -0.0699  0.1183
 9179W        W24648   2.526  12.207   0.067 -0.1408  0.2280  0.1151
 9180W        W24649   4.301   8.842   5.754  0.0665 -0.1190  0.0874
 9181W        W24650   9.836  10.236  10.965 -0.0165 -0.1589 -0.0495
 9182W        W24651  12.988   5.445  13.476  0.0985  0.0036  0.2549
 9183W        W24652  11.395   2.340  10.782  0.2427  0.0196 -0.1316
 9184W        W24653  16.241  13.810  10.904  0.3272  0.1835 -0.4367
 9185W        W24654   5.336   9.656  14.170 -0.0848  0.2812  0.3515
 9186W        W24655   8.863   0.626   0.126 -0.5384 -0.0632 -0.0632
 9187W        W24656  10.488  14.033   0.967  0.0214  0.0806 -0.1360
 9188W        W24657   9.011  11.604  13.689  0.2235  0.0538 -0.0387
 9189W        W24658   1.784   6.070   5.114 -0.2354 -0.1425 -0.0933
 9190W        W24659  15.108   7.887   1.939 -0.2793  0.0951  0.3651
 9191W        W24660  10.564  18.422   3.345  0.0468 -0.0384  0.0168
 9192W        W24661  10.252   3.646  10.721  0.3668  0.1789  0.0485
 9193W        W24662  12.352  18.864  14.575  0.1841 -0.0290 -0.0146
 9194W        W24663  12.200   0.367  13.290 -0.2066  0.0260  0.2134
 9195W        W24664   0.065  13.103  13.093 -0.0443  0.0566  0.2840
 9196W        W24665  15.186  17.543   1.990 -0.2091  0.0841 -0.1597
 9197W        W24666   2.579  18.464   4.725  0.3090  0.2478  0.1091
 9198W        W24667   6.969  17.634  14.162 -0.0387 -0.4200  0.1278
 9199W        W24668  14.089   8.518  11.048  0.1387 -0.1043 -0.1196
 9200W        W24669  17.239   3.997   2.155 -0.0184 -0.0047  0.3733
 9201W        W24670   7.230   9.529  11.866  0.0816 -0.0647 -0.0609
 9202W        W24671  13.741   1.560   0.998  0.0676  0.1060 -0.0674
 9203W        W24672  15.054  11.492   0.074 -0.2080  0.5232  0.3021
 9204W        W24673   3.558  18.352   4.760  0.1842 -0.2344 -0.0227
 9205W        W24674   3.478   7.577  14.654  0.2765 -0.0671  0.4023
 9206W        W24675   2.770  10.817  12.392  0.0910  0.2767  0.2883
 9207W        W24676   1.748   3.849   0.046 -0.1406 -0.2085  0.0195
 9208W        W24677  12.622  15.717  12.770 -0.1015  0.0429 -0.1536
 9209W        W24678   2.950   6.699  13.311  0.3011  0.1514  0.4290
 9210W        W24679  14.327  17.776  10.629 -0.0468  0.2491 -0.0510
 9211W        W24680   2.234   6.561  10.707  0.1194 -0.2779  0.3055
 9212W        W24681   4.099  12.165  14.004 -0.1465 -0.1737 -0.2438
 9213W        W24682   1.458   2.239  15.479 -0.0840 -0.0929 -0.0062
 9214W        W24683  16.888   8.671   4.394  0.2856  0.1117 -0.1131
 9215W        W24684   4.490  10.582   0.180 -0.0269 -0.3220  0.0569
 9216W        W24685  14.906  16.796  14.489  0.1036 -0.1808 -0.1998
 9217W        W24686   6.940  11.307   2.451 -0.3358  0.0846 -0.1155
 9218W        W24687   6.239  10.041   0.773  0.1436  0.2586  0.0407
 9219W        W24688   9.424   9.233  11.689 -0.1709  0.1687  0.0517
 9220W        W24689  13.870  15.605  13.495 -0.3569  0.2016  0.1657
 9221W        W24690   2.695   1.762   4.006  0.1853  0.1148 -0.2741
 9222W        W24691  13.543  13.600  13.013  0.1725  0.0231 -0.0510
 9223W        W24692   4.407  17.679   0.641  0.2585  0.2718  0.0972
 9224W        W24693  11.148   0.851   0.685  0.2173  0.1363 -0.0306
 9225W        W24694   8.760  16.989  15.226 -0.1639  0.0675 -0.3333
 9226W        W24695  17.724   1.582   1.208 -0.2895  0.2009 -0.0032
 9227W        W24696   7.638  10.153  14.341 -0.3482  0.4023  0.1282
 9228W        W24697   3.638  15.715   2.496  0.1194 -0.3196  0.0358
 9229W        W24698   3.087   4.858  13.773  0.3422 -0.0792 -0.1374
 9230W        W24699   1.643   7.856  11.775  0.0424  0.2317 -0.0132
 9231W        W24700  10.601  14.043   3.945 -0.0265 -0.2446 -0.1922
 9232W        W24701  12.643  12.499   4.931  0.0987 -0.1616  0.1725
 9233W        W24702   2.111   2.591   0.515 -0.2218 -0.1750 -0.0459
 9234W        W24703   9.483   1.451   5.096  0.1845  0.1215  0.0001
 9235W        W24704  14.162  12.571   2.141  0.3474  0.2289  0.0554
 9236W        W24705  15.250  13.306   2.587 -0.1510  0.1882 -0.3699
 9237W        W24706  18.512  11.889   4.387 -0.0155  0.3197  0.0763
 9238W        W24707   4.855   3.547   0.413  0.1948 -0.0052  0.3524
 9239W        W24708   4.643  13.640  11.146  0.0451 -0.6300  0.1109
 9240W        W24709   5.586  16.476   0.745  0.0450 -0.0011  0.3295
 9241W        W24710  10.020  18.108   1.545  0.0810  0.3081 -0.0715
 9242W        W24711  13.861  15.585  15.227 -0.0261 -0.1173 -0.2674
 9243W        W24712   3.658  16.645   2.118 -0.1423  0.2181 -0.1573
 9244W        W24713   8.010  12.144   1.531  0.1124  0.3312 -0.1554
 9245W        W24714   5.364   1.394  14.142  0.1266  0.0719  0.0897
 9246W        W24715   4.822   3.431  10.175 -0.1833  0.7990 -0.1459
 9247W        W24716   0.883   6.898   4.067  0.1492  0.0658  0.0552
 9248W        W24717   6.664   5.437   3.641 -0.0596 -0.0700 -0.1636
 9249W        W24718   6.952   4.723  10.228  0.0468  0.0145 -0.0295
 9250W        W24719  15.581  16.336  15.030 -0.0768  0.5121  0.2095
 9251W        W24720   5.669  13.379  12.415 -0.0910  0.3233  0.0060
 9252W        W24721   0.194  18.416  10.975 -0.0589 -0.0017  0.1460
 9253W        W24722  14.975   8.584   3.563  0.1567 -0.1207  0.1637
 9254W        W24723  11.599   0.841   1.821 -0.1581 -0.2956  0.0738
 9255W        W24724  16.285   3.346   0.089  0.0437 -0.1952 -0.0131
 9256W        W24725  11.255   6.247   5.012 -0.1438 -0.2187 -0.2528
 9257W        W24726   0.427   7.990  11.567 -0.2692 -0.3262  0.1681
 9258W        W24727   7.099   7.057  15.076  0.5372  0.1728  0.0889
 9259W        W24728   1.044  11.775  15.229 -0.3500  0.3189  0.0910
 9260W        W24729   5.257  15.195  12.696  0.3253 -0.2194 -0.1414
 9261W        W24730  15.425  12.077   4.187  0.1695  0.0565  0.0319
 9262W        W24731   6.779  12.868  13.737 -0.1959  0.1448 -0.1949
 9263W        W24732   8.406   5.128   1.375  0.0623  0.1658  0.1275
 9264W        W24733  13.794  13.351   5.273  0.1624  0.0997  0.0612
 9265W        W24734   5.984  13.908  14.085  0.1822  0.1758 -0.0994
 9266W        W24735  16.146  10.069   3.714  0.1463  0.2372  0.0925
 9267W        W24736   3.947   9.499   1.085  0.2327 -0.2547 -0.4010
 9268W        W24737  10.074   8.677  11.994 -0.2032  0.2732  0.1571
 9269W        W24738   7.325  14.032  11.525 -0.2011  0.0007  0.4002
 9270W        W24739  13.051   1.047   1.772  0.1980  0.1576 -0.1268
 9271W        W24740   6.221  16.695  13.034 -0.1687 -0.0363 -0.2052
 9272W        W24741  18.480  16.188   4.714  0.1017  0.2489  0.3005
 9273W        W24742   4.964  12.615   4.237  0.2268  0.4406  0.1548
 9274W        W24743   0.955   5.995   2.951  0.1094 -0.0451  0.2346
 9275W        W24744  11.728  13.655  11.798 -0.3725 -0.1424  0.0363
 9276W        W24745  11.961   4.832  13.816  0.0133  0.0087 -0.0485
 9277W        W24746  12.185   6.153   3.790 -0.0975 -0.0677  0.1213
 9278W        W24747  11.160  10.462  14.844 -0.2446 -0.0481 -0.0675
 9279W        W24748   9.119   1.004  13.189 -0.2379  0.0722  0.2079
 9280W        W24749  15.835  14.347   4.576 -0.0176  0.0517  0.0821
 9281W        W24750  18.374  11.716  14.297  0.0793  0.1227 -0.0915
 9282W        W24751  18.240  12.975   4.014  0.0018  0.0063 -0.0773
 9283W        W24752   6.973   3.900   2.740  0.0370  0.0674  0.3992
 9284W        W24753   5.094  10.406   0.818 -0.0840  0.1855  0.2200
 9285W        W24754   0.340  11.012   2.810  0.3170  0.2246  0.0711
 9286W        W24755   7.038   6.337  12.023  0.1240  0.2575 -0.0979
 9287W        W24756   8.066   9.010  13.031  0.0939  0.0953  0.0022
 9288W        W24757   9.064   2.317  11.602 -0.0133  0.2271 -0.0690
 9289W        W24758  17.610   7.507  13.775  0.0844 -0.1603  0.3727
 9290W        W24759  10.146  17.632  11.917  0.2000  0.1762 -0.2241
 9291W        W24760   3.654  14.403   1.075  0.0185  0.0676 -0.1253
 9292W        W24761   1.504  16.878   1.340 -0.1867  0.0629 -0.0531
 9293W        W24762  11.996   5.759   3.528 -0.1683 -0.2349  0.0298
 9294W        W24763  18.488   2.035   1.882  0.2713  0.1778  0.2092
 9295W        W24764   1.567  15.605   4.079 -0.0708 -0.0539  0.2668
 9296W        W24765  12.932   9.964  11.374  0.0950  0.1601  0.1163
 9297W        W24766  10.092  14.656   2.495  0.0279 -0.3044  0.2049
 9298W        W24767  15.050  10.970  13.521 -0.2280 -0.2420 -0.2084
 9299W        W24768  18.815  13.684  10.233 -0.0409 -0.1851 -0.0690
 9300W        W24769  10.922  17.289  12.373 -0.1253  0.3609  0.0997
 9301W        W24770  18.769   1.201  12.451 -0.3912  0.2433  0.0101
 9302W        W24771  10.517  14.929   5.157  0.1223 -0.0599  0.2894
 9303W        W24772   7.660   5.592  12.350  0.0724  0.0750  0.1594
 9304W        W24773   2.093   5.733   4.864 -0.1219  0.0695  0.0633
 9305W        W24774   4.232   8.171   0.955 -0.0454 -0.0410 -0.0580
 9306W        W24775   3.725  15.386  11.448 -0.1825 -0.0032 -0.2372
 9307W        W24776   2.377   9.198   0.860  0.1743  0.0122  0.0396
 9308W        W24777   2.198  17.303   1.857 -0.0838 -0.1095  0.1625
 9309W        W24778  12.449   0.076  13.632 -0.1736  0.0749  0.2816
 9310W        W24779   1.282   9.358   1.549 -0.2451  0.2237  0.2883
 9311W        W24780  17.111  18.136  13.363  0.1204  0.3158  0.1660
 9312W        W24781   9.594   6.205  13.985 -0.0816  0.2035  0.0597
 9313W        W24782   5.757   5.409   4.223  0.2906 -0.0350  0.0550
 9314W        W24783  14.568   8.446  11.243 -0.1019  0.1400 -0.0264
 9315W        W24784  12.149   3.259  14.624 -0.1579 -0.3290  0.2472
 9316W        W24785   6.466   2.089   2.914  0.4312 -0.1074 -0.5867
 9317W        W24786   3.843   2.327   4.577 -0.0458 -0.1062 -0.2122
 9318W        W24787  18.311   0.473   0.628  0.1390  0.0097 -0.2013
 9319W        W24788   3.327  15.708  13.227  0.3459 -0.3165 -0.1664
 9320W        W24789  12.938   0.429   3.233  0.2492  0.0334  0.0223
 9321W        W24790  18.600   7.689  12.690 -0.0744 -0.2259  0.1291
 9322W        W24791  18.801  16.416   2.714  0.1082  0.1358 -0.0687
 9323W        W24792   2.145   7.918  14.750 -0.1081  0.1071  0.2532
 9324W        W24793   6.851  17.431   0.597 -0.1328 -0.0690 -0.0797
 9325W        W24794  12.379  10.480   1.590  0.5024 -0.0331  0.0805
 9326W        W24795  18.594   6.709   5.003 -0.3562  0.0659  0.2191
 9327W        W24796  13.894  12.072   4.598 -0.0051  0.0011  0.1347
 9328W        W24797   4.457   2.834  14.263  0.0789 -0.1771  0.0592
 9329W        W24798  16.699   0.153  11.507  0.3343 -0.2584  0.0521
 9330W        W24799  12.082   8.437   2.565  0.0343  0.0929 -0.0650
 9331W        W24800   1.601  17.694   3.485  0.0034 -0.0990  0.0188
 9332W        W24801   6.521   0.202   4.117  0.0850  0.2417  0.3142
 9333W        W24802   8.510  14.319   3.916 -0.0836 -0.1266 -0.0267
 9334W        W24803  17.421   1.372  10.931 -0.1828 -0.0061  0.0005
 9335W        W24804  17.817   2.734  13.534 -0.0451  0.1386 -0.1100
 9336W        W24805   7.203   9.037  13.438 -0.0610 -0.0708 -0.0914
 9337W        W24806   5.129  10.943   3.712  0.1662 -0.3460 -0.2055
 9338W        W24807  17.967   6.299   1.083  0.0250  0.0323 -0.2217
 9339W        W24808   8.745   8.159   4.446 -0.2320 -0.0651  0.1038
 9340W        W24809   0.854   3.163   2.051  0.0261  0.0635 -0.2478
 9341W        W24810  14.843   5.580   3.172 -0.0357 -0.0189 -0.0138
 9342W        W24811   3.222   1.076  14.566 -0.0147  0.0244 -0.4719
 9343W        W24812  14.008   9.009   2.725 -0.2546 -0.2194 -0.2204
 9344W        W24813  18.898   1.569   3.832  0.0072 -0.0748 -0.2363
 9345W        W24814   9.123  14.858   6.129 -0.0272 -0.1398  0.1979
 9346W        W24815  11.380   6.555  13.419 -0.2572 -0.2815  0.1178
 9347W        W24816  16.296   9.728   4.867  0.1963 -0.0567  0.0109
 9348W        W24817  11.397  10.224  14.242 -0.0817  0.2352  0.2601
 9349W        W24818  17.962  17.996  13.621 -0.2200 -0.3147 -0.2284
 9350W        W24819  16.082  10.516   1.619  0.2637  0.0935 -0.0031
 9351W        W24820  18.861   0.918   4.731 -0.3593  0.0238 -0.2058
 9352W        W24821   1.259   9.029   3.583  0.0088  0.2307  0.2885
 9353W        W24822  12.974  15.857  12.300 -0.1529 -0.2227  0.0894
 9354W        W24823  12.025  11.422  14.145  0.2743  0.0339 -0.3130
 9355W        W24824  14.840   7.467  10.942  0.1217  0.0477  0.0795
 9356W        W24825   1.952  16.913  14.084 -0.1418  0.1367  0.0226
 9357W        W24826  16.564  16.110  11.622 -0.1283 -0.1435  0.0072
 9358W        W24827   9.443  14.102  13.988  0.1910  0.1447  0.0163
 9359W        W24828   8.083  12.512  12.275 -0.2397 -0.2577  0.1514
 9360W        W24829  11.914  18.724   4.462  0.1660  0.0212  0.1260
 9361W        W24830   6.510  15.281   2.872  0.0511  0.1717 -0.0222
 9362W        W24831  13.353   6.536  11.934 -0.0019  0.2543  0.1107
 9363W        W24832   9.459  16.673  12.270  0.0834 -0.2230 -0.2170
 9364W        W24833  10.178  11.066  14.870 -0.0753 -0.1591  0.0263
 9365W        W24834   9.268  15.901  12.388  0.4252 -0.0161  0.0341
 9366W        W24835  17.214  14.348   4.562  0.1533  0.1523  0.0080
 9367W        W24836   6.560   4.722  12.803  0.0488 -0.0622 -0.0402
 9368W        W24837  13.416  16.404  13.037 -0.4057 -0.3114 -0.0383
 9369W        W24838   8.691  15.541   5.076  0.2009 -0.2055 -0.0384
 9370W        W24839  12.734  18.671  11.651  0.0175  0.1211 -0.1291
 9371W        W24840   4.713  11.815   1.196 -0.1587  0.0423 -0.1986
 9372W        W24841   1.750   2.093  11.798  0.3925 -0.1415 -0.2080
 9373W        W24842  16.081  10.326  11.743 -0.0145 -0.0234 -0.2731
 9374W        W24843   0.230  11.709   0.633 -0.0401 -0.2526  0.0316
 9375W        W24844  18.410  10.364  14.753 -0.4118 -0.1265  0.1584
 9376W        W24845  17.746  18.119  15.038  0.0353 -0.2352 -0.1168
 9377W        W24846  10.301   5.925   2.875 -0.1030  0.1723 -0.1000
 9378W        W24847   1.406   2.346   4.578 -0.1581 -0.2930  0.1276
 9379W        W24848   0.330   0.327  12.576  0.2165 -0.2609  0.0800
 9380W        W24849   7.435   8.314   4.543  0.2454 -0.3963 -0.0238
 9381W        W24850   2.983  18.183   3.638  0.0778 -0.2067 -0.2303
 9382W        W24851   4.384  16.102   3.195 -0.1496  0.0952 -0.2005
 9383W        W24852   6.429  15.305  10.922 -0.1192 -0.0755  0.2055
 9384W        W24853  17.575  12.930   9.974  0.0708  0.1518 -0.1115
 9385W        W24854   1.323   1.627   4.555 -0.0960 -0.0966  0.1439
 9386W        W24855   2.951  18.735  14.346  0.0139 -0.0504 -0.1132
 9387W        W24856  14.200   0.202   3.457  0.0929  0.2219  0.0596
 9388W        W24857   7.901  18.411  11.865  0.1788  0.2229 -0.0406
 9389W        W24858  18.625  10.203   3.814  0.0179 -0.0392 -0.0917
 9390W        W24859   9.553   6.976   1.341  0.1679  0.3010 -0.2014
 9391W        W24860   1.199   8.551  12.716  0.3197 -0.3115  0.1684
 9392W        W24861  15.414   7.938   0.853  0.4988  0.2302 -0.1341
 9393W        W24862   6.188   7.041   1.888  0.4073 -0.0309 -0.1471
 9394W        W24863   0.246  13.735   0.743  0.4895 -0.2513  0.2018
 9395W        W24864  10.332   2.659   3.869  0.3340  0.1949  0.0485
 9396W        W24865  13.845   7.406   4.725 -0.2830  0.0390 -0.0439
 9397W        W24866   0.570   0.309  11.613  0.0010 -0.0987  0.0523
 9398W        W24867  18.496   2.566  14.624 -0.0543  0.1733 -0.0489
 9399W        W24868   9.873   2.616  11.119 -0.1239  0.1221  0.1646
 9400W        W24869  13.800   0.196   1.368  0.0140  0.0713 -0.1801
 9401W        W24870  11.694  16.897   2.402  0.0463  0.0172 -0.1825
 9402W        W24871   6.447   0.702   2.333 -0.3954 -0.3373  0.1303
 9403W        W24872   8.674   4.396   2.762 -0.0281  0.2220  0.1542
 9404W        W24873  12.291   4.043   1.025 -0.0430 -0.2012  0.1175
 9405W        W24874   7.582  15.285   0.390 -0.2773  0.1648 -0.0933
 9406W        W24875  16.166  15.593  13.674 -0.1426 -0.0560 -0.3895
 9407W        W24876  13.531  15.830   4.120  0.2660  0.1176 -0.0670
 9408W        W24877   0.069  18.733   3.880  0.3508 -0.4603  0.2120
 9409W        W24878   4.745   4.951  10.983 -0.0151 -0.1787 -0.2517
 9410W        W24879   1.053  17.383   3.012  0.1247 -0.0211 -0.2557
 9411W        W24880  16.885   6.614   3.361  0.1651  0.3029  0.1308
 9412W        W24881   3.166  14.646  11.569 -0.1542 -0.1211 -0.1327
 9413W        W24882  11.310  13.382   1.862 -0.0075 -0.0336  0.1164
 9414W        W24883  11.003  17.288  14.712 -0.1325  0.1012  0.2105
 9415W        W24884   3.161   6.155  15.048  0.1565 -0.1207  0.3090
 9416W        W24885   1.212  15.829   0.762  0.0728  0.0835 -0.1009
 9417W        W24886   2.461  14.972  14.719  0.0400 -0.0191  0.0493
 9418W        W24887   9.830   1.080   0.529 -0.0222  0.1720 -0.3648
 9419W        W24888   8.496  16.976   0.933 -0.2531  0.0313  0.2609
 9420W        W24889   6.495  11.975   2.551 -0.2604  0.1065  0.0706
 9421W        W24890   9.267  11.290   5.458  0.1586  0.1940 -0.1197
 9422W        W24891   2.202   5.619  14.027 -0.4281  0.0751  0.0077
 9423W        W24892   4.599  12.245   0.040  0.4002 -0.1126  0.0349
 9424W        W24893   6.516   4.818   1.310  0.2696  0.1891  0.2729
 9425W        W24894   7.635  18.505   3.828 -0.0457  0.1708 -0.0417
 9426W        W24895  18.449  17.275   1.281 -0.0679 -0.2363 -0.0260
 9427W        W24896  14.589  13.881  11.006 -0.0093 -0.0221  0.1247
 9428W        W24897   7.291   6.580  14.348 -0.0303  0.0031 -0.0412
 9429W        W24898   3.616   3.781   3.229 -0.0223 -0.2990  0.0717
 9430W        W24899  18.775   2.122  13.338  0.0580  0.3298 -0.2755
 9431W        W24900  11.423  17.228  14.368 -0.1887 -0.2350  0.0440
 9432W        W24901   3.456   2.359  10.870  0.0950  0.0532  0.0940
 9433W        W24902   2.632  15.794  12.028 -0.2090 -0.3100 -0.1559
 9434W        W24903  10.367  14.944   2.173  0.5180 -0.0413 -0.0885
 9435W        W24904   9.201  15.599   1.160 -0.2614  0.0096  0.1144
 9436W        W24905   0.107   3.430   5.366  0.0499  0.0129 -0.1767
 9437W        W24906   5.459   3.975   4.796  0.2223 -0.4042  0.0668
 9438W        W24907   7.978   8.402   3.322  0.3095  0.2229  0.0641
 9439W        W24908  18.178   9.227   1.544 -0.0219  0.4370 -0.3717
 9440W        W24909   7.446   8.560  11.447 -0.1985 -0.0081 -0.0103
 9441W        W24910   9.853  15.671   2.568  0.0649  0.2690  0.1684
 9442W        W24911   6.195   9.614  13.308 -0.3498 -0.2576 -0.2143
 9443W        W24912  17.067   7.641   5.065 -0.0325 -0.0094 -0.1137
 9444W        W24913   2.127   8.103  11.665  0.2560 -0.1609 -0.1353
 9445W        W24914  12.774   0.453   1.261 -0.1270 -0.2404 -0.0542
 9446W        W24915   1.912   0.078   4.454  0.2832  0.3200 -0.0193
 9447W        W24916   9.514  14.208  12.821  0.0468 -0.0451  0.0150
 9448W        W24917   4.350  16.268   0.883 -0.4851 -0.1818  0.3054
 9449W        W24918  10.201  11.620  11.764 -0.0251  0.0607 -0.1308
 9450W        W24919  11.571  14.924  15.400  0.2407 -0.1352 -0.0317
 9451W        W24920  15.737  17.026  13.912 -0.1460  0.0100  0.1804
 9452W        W24921  13.755   3.822   3.431  0.1088 -0.3228 -0.0063
 9453W        W24922  15.793   8.185   5.496  0.0993 -0.0288  0.3421
 9454W        W24923  17.508   1.413  10.462  0.1738 -0.3630 -0.0809
 9455W        W24924   5.409  18.729  11.676 -0.1785 -0.2588  0.2212
 9456W        W24925  13.781   4.065   2.315  0.0611 -0.1010 -0.0491
 9457W        W24926   5.978  10.168   1.763 -0.5018  0.0806 -0.0127
 9458W        W24927  12.295   5.601  14.942 -0.1105  0.2988  0.1366
 9459W        W24928   5.765  10.312   2.698  0.0022  0.0476 -0.0138
 9460W        W24929  14.203   1.209  12.751  0.2696  0.0043  0.0705
 9461W        W24930   1.221   8.130   2.014  0.0579 -0.2787  0.2317
 9462W        W24931   5.130  18.866   5.874  0.0463  0.0476  0.1840
 9463W        W24932   9.949   1.693   1.441  0.2450  0.1363  0.2484
 9464W        W24933   5.768  10.837   2.592  0.1350  0.1343 -0.1671
 9465W        W24934   1.516   6.830   5.700 -0.0903 -0.2522 -0.0600
 9466W        W24935  17.526  11.851  10.955 -0.0591 -0.1284  0.1570
 9467W        W24936  14.347   3.046   0.056 -0.2015 -0.2031  0.0510
 9468W        W24937  12.984   7.663  15.431  0.2611  0.1667 -0.0774
 9469W        W24938  17.541   9.892  14.777  0.0962 -0.2496  0.2993
 9470W        W24939   0.634  15.863   4.162 -0.2026 -0.0934 -0.1795
 9471W        W24940   6.116   5.340   2.335  0.0662  0.0713 -0.2677
 9472W        W24941   6.566   5.097  15.310 -0.1458  0.0775 -0.3168
 9473W        W24942   6.220  14.358   4.879 -0.0654  0.2537  0.1197
 9474W        W24943  15.060   1.388   4.914  0.0169 -0.0752  0.2156
 9475W        W24944   1.042  13.638  14.518  0.0136 -0.0965  0.1054
 9476W        W24945  12.688  12.379   5.793 -0.0562  0.1294 -0.1413
 9477W        W24946   7.337   9.042   4.044 -0.0361  0.2191  0.2363
 9478W        W24947  12.626  18.519   0.981 -0.1788  0.0681 -0.1268
 9479W        W24948   7.845   7.695   3.239 -0.2225 -0.4937  0.2295
 9480W        W24949   1.144  15.415  10.676  0.1158  0.0794 -0.0983
 9481W        W24950   4.278  13.002   2.862  0.0770  0.0850  0.1030
 9482W        W24951  10.575   3.446   1.420 -0.0346  0.0292 -0.0913
 9483W        W24952   6.870  10.398  12.175  0.3524  0.1259 -0.1408
 9484W        W24953   3.028  10.236   3.205 -0.3479 -0.1041 -0.1619
 9485W        W24954   4.251  18.326   9.734 -0.0987  0.2078  0.0785
 9486W        W24955  13.915   0.954  12.147  0.1472 -0.0194 -0.1867
 9487W        W24956   1.122  12.242  15.088 -0.3484 -0.0815 -0.1497
 9488W        W24957   3.267   9.969   4.683  0.1893 -0.0805  0.0066
 9489W        W24958   0.290   4.786   5.007 -0.1770 -0.1041  0.2341
 9490W        W24959   1.332   2.633   5.978  0.0376 -0.0885 -0.1741
 9491W        W24960  10.240   3.829  12.678  0.0559  0.0953 -0.2441
 9492W        W24961  18.471   6.505  11.322  0.0056  0.2571 -0.0786
 9493W        W24962   7.020   2.135   2.682  0.0647  0.0333 -0.0878
 9494W        W24963  12.455  12.049   1.789 -0.2371 -0.0062 -0.0097
 9495W        W24964  10.750  12.484   0.725 -0.0260 -0.2154  0.1760
 9496W        W24965  12.509   9.602   2.840  0.0423  0.0326  0.2022
 9497W        W24966   4.398   6.052   2.004 -0.1245 -0.2350 -0.1610
 9498W        W24967  16.853   5.277   0.273 -0.1421  0.0525  0.1973
 9499W        W24968  10.252  15.352  11.949 -0.1352 -0.1613  0.0498
 9500W        W24969   3.673  18.018  13.039  0.5440 -0.2760  0.0458
 9501W        W24970   2.242  10.266   1.499 -0.1698 -0.2961 -0.0810
 9502W        W24971   8.307  18.442   9.826  0.3794  0.1116  0.1284
 9503W        W24972  10.996  15.509   4.840 -0.1684 -0.1770  0.2160
 9504W        W24973   5.043  14.908   3.778 -0.0760  0.0393 -0.0103
 9505W        W24974   7.289   0.159   3.291  0.0787  0.0298 -0.2736
 9506W        W24975  13.354   7.028  11.804 -0.0403 -0.0818  0.1973
 9507W        W24976   3.953   8.161  12.657  0.2310 -0.1729 -0.0047
 9508W        W24977   1.338   3.380  13.491  0.0926 -0.0013  0.2227
 9509W        W24978   9.096   4.700   5.083 -0.5046  0.3179 -0.0364
 9510W        W24979  12.652  18.530   5.424  0.3164 -0.1838 -0.0462
 9511W        W24980   2.096   7.619  11.943  0.1517  0.1594  0.0568
 9512W        W24981   3.250   2.684   5.753 -0.1887  0.0680  0.0168
 9513W        W24982  18.095  15.025   3.509  0.0958  0.5388  0.6091
 9514W        W24983  15.791   5.863  13.309 -0.5446 -0.0764  0.2939
 9515W        W24984  10.123  12.667  11.873  0.3092 -0.1802  0.1825
 9516W        W24985   6.665   3.032  11.096 -0.1468 -0.1571  0.0568
 9517W        W24986  14.115   0.831   4.517 -0.0463  0.1353 -0.0735
 9518W        W24987   3.827  18.052  11.023  0.0683 -0.1853  0.0324
 9519W        W24988  10.360   8.032  11.100  0.1826  0.1527 -0.0168
 9520W        W24989  17.361   3.060  13.883  0.0427  0.5054  0.1429
 9521W        W24990   0.215  14.537  10.661 -0.3862  0.0896 -0.0759
 9522W        W24991  15.651   3.681   3.750 -0.0223  0.2930 -0.2879
 9523W        W24992   9.565  13.904  15.042 -0.1089  0.3459 -0.1821
 9524W        W24993  13.118  17.268  10.026 -0.2788 -0.1594 -0.0275
 9525W        W24994   7.771  15.354   4.950 -0.2556 -0.0345  0.0283
 9526W        W24995   5.314  16.484   3.345 -0.0154  0.0191  0.0307
 9527W        W24996  11.326   8.861   0.514  0.0598 -0.4009 -0.0322
 9528W        W24997  16.399  17.082   1.326 -0.2726  0.3809 -0.1905
 9529W        W24998  14.714  17.832   1.049  0.0625 -0.4891  0.3166
 9530W        W24999   7.847   5.058   0.315 -0.0875 -0.0395 -0.0072
 9531W        W25000   3.172   3.655   0.223  0.1655  0.4163  0.1241
 9532W        W25001   3.176   9.460   1.156  0.1391  0.1008  0.1842
 9533W        W25002   7.930  10.095   1.529 -0.3132 -0.5615  0.0001
 9534W        W25003  14.320   2.261   4.083 -0.0260 -0.1550  0.1217
 9535W        W25004   4.810  10.901  12.306 -0.0101 -0.0128  0.1489
 9536W        W25005   4.983   1.148   1.103 -0.3144  0.2985 -0.3779
 9537W        W25006  10.286  18.271  14.064  0.1694 -0.2485  0.3496
 9538W        W25007  11.016   9.328   1.321 -0.2456 -0.0479 -0.0979
 9539W        W25008   6.541  18.788   9.732  0.0167  0.0815 -0.0652
 9540W        W25009   2.002   1.940   5.774  0.0381 -0.1313  0.1766
 9541W        W25010   4.904   5.911   2.686  0.0282  0.0494 -0.0117
 9542W        W25011   5.522   9.224  12.401 -0.0231  0.1006  0.2551
 9543W        W25012   4.561   2.699  15.354 -0.0208  0.0296  0.1377
 9544W        W25013   8.791   5.408  10.895  0.2730  0.1215  0.1680
 9545W        W25014   1.429   4.276   2.782 -0.0218 -0.1610  0.3095
 9546W        W25015  12.913   2.377  14.393  0.1754  0.2012  0.0131
 9547W        W25016   3.922   3.767   4.136  0.1984  0.1592 -0.2542
 9548W        W25017  18.063  18.482   2.995 -0.1674 -0.3293  0.0287
 9549W        W25018   0.823   0.159   4.940 -0.1410  0.0789 -0.2697
 9550W        W25019   1.281   8.603  15.493 -0.2928 -0.0142  0.1183
 9551W        W25020   7.375  13.610  13.539 -0.0353  0.0520 -0.1337
 9552W        W25021  13.707   2.819   2.929  0.0327  0.1858  0.1159
 9553W        W25022  14.252   4.654  13.871  0.0634  0.4003 -0.1648
 9554W        W25023   1.437   2.733   1.065 -0.0033 -0.1479  0.0035
 9555W        W25024   1.811   4.843  14.638  0.2105  0.0674  0.2544
 9556W        W25025  14.785   9.232   1.058 -0.2898 -0.0023  0.0719
 9557W        W25026   4.329  11.948   1.500  0.1637 -0.1765  0.1336
 9558W        W25027   1.093   3.064  10.683  0.1242  0.2397  0.1298
 9559W        W25028  18.906   1.240  15.008  0.0641  0.1186  0.0524
 9560W        W25029  16.649  11.251   0.418  0.2416 -0.2074  0.1917
 9561W        W25030  16.927  16.891  12.345 -0.1915  0.2529  0.2049
 9562W        W25031   0.794  13.033   3.922 -0.0619 -0.2286  0.1657
 9563W        W25032   6.700  14.714   4.275 -0.3133  0.0925 -0.0958
 9564W        W25033   8.169   1.417  12.686 -0.1058 -0.1649  0.2393
 9565W        W25034   6.219   5.165   4.318  0.2999 -0.0224 -0.0658
 9566W        W25035   5.798   4.311   4.136 -0.2683  0.2113 -0.1722
 9567W        W25036  16.253   6.234  14.795 -0.0938  0.1434 -0.0142
 9568W        W25037  16.414   1.169  13.132  0.0709  0.0601  0.3196
 9569W        W25038  11.861   0.384   3.565 -0.0749 -0.0241  0.0424
 9570W        W25039  16.702  15.679   3.897 -0.1576  0.4638  0.1042
 9571W        W25040   7.428   9.813  14.967 -0.0612  0.0311 -0.2998
 9572W        W25041   8.492  16.226   9.799 -0.1351 -0.0722  0.2876
 9573W        W25042  13.720  16.278   4.218 -0.0011  0.0839  0.1862
 9574W        W25043  12.975   3.985  13.110 -0.1089 -0.2749  0.1300
 9575W        W25044   1.226   7.036   1.346  0.2207 -0.0798 -0.0234
 9576W        W25045   4.906   0.241   1.536  0.0236 -0.0635 -0.4424
 9577W        W25046   9.082   4.425   0.797 -0.2694  0.2664 -0.2275
 9578W        W25047  15.363  10.954  11.660 -0.1868  0.1611  0.0143
 9579W        W25048   7.584   1.323   4.527  0.0170  0.0138 -0.0227
 9580W        W25049  17.069   3.236  11.584  0.2658  0.1171 -0.0893
 9581W        W25050   7.173   4.858  14.061 -0.0397  0.2099  0.1760
 9582W        W25051  13.248   7.867   4.624 -0.0278 -0.0614 -0.0631
 9583W        W25052   6.830  11.421   5.148 -0.0784 -0.2435 -0.1978
 9584W        W25053   7.838   7.254   1.578 -0.1690  0.0043  0.1524
 9585W        W25054   2.007   9.250  13.655  0.0387 -0.1575 -0.1467
 9586W        W25055   2.953   4.744  11.165 -0.4301 -0.3267  0.0431
 9587W        W25056  14.209   9.936  10.443  0.0109  0.0184  0.1846
 9588W        W25057   5.483   2.439   0.780  0.0085 -0.0279  0.2412
 9589W        W25058   6.495   1.563   3.871  0.0140  0.0530  0.1574
 9590W        W25059   7.492  14.996   0.836 -0.0161 -0.0199 -0.1175
 9591W        W25060   9.577  15.993  11.318  0.2446  0.0743  0.2398
 9592W        W25061  17.405  12.694   4.304  0.1894 -0.0526 -0.1610
 9593W        W25062   8.243  15.549   1.108  0.2375  0.0031  0.0809
 9594W        W25063  15.390  17.794  14.327 -0.1754  0.0337 -0.6025
 9595W        W25064  15.301  17.481  10.146 -0.0356  0.0953  0.0698
 9596W        W25065   0.401   3.614  15.085  0.1002  0.0521 -0.1866
 9597W        W25066   6.887  18.830   3.163 -0.0517 -0.4640 -0.1180
 9598W        W25067  11.329   5.079   0.399 -0.3239 -0.1024  0.0220
 9599W        W25068  13.064  18.392   0.826 -0.0780 -0.1268 -0.2303
 9600W        W25069   9.483   9.268  15.427 -0.1551 -0.1929 -0.0976
 9601W        W25070  14.616   3.894  14.786  0.0284 -0.3018 -0.0294
 9602W        W25071  11.900  13.753   5.899  0.3101 -0.0480 -0.2600
 9603W        W25072   5.870  15.775   2.211  0.1405 -0.1397 -0.0091
 9604W        W25073   2.314   9.316  15.453  0.2356  0.1057  0.0714
 9605W        W25074   8.525   6.680  11.895  0.4457 -0.1903  0.0517
 9606W        W25075  18.472   4.822  12.958  0.2013  0.2391 -0.0207
 9607W        W25076   0.045  11.806  14.448 -0.1326 -0.0867  0.1197
 9608W        W25077  12.672   8.084   2.944 -0.1218  0.4440 -0.0452
 9609W        W25078  14.037   4.976  14.327 -0.0045 -0.0028  0.1445
 9610W        W25079   5.988  12.181  11.812  0.1735 -0.0994 -0.1405
 9611W        W25080  18.077  16.884   3.875  0.0221  0.1557  0.0045
 9612W        W25081  17.380   4.379   1.156 -0.3534  0.1821  0.0602
 9613W        W25082   1.136   0.920  14.354  0.1751  0.1175  0.1660
 9614W        W25083   5.684  10.930   4.852  0.1925 -0.0869  0.0677
 9615W        W25084  12.176   3.241  15.357  0.3210  0.0510 -0.1177
 9616W        W25085   9.369   7.563  13.572 -0.2792 -0.0350 -0.0657
 9617W        W25086   0.112  13.472   2.688  0.0672 -0.0827 -0.1473
 9618W        W25087   4.939   4.566   2.781  0.2673  0.0661  0.1911
 9619W        W25088  14.303  11.888   2.726  0.0603 -0.3120  0.2681
 9620W        W25089   0.002   4.831  14.276  0.1293  0.0241 -0.1075
 9621W        W25090  12.856  15.235   3.753 -0.0747 -0.1306  0.1001
 9622W        W25091   8.296   4.921  11.888 -0.3901  0.2126  0.0115
 9623W        W25092   5.569  18.021  14.742 -0.0392 -0.0560 -0.1302
 9624W        W25093   8.604   5.695  13.604 -0.0910  0.2940  0.0137
 9625W        W25094   0.956  14.818  11.309 -0.2339  0.0067  0.0542
 9626W        W25095   2.223  10.151  12.050  0.2329 -0.0371 -0.1495
 9627W        W25096  13.648  13.631   2.859  0.1131 -0.2426  0.0366
 9628W        W25097   8.986   4.413   3.863 -0.4681  0.2523 -0.0264
 9629W        W25098   7.175  12.383  14.430  0.2192  0.3692 -0.0441
 9630W        W25099  11.567  11.195  12.986 -0.2016 -0.1186 -0.0637
 9631W        W25100  13.053   7.730   1.745 -0.1685 -0.1895  0.1061
 9632W        W25101  17.099   1.678  14.086  0.0102  0.0035  0.1326
 9633W        W25102  11.768   1.323   4.579 -0.0246 -0.0964  0.0304
 9634W        W25103   8.350  14.767  13.587 -0.0940 -0.3188  0.4178
 9635W        W25104  13.429   5.185  13.358 -0.2302  0.1504  0.0194
 9636W        W25105   7.421  15.018  13.882  0.1291  0.1456 -0.2201
 9637W        W25106   7.704   1.904   0.230 -0.0269  0.0411  0.1491
 9638W        W25107   9.343   7.845  11.078  0.2125  0.0221  0.0479
 9639W        W25108   5.537  14.814  15.444  0.1797 -0.0236  0.0077
 9640W        W25109   2.254   1.557   3.923  0.1367 -0.0575  0.0571
 9641W        W25110  18.604   7.640  15.470  0.0631 -0.0584 -0.3523
 9642W        W25111   2.189   4.369   1.563  0.2254 -0.1735  0.0048
 9643W        W25112  10.111  17.857   5.148  0.1430 -0.0424 -0.1129
 9644W        W25113   3.908   7.985  14.088 -0.1907 -0.0736 -0.1701
 9645W        W25114   3.724  11.703  12.414  0.1539  0.2803 -0.4243
 9646W        W25115   7.571   3.953   0.249  0.0548  0.0604 -0.2075
 9647W        W25116   9.427   3.527   2.152  0.0491 -0.0191 -0.2215
 9648W        W25117  14.249   7.731  11.321 -0.2786  0.1371  0.0079
 9649W        W25118   2.350  12.330   2.189  0.2015 -0.1587 -0.3460
 9650W        W25119  14.689   5.249  11.663 -0.0066 -0.1535  0.2638
 9651W        W25120   3.590   1.807  11.040 -0.1853 -0.0206 -0.3903
 9652W        W25121   3.585   1.739   5.067  0.1104 -0.1532  0.1003
 9653W        W25122   9.120   5.033  10.552 -0.1426  0.0732 -0.2004
 9654W        W25123  18.438  17.662   5.503 -0.1471  0.1024  0.2988
 9655W        W25124   1.598   4.831   2.924 -0.0324  0.2140 -0.0762
 9656W        W25125   6.181  17.403   4.304  0.4351 -0.0626 -0.0433
 9657W        W25126   6.210  11.281  15.067  0.1591 -0.2548  0.1423
 9658W        W25127   1.107  12.625   4.145 -0.0059  0.1615  0.1335
 9659W        W25128  14.187  14.689  14.621  0.0078 -0.1648  0.0572
 9660W        W25129   0.881  12.246   4.459 -0.1132 -0.0688  0.0883
 9661W        W25130  16.153  12.258  11.819 -0.0944  0.0621  0.1519
 9662W        W25131  15.728   8.040   0.073 -0.0470  0.4416  0.0757
 9663W        W25132  16.546   1.597  12.796  0.2038  0.1833 -0.1427
 9664W        W25133  13.897   5.572  12.470  0.0678  0.1957 -0.2904
 9665W        W25134   4.684  13.021   0.825  0.1023 -0.2114  0.1485
 9666W        W25135  10.412   8.401  10.285  0.0784 -0.2351  0.0561
 9667W        W25136   6.185   6.031   2.415  0.3655  0.1033 -0.0456
 9668W        W25137  17.856  13.459   1.976 -0.4802 -0.2084 -0.0892
 9669W        W25138  10.115  14.805  14.484  0.5073  0.2848  0.0142
 9670W        W25139   6.784   8.952  15.246  0.0713  0.1086  0.1247
 9671W        W25140  12.755  18.925   3.255  0.1720  0.0592  0.1877
 9672W        W25141   2.596   6.752   1.209 -0.1980  0.1420  0.1826
 9673W        W25142   3.066   1.540   0.347 -0.0457 -0.1991 -0.3165
 9674W        W25143   0.251  10.034  14.603 -0.0017 -0.1758  0.0528
 9675W        W25144  18.833   1.480   2.443  0.0192 -0.0130 -0.2379
 9676W        W25145  11.269  14.528   1.328 -0.3454  0.1449 -0.1057
 9677W        W25146  15.611  15.996  11.475  0.0493  0.0673  0.5326
 9678W        W25147  15.003   6.943  14.436 -0.2574 -0.1721 -0.2586
 9679W        W25148  17.560   1.717  12.881 -0.0185 -0.5422 -0.1571
 9680W        W25149   7.534  17.588  13.062  0.1078  0.1821  0.0529
 9681W        W25150  18.269   0.832  11.708  0.0051 -0.1516  0.1040
 9682W        W25151   4.779   3.644   2.778  0.1868  0.0642  0.0344
 9683W        W25152   0.423   8.922  14.475  0.6495 -0.1684  0.4279
 9684W        W25153   9.162   1.792  15.419 -0.2000  0.1878  0.3587
 9685W        W25154   5.024   8.333   1.663 -0.0171  0.2901 -0.2804
 9686W        W25155   9.246  11.794   3.869 -0.0242  0.0545  0.0581
 9687W        W25156  16.081  12.195   1.465 -0.2790  0.1723  0.2567
 9688W        W25157   1.248   6.701  11.676  0.2796 -0.2641 -0.0807
 9689W        W25158  17.075  16.776  14.211  0.1896  0.1941 -0.1735
 9690W        W25159   6.893   6.669  11.675 -0.1526 -0.2736 -0.1264
 9691W        W25160  11.346   9.277  11.208 -0.0847  0.3858 -0.0693
 9692W        W25161  12.015   5.621   2.716 -0.1480  0.2241 -0.1369
 9693W        W25162   1.083   0.218  13.858  0.2823 -0.0233  0.2257
 9694W        W25163  15.140  18.108  12.295  0.1829 -0.1225 -0.3276
 9695W        W25164   0.470   5.267  11.475 -0.2355 -0.1694  0.2886
 9696W        W25165  11.997  15.457   1.163  0.2784  0.0741  0.0509
 9697W        W25166  11.085   6.038   4.171 -0.0139  0.1065 -0.0992
 9698W        W25167   3.891   5.477  15.147 -0.0563  0.4488  0.0367
 9699W        W25168   1.107  11.935   1.716 -0.0870 -0.0948 -0.1739
 9700W        W25169   1.789   5.549  12.873  0.0758 -0.0431  0.1789
 9701W        W25170   9.154   0.609   1.556 -0.1938  0.1066 -0.2848
 9702W        W25171   1.836   7.563   2.065  0.0183 -0.2693  0.1750
 9703W        W25172   2.026   0.044  12.931 -0.1737 -0.1852 -0.3440
 9704W        W25173   1.272   8.235  14.396  0.1405  0.1297  0.0127
 9705W        W25174  18.625  13.682   2.391  0.0081  0.3122  0.2104
 9706W        W25175  14.567  10.133   1.190  0.1463 -0.2840 -0.0309
 9707W        W25176  18.691  17.478   4.956 -0.0151 -0.1138 -0.0021
 9708W        W25177  13.315  10.870   1.496  0.5434 -0.1212 -0.0356
 9709W        W25178  17.189   9.234   2.081  0.0031 -0.0198 -0.3417
 9710W        W25179  16.730   8.647  13.257  0.0792 -0.0744  0.1252
 9711W        W25180  10.304   3.233   2.115  0.1595  0.0332 -0.2537
 9712W        W25181   2.529   3.689  13.854  0.3026  0.0126 -0.0441
 9713W        W25182  18.298   5.418   3.171  0.0358 -0.1538  0.0603
 9714W        W25183  12.894  11.486   4.031  0.1415 -0.0702 -0.1793
 9715W        W25184  15.494   4.624   3.507  0.2565 -0.0720 -0.1168
 9716W        W25185   6.510  14.802  13.181 -0.1975 -0.0789  0.3972
 9717W        W25186  11.468   0.129   4.317  0.1859  0.1535 -0.1602
 9718W        W25187   8.981   3.540   1.870  0.0341 -0.0391  0.3895
 9719W        W25188  10.019  18.744   4.159 -0.1671 -0.0661 -0.0303
 9720W        W25189   7.315  11.026  11.676  0.0838  0.0724 -0.0338
 9721W        W25190  15.783  16.624  13.005  0.1910  0.1726 -0.1170
 9722W        W25191   7.697  17.511  12.562  0.0566 -0.0447  0.4250
 9723W        W25192   3.062   9.587   1.646  0.3506 -0.2107 -0.3625
 9724W        W25193   2.600   5.959   4.998 -0.0543  0.2791  0.2180
 9725W        W25194  14.621  13.540   5.254 -0.0559  0.0227 -0.4243
 9726W        W25195   5.889  10.714  12.034  0.0297  0.1222 -0.1487
 9727W        W25196  11.824  14.451  15.478 -0.0602  0.0950 -0.0587
 9728W        W25197   9.020  13.561   1.641  0.0050  0.0678 -0.1286
 9729W        W25198   6.428   5.002   3.801  0.0042  0.0109 -0.2488
 9730W        W25199   0.428  10.306  13.069  0.0613  0.0671  0.2075
 9731W        W25200   1.034  15.949  11.571 -0.1661  0.1450 -0.0907
 9732W        W25201  11.717   4.279   5.819 -0.0351 -0.3783 -0.2158
 9733W        W25202   2.098  14.959   4.957 -0.0099 -0.0265  0.1531
 9734W        W25203  13.367  11.405   4.203  0.0454 -0.3397  0.1037
 9735W        W25204  14.887   9.725  12.916  0.1476  0.1369  0.0038
 9736W        W25205   2.099   0.848  10.690 -0.0383 -0.1978  0.0117
 9737W        W25206   5.908  13.338   0.771 -0.1138  0.3433 -0.0202
 9738W        W25207   9.874   1.897  11.595  0.1343  0.2200  0.2652
 9739W        W25208  10.075   1.278  13.681 -0.1334 -0.0585 -0.2909
 9740W        W25209  16.526  16.885  10.832  0.2104  0.2034  0.3226
 9741W        W25210  11.699  12.594  13.108  0.1634  0.0497  0.1988
 9742W        W25211   8.291  10.357  11.334 -0.3190 -0.0077  0.1910
 9743W        W25212   4.634  14.441  14.758 -0.1362  0.0899  0.0081
 9744W        W25213   1.776  12.716   1.775  0.1205  0.2072 -0.1762
 9745W        W25214   5.050  16.927  14.231  0.1345  0.1469  0.4833
 9746W        W25215  14.385  17.978   4.261 -0.1066 -0.0683  0.1638
 9747W        W25216  18.873   9.283   2.349 -0.0464  0.0489 -0.0790
 9748W        W25217  16.338   4.583  12.784 -0.1944 -0.2295  0.2726
 9749W        W25218   6.040   2.828  12.434  0.0473  0.1810 -0.1002
 9750W        W25219   4.994   5.523  13.777  0.0340 -0.2363 -0.1818
 9751W        W25220  16.144   0.731   3.483 -0.1031 -0.0929 -0.1460
 9752W        W25221   9.972   8.204  14.825 -0.1803 -0.1269 -0.0303
 9753W        W25222  17.304  12.538  14.763  0.2621  0.0063 -0.1390
 9754W        W25223  14.060  13.744   3.193 -0.1011 -0.1236  0.4884
 9755W        W25224   6.353  11.736  12.615  0.0313 -0.2426  0.2909
 9756W        W25225  13.476  14.976   4.534  0.3467 -0.1557 -0.0790
 9757W        W25226  11.789  12.876   4.751  0.0431 -0.0072  0.1399
 9758W        W25227   2.561   1.711  14.623 -0.1265  0.1390  0.0910
 9759W        W25228   1.412   8.547   2.915 -0.1606  0.1295 -0.1476
 9760W        W25229   4.975   4.649  10.648 -0.1023  0.2200  0.1824
 9761W        W25230  13.143   0.271   4.161  0.0811  0.2411  0.0602
 9762W        W25231   9.988   1.233   2.402  0.1118  0.1127 -0.0648
 9763W        W25232   0.359   5.384  14.928 -0.1946 -0.0348  0.1583
 9764W        W25233   4.460  15.482   4.987  0.1951 -0.0400  0.3417
 9765W        W25234  13.790  18.276   3.499  0.0706  0.2151  0.1682
 9766W        W25235   7.212   4.209  14.215  0.0821 -0.0838 -0.0529
 9767W        W25236  13.668  15.995   2.288  0.0012 -0.3328  0.0362
 9768W        W25237  12.794   4.404  12.342 -0.1984 -0.0303  0.0475
 9769W        W25238  13.529   1.787   2.651 -0.1318  0.2081 -0.0377
 9770W        W25239   4.497  12.155   2.328  0.0773 -0.0255  0.3383
 9771W        W25240   2.907  15.963   5.390  0.1732 -0.0766  0.1156
 9772W        W25241  18.463   3.252  11.748  0.0555  0.0600  0.0871
 9773W        W25242  17.051   7.860   0.795 -0.3429 -0.0633  0.0392
 9774W        W25243   6.861   2.759  14.290  0.1508  0.5215 -0.0434
 9775W        W25244  11.004   9.150   2.203 -0.0165  0.1004  0.1647
 9776W        W25245   1.977   5.578   1.906  0.3298  0.2120 -0.0880
 9777W        W25246   8.344  13.403   2.731  0.1619 -0.1171 -0.2217
 9778W        W25247   3.179   6.257  12.237  0.2818 -0.0566 -0.4100
 9779W        W25248  14.225  16.853   2.597  0.0504 -0.0702  0.0452
 9780W        W25249  16.905   8.389   2.332 -0.2261  0.0484  0.2394
 9781W        W25250  10.834   7.638   3.682 -0.1594 -0.0545 -0.3326
 9782W        W25251   0.361   8.654   0.993  0.1984 -0.3191  0.0659
 9783W        W25252   8.622   7.826  14.072  0.2154  0.0035 -0.1333
 9784W        W25253  16.006  18.128  11.001 -0.3741  0.0534 -0.0744
 9785W        W25254   0.223   0.792  14.814  0.0894 -0.0451  0.1241
 9786W        W25255   2.313   4.909   5.253 -0.1425 -0.3387 -0.1339
 9787W        W25256  13.759  11.119   1.639  0.0548 -0.0249 -0.3306
 9788W        W25257   5.674   3.933   0.983 -0.0253 -0.1377 -0.0277
 9789W        W25258   1.426   8.933   0.949  0.0514 -0.1944  0.3026
 9790W        W25259  16.107   6.760   0.456 -0.1812  0.1530 -0.0999
 9791W        W25260  13.549   5.089   2.711  0.1391 -0.0865 -0.2713
 9792W        W25261   4.874   9.076  14.298 -0.0798  0.1806 -0.1147
 9793W        W25262   9.230  17.400  13.575 -0.1548  0.0516  0.0576
 9794W        W25263   7.307   1.742   2.912 -0.0008  0.0775  0.0796
 9795W        W25264   3.084   8.884  15.061 -0.2008 -0.0039 -0.0979
 9796W        W25265   9.981   8.331   9.946  0.0816  0.2148 -0.0228
 9797W        W25266   6.072  12.026   1.874 -0.2240 -0.5807  0.1205
 9798W        W25267   0.464  10.866  12.305  0.1670  0.0506 -0.1558
 9799W        W25268  16.487  10.420  11.372 -0.0434  0.0920 -0.2504
 9800W        W25269  18.109  18.707   1.371  0.1320  0.0054 -0.0400
 9801W        W25270  17.582  12.164   0.504  0.1721 -0.2840  0.1369
 9802W        W25271   4.275  14.936   3.233  0.2018  0.1122 -0.1693
 9803W        W25272   3.834   0.162  10.867 -0.1631  0.1845  0.0060
 9804W        W25273  14.011  12.098  12.488  0.0376 -0.1203 -0.0163
 9805W        W25274  17.473   5.743  14.068  0.2289 -0.3947 -0.3035
 9806W        W25275  11.607  13.655   1.643  0.1275 -0.2498  0.0645
 9807W        W25276  18.558   7.553  10.515  0.1179  0.1370 -0.0307
 9808W        W25277   9.215  14.851  15.004  0.0839 -0.1841 -0.1178
 9809W        W25278  14.022  16.814   3.194 -0.3800  0.0841  0.1140
 9810W        W25279   3.379  15.294  11.026 -0.5548  0.1136  0.0895
 9811W        W25280  12.721   4.765   1.080  0.0475 -0.0563  0.2551
 9812W        W25281   8.394  15.726   3.284 -0.0451  0.0820 -0.0226
 9813W        W25282   1.015  15.736   2.447  0.0746 -0.3310  0.2460
 9814W        W25283   7.670   5.842  11.356 -0.1786 -0.0169 -0.0113
 9815W        W25284   3.799  10.791   4.591 -0.2032 -0.0271 -0.2463
 9816W        W25285  10.880  18.815  11.691 -0.3640  0.0331 -0.0760
 9817W        W25286  10.989   8.364   2.677 -0.0860  0.1551  0.0891
 9818W        W25287   9.934   8.587   3.807  0.1402 -0.0298  0.5014
 9819W        W25288  17.828  11.241  13.863 -0.1099 -0.1248 -0.2324
 9820W        W25289   9.006   1.586  12.451 -0.2635  0.0530  0.0061
 9821W        W25290  13.251   1.129   0.956 -0.1262  0.0674 -0.1127
 9822W        W25291   9.769  11.516   3.029 -0.2381 -0.2006 -0.1944
 9823W        W25292   3.115   1.228  13.690  0.0996  0.0108 -0.0283
 9824W        W25293  15.657   8.238  15.131  0.1846  0.1216 -0.2392
 9825W        W25294   5.747  12.840   2.812 -0.1884  0.1395  0.1078
 9826W        W25295   6.676   0.818   2.788 -0.2311  0.2559 -0.2711
 9827W        W25296   7.378  13.622   3.784 -0.3315 -0.0531 -0.0685
 9828W        W25297   2.513   3.944  13.374  0.2164  0.1148 -0.3100
 9829W        W25298  13.807   7.790  11.080  0.2776  0.3405 -0.0924
 9830W        W25299   1.731  14.992  11.246 -0.1411 -0.1112 -0.0662
 9831W        W25300   0.295   1.378  13.226 -0.3961 -0.0893 -0.1222
 9832W        W25301   1.300  12.639   2.736  0.0354  0.2040 -0.0149
 9833W        W25302  17.019   7.813   4.029  0.1267 -0.0953 -0.2820
 9834W        W25303  11.602   3.737  15.293  0.1137  0.0322 -0.2645
 9835W        W25304  18.431   3.396  14.629  0.0620  0.3327  0.1912
 9836W        W25305  17.913  15.263  11.207 -0.0526 -0.4070  0.1601
 9837W        W25306   1.883  12.335  13.127 -0.3010 -0.1691  0.3919
 9838W        W25307   9.441  11.675  11.078 -0.0694 -0.0542  0.1794
 9839W        W25308   9.444  18.346  14.420  0.1773 -0.1859 -0.0008
 9840W        W25309   0.221   7.571   1.615 -0.2495 -0.0368  0.0987
 9841W        W25310  11.085  15.652  12.018 -0.2638  0.2934 -0.0906
 9842W        W25311   1.616   9.822   4.765 -0.0364  0.0913 -0.4478
 9843W        W25312  11.421   8.753   3.875 -0.2543  0.2109  0.2238
 9844W        W25313  12.330  18.289  10.974  0.1891 -0.0028  0.0479
 9845W        W25314   0.002  17.254   0.573  0.2250  0.1005 -0.1047
 9846W        W25315  13.952  11.466   2.790  0.0461 -0.1688  0.0480
 9847W        W25316   0.558   9.063   4.356 -0.0155  0.3617 -0.1378
 9848W        W25317  16.084  10.487   0.354  0.2659  0.0663 -0.0819
 9849W        W25318   6.981  16.081   2.800  0.2498 -0.1903  0.1031
 9850W        W25319   3.897   5.543   2.833 -0.3238 -0.0936  0.1770
 9851W        W25320   3.769   3.041  13.097 -0.0456  0.0231 -0.1060
 9852W        W25321  18.718  10.093   0.654  0.0064 -0.0583 -0.0275
 9853W        W25322  12.740   5.953  14.898  0.1052  0.4492 -0.3874
 9854W        W25323  14.983   8.145   4.233  0.2327 -0.0684  0.0673
 9855W        W25324   5.214   1.816  13.488 -0.1291  0.3303  0.2177
 9856W        W25325  11.464   3.601  12.608  0.0297 -0.1410 -0.0507
 9857W        W25326   3.781   5.140   0.578 -0.0097  0.0849  0.1018
 9858W        W25327  17.721  11.169   1.709 -0.3710 -0.0859  0.0382
 9859W        W25328  14.281  15.414   2.390 -0.0510 -0.0047 -0.1287
 9860W        W25329  18.299   8.595  12.328 -0.4006  0.3039 -0.3078
 9861W        W25330  17.467   3.034  11.897  0.0524  0.0631  0.0881
 9862W        W25331   4.279   5.178  15.367  0.1646  0.1586  0.1101
 9863W        W25332   4.319   6.597   3.211 -0.0607 -0.0329 -0.3080
 9864W        W25333  17.688  16.492  14.778 -0.0663 -0.1204  0.1054
 9865W        W25334  16.049   7.263   1.686  0.3163 -0.0826  0.1339
 9866W        W25335  14.511   3.694   4.163  0.1002 -0.1934 -0.0313
 9867W        W25336  14.392   8.988   1.897  0.1551  0.0495 -0.1007
 9868W        W25337   0.333   6.694  15.256  0.0623  0.1639  0.1643
 9869W        W25338  12.076   6.026  11.342  0.0385  0.0156 -0.1267
 9870W        W25339  10.739   3.658  12.008 -0.0463 -0.1645 -0.1777
 9871W        W25340  14.775  18.233   5.922 -0.2636  0.2311 -0.0078
 9872W        W25341   1.596  16.200  15.093 -0.0628 -0.1697 -0.0048
 9873W        W25342   1.384   5.576   3.687 -0.0565  0.1365  0.2412
 9874W        W25343   6.956  17.196  15.421  0.0445 -0.0423 -0.0796
 9875W        W25344   1.215   4.468   0.585  0.1841  0.2353  0.1680
 9876W        W25345   7.605   5.403  13.448  0.2703  0.0961  0.2005
 9877W        W25346  12.460  15.980  14.270 -0.0116  0.2375  0.0437
 9878W        W25347  11.247  10.068   3.788 -0.0634  0.0117  0.2334
 9879W        W25348  10.920  13.919   0.797  0.1023  0.0493 -0.1304
 9880W        W25349  13.032  13.628  15.160  0.3890  0.2124 -0.0165
 9881W        W25350   4.014   8.169   3.073 -0.3106 -0.1157  0.4524
 9882W        W25351   1.061   9.756   0.049  0.2586  0.0828  0.2319
 9883W        W25352  14.291  17.621   3.920 -0.0703  0.3550 -0.0097
 9884W        W25353   1.896  18.692   2.256  0.0876 -0.4088  0.1940
 9885W        W25354  14.536  10.622   2.588  0.0148  0.2585 -0.0413
 9886W        W25355  14.449   2.043  12.834 -0.1179 -0.0157  0.2483
 9887W        W25356  14.896   4.848  11.883  0.3698 -0.1593  0.1932
 9888W        W25357  18.423   9.015   1.137 -0.0886  0.3532  0.1020
 9889W        W25358  12.707  16.071   0.495  0.2126  0.1414 -0.0090
 9890W        W25359  15.284   7.250  14.766 -0.0284  0.1216 -0.0219
 9891W        W25360   7.295   5.647   4.903 -0.0515 -0.2062  0.2157
 9892W        W25361  18.615   5.051  12.094 -0.2118 -0.0324 -0.3798
 9893W        W25362   6.441   8.592  14.226 -0.1127 -0.0052 -0.2221
 9894W        W25363   4.829   5.828   1.635 -0.1197  0.0365 -0.2053
 9895W        W25364   4.978   9.305  10.734  0.1695 -0.1081 -0.0819
 9896W        W25365  16.290   4.807  14.262 -0.2058 -0.1483 -0.1306
 9897W        W25366  14.282  12.907   1.158  0.3356 -0.0356 -0.1728
 9898W        W25367   4.142  14.731  13.180 -0.1098  0.0739 -0.1579
 9899W        W25368   4.268   6.272   5.102  0.3744  0.3529 -0.0833
 9900W        W25369  17.345  13.972   2.102 -0.2390 -0.2022 -0.0706
 9901W        W25370   5.725   5.785   1.784 -0.1310 -0.3996  0.0975
 9902W        W25371  15.876   7.170   0.172 -0.0767  0.0684 -0.1128
 9903W        W25372  12.359   1.912   2.593  0.1075  0.1104  0.0216
 9904W        W25373   2.527  12.702  12.058 -0.1035  0.0523  0.0715
 9905W        W25374   9.679  10.717  13.054 -0.1331 -0.0065  0.1197
 9906W        W25375  11.805   5.689  11.680 -0.0856 -0.1092  0.3995
 9907W        W25376  16.146   6.477  12.578  0.0544  0.3961 -0.3422
 9908W        W25377   3.752   4.437  13.101 -0.0810  0.3996  0.0357
 9909W        W25378   4.927  12.418   2.352 -0.2702  0.0399 -0.3805
 9910W        W25379  17.683   2.551  10.611  0.0966 -0.3092  0.3836
 9911W        W25380  17.507   1.699  15.141 -0.0936 -0.0778  0.1331
 9912W        W25381  18.790   9.882   1.217 -0.3805  0.1431  0.2100
 9913W        W25382  14.584  18.128  11.997 -0.3310  0.0153 -0.1562
 9914W        W25383  18.758   1.539  10.680 -0.2191  0.0620 -0.0181
 9915W        W25384  12.898   5.974   0.616  0.2208 -0.0034 -0.1739
 9916W        W25385  16.489  16.054  12.916  0.3147 -0.0585 -0.0238
 9917W        W25386  13.619  10.426   4.556  0.3653  0.2454  0.2020
 9918W        W25387   5.598  16.847  11.955 -0.1750  0.0041 -0.0434
 9919W        W25388  15.093  12.085  11.691 -0.4612  0.0862 -0.2004
 9920W        W25389   7.644   6.339  12.840  0.1952  0.2806 -0.1841
 9921W        W25390  11.138  18.197   5.305 -0.0542  0.2071  0.1151
 9922W        W25391   5.867  16.296   3.681  0.3603  0.0763 -0.0051
 9923W        W25392   7.086   5.981  15.077 -0.0294  0.4581 -0.0206
 9924W        W25393   6.317  16.953  14.345 -0.1368  0.1331 -0.0078
 9925W        W25394   3.905   5.953  12.190 -0.1242 -0.1718  0.0377
 9926W        W25395   6.337  15.070  11.390  0.0098 -0.1546  0.5385
 9927W        W25396   7.253   1.684   0.136 -0.1060 -0.1894  0.0873
 9928W        W25397  16.014  16.965   5.430 -0.0365  0.2485  0.2383
 9929W        W25398  12.747   3.075  12.906  0.0670  0.1762 -0.1490
 9930W        W25399  18.733   9.193   4.863 -0.0488 -0.3357  0.1716
 9931W        W25400  14.160   2.090  13.296 -0.1704  0.0714  0.1205
 9932W        W25401   1.826  13.732   4.380  0.0026  0.0833 -0.1579
 9933W        W25402   4.262   4.006  11.888  0.2143  0.0945 -0.1512
 9934W        W25403   8.810  12.877  11.216  0.0373  0.0031  0.3025
 9935W        W25404   6.963   5.903   1.236 -0.0801 -0.1952 -0.1512
 9936W        W25405   2.892  10.464  11.347 -0.1126  0.1741  0.5502
 9937W        W25406  13.809  13.685  13.844 -0.0519 -0.1680 -0.2950
 9938W        W25407  11.939  15.513  13.457 -0.4592  0.0643 -0.4014
 9939W        W25408   4.223   0.150   4.656  0.1506 -0.3000  0.2683
 9940W        W25409  15.668   3.111   2.455  0.1034 -0.1622  0.1723
 9941W        W25410   5.164  16.617   1.456 -0.0261 -0.0882  0.4322
 9942W        W25411  17.549   4.511   0.046  0.0759 -0.1508 -0.1141
 9943W        W25412  15.101   9.312   4.659  0.0707 -0.3703  0.1816
 9944W        W25413  18.488   3.596   1.375  0.3018 -0.1832  0.2896
 9945W        W25414   8.415  18.830  15.190 -0.2500  0.0776  0.1808
 9946W        W25415   0.061  12.262   0.016  0.3058  0.3221  0.0521
 9947W        W25416  10.371  11.548   1.210  0.0496  0.0395 -0.0545
 9948W        W25417  13.615   3.655   1.217 -0.1850 -0.0400 -0.2241
 9949W        W25418   2.814  16.101  12.339 -0.0409  0.1050 -0.0276
 9950W        W25419   1.707   3.615  11.504 -0.1668  0.0301 -0.0162
 9951W        W25420  16.585  11.778   4.884 -0.1143 -0.1528 -0.3929
 9952W        W25421   0.406   2.381   3.173 -0.3725 -0.0346 -0.0627
 9953W        W25422   0.190  18.853  12.778 -0.2981  0.1476  0.1521
 9954W        W25423   0.805  18.429  12.659  0.0578 -0.0798 -0.3257
 9955W        W25424  12.309   7.438  10.380  0.0968 -0.0950 -0.2200
 9956W        W25425   0.804  12.371  12.672 -0.3359  0.1145 -0.2079
 9957W        W25426   4.913  15.165   4.354 -0.1695  0.6400 -0.0005
 9958W        W25427   6.145  11.096   0.003 -0.2278  0.4450  0.1582
 9959W        W25428   4.038  11.470  13.405  0.1678  0.1686  0.0265
 9960W        W25429  13.972  14.250  14.550 -0.2927 -0.0176 -0.0152
 9961W        W25430  16.137  16.791  11.178  0.0091 -0.0772  0.2982
 9962W        W25431  12.190  14.340  14.073  0.0345 -0.1363  0.2060
 9963W        W25432   6.298   6.383  14.404 -0.0192 -0.1491  0.1800
 9964W        W25433   6.019   4.427  14.805  0.0436 -0.1200  0.0042
 9965W        W25434   9.550   3.211  12.732 -0.0472 -0.0384  0.1070
 9966W        W25435  16.307   8.522  12.778  0.1835 -0.2255  0.2052
 9967W        W25436  17.132   8.408  12.399 -0.1644  0.3065 -0.0636
 9968W        W25437   7.944   0.124   4.368  0.1586  0.1016  0.0183
 9969W        W25438   9.648   7.300   3.036 -0.1159  0.4080  0.1583
 9970W        W25439   2.116   4.698  12.839  0.3197  0.3840  0.1677
 9971W        W25440   2.105   9.947  14.471 -0.0509  0.0482  0.0504
 9972W        W25441   6.680  17.632   3.559  0.1086 -0.3136 -0.1012
 9973W        W25442  14.025   8.765   5.736 -0.0341 -0.0251  0.2209
 9974W        W25443   6.694  13.481  10.823 -0.1437 -0.0328  0.0578
 9975W        W25444   4.567   1.398  14.741 -0.0045  0.0939  0.3938
 9976W        W25445  14.879   6.997   2.492 -0.1235 -0.2107 -0.2286
 9977W        W25446   1.057   6.585   5.505 -0.1324 -0.0732  0.1508
 9978W        W25447   1.753  10.123   5.348 -0.0974 -0.6047 -0.0215
 9979W        W25448   8.544   7.901   3.841  0.1053  0.3031  0.1577
 9980W        W25449   0.829   8.611  12.226 -0.2291 -0.0258  0.0865
 9981W        W25450   7.703   2.660   0.711 -0.1516 -0.0588 -0.3385
 9982W        W25451   3.878  13.485   3.748  0.2315  0.4114  0.1007
 9983W        W25452   9.349   8.234   2.840 -0.0710  0.1919  0.1977
 9984W        W25453   2.624  14.883   4.624 -0.2587 -0.2736 -0.2007
 9985W        W25454  10.327   5.088   0.561 -0.1452 -0.0655  0.2956
 9986W        W25455   6.957  10.808  10.799 -0.0585 -0.4493  0.1378
 9987W        W25456   2.150   9.933  15.459  0.1046  0.0027 -0.0044
 9988W        W25457   3.723   7.709   0.441  0.0129  0.2241 -0.0906
 9989W        W25458   3.037  15.772   1.991  0.0944  0.0354 -0.0383
 9990W        W25459  16.964   9.656   2.064 -0.0648 -0.2325  0.0905
 9991W        W25460   1.357   5.625  12.000 -0.1740 -0.3001 -0.1424
 9992W        W25461  14.531   9.986   4.664 -0.0760  0.0445 -0.4720
 9993W        W25462   7.359   7.358  14.708 -0.0922 -0.0448  0.0030
 9994W        W25463   2.155   6.153  11.005 -0.2038 -0.3998  0.0688
 9995W        W25464   9.776   0.605  10.072  0.0668  0.2075  0.2146
 9996W        W25465  10.482   6.055   1.572  0.0788  0.0157  0.0810
 9997W        W25466   0.494   2.121   0.359  0.2012  0.0262 -0.0618
 9998W        W25467  10.866   9.610  11.276  0.0718  0.1042  0.2161
 9999W        W25468   3.617  17.346  14.179 -0.0227 -0.2564  0.0458
10000W        W25469  17.188  12.878  15.274 -0.0880 -0.2768 -0.2180
10001W        W25470  17.389   5.123   3.476 -0.1660 -0.3376 -0.1220
10002W        W25471   3.834   8.078   3.841 -0.3734 -0.2268 -0.1523
10003W        W25472  18.412   5.403   3.939 -0.3414 -0.1100  0.2891
10004W        W25473   1.908  11.605  15.109  0.3301 -0.0048 -0.2586
10005W        W25474  17.904   2.428   4.712  0.2389 -0.2911 -0.5455
10006W        W25475  15.392   5.256  13.854 -0.1064 -0.3368  0.0482
10007W        W25476   2.706   1.396  11.843  0.0406  0.1780 -0.0395
10008W        W25477   8.077  14.236  11.497  0.1890 -0.1090 -0.1610
10009W        W25478   9.678  18.472  14.887  0.0003 -0.2306 -0.0793
10010W        W25479  18.147   4.454   9.595  0.0639 -0.0632 -0.1293
10011W        W25480  18.055  17.458   4.887  0.0411  0.1588 -0.0522
10012W        W25481   5.350  11.023  13.844 -0.2665  0.1516  0.0686
10013W        W25482  10.814   6.317  11.850 -0.2407 -0.0664 -0.2131
10014W        W25483   5.044  12.772  11.414 -0.0990  0.0409  0.0086
10015W        W25484  12.526   9.486  13.592 -0.1043 -0.1758 -0.2536
10016W        W25485   2.322  16.254   4.210 -0.2261 -0.4813  0.0236
10017W        W25486   8.386  15.505  13.654 -0.0284  0.0873  0.0696
10018W        W25487   3.296  11.685  11.150 -0.0921 -0.0530 -0.4015
10019W        W25488   8.159  18.235   4.538  0.1551 -0.0657 -0.1834
10020W        W25489  13.260  11.386   3.713  0.1514  0.0020  0.0341
10021W        W25490   4.640  13.867   0.205  0.3553 -0.2746  0.1536
10022W        W25491  10.738  12.035  13.996 -0.0431  0.1087  0.0715
10023W        W25492  14.739  10.651   0.347  0.2636  0.0803  0.1905
10024W        W25493   3.593  15.147   4.796 -0.0772 -0.3365 -0.5391
10025W        W25494  16.961  18.112   3.590 -0.0672 -0.2099 -0.0445
10026W        W25495   0.641   1.567  12.115 -0.5161 -0.3767 -0.1250
10027W        W25496  14.785  14.134  14.750 -0.1283  0.4524 -0.1866
10028W        W25497  13.293  15.189  12.407 -0.1313  0.0515  0.3877
10029W        W25498   9.705   7.394  15.026 -0.1263 -0.1017 -0.2106
10030W        W25499  10.585   4.631   3.258  0.0090  0.2268  0.1655
10031W        W25500   5.439  13.563  11.950 -0.0365 -0.0512 -0.1484
10032W        W25501  14.783   2.325   5.530 -0.0362  0.3000  0.2208
10033W        W25502  16.454  17.181  12.443 -0.0497 -0.2206 -0.0631
10034W        W25503  15.423   1.276   4.609  0.1420  0.3434 -0.0718
10035W        W25504  18.686  12.349   4.243  0.0619 -0.0897 -0.2659
10036W        W25505   9.980   0.022   1.691 -0.0151 -0.2080  0.0042
10037W        W25506   0.364   8.949   0.208 -0.0481  0.3485  0.1630
10038W        W25507  12.644  12.915   0.930 -0.1801  0.0588  0.1512
10039W        W25508  10.546   1.750   3.610 -0.2985 -0.0095 -0.4480
10040W        W25509  12.502  15.020   1.445 -0.0039  0.0824  0.0918
10041W        W25510   3.397  10.586   0.556 -0.0452  0.1256  0.3935
10042W        W25511  16.353   6.261  10.267 -0.0897 -0.0538 -0.0756
10043W        W25512   7.777   8.314   2.539 -0.2758 -0.1743  0.0864
10044W        W25513  17.994  14.856  13.542 -0.3663  0.0105 -0.0492
10045W        W25514   3.052  11.813   0.876 -0.0506  0.3966 -0.0317
10046W        W25515  18.004   5.731  15.330 -0.0436 -0.0271 -0.2371
10047W        W25516   4.747   0.027  13.730 -0.1348  0.0931 -0.1963
10048W        W25517  11.015  12.051   4.172  0.4070 -0.0140 -0.0942
10049W        W25518  14.507  14.751   1.362  0.0796 -0.1233 -0.3001
10050W        W25519  15.060  16.960   3.891 -0.0491 -0.3054 -0.1807
10051W        W25520   3.970   4.248  12.719  0.0725 -0.2086  0.1070
10052W        W25521   7.009   3.688  11.091  0.1775  0.1232  0.0185
10053W        W25522   4.766  18.268  11.211 -0.5542  0.0243  0.2514
10054W        W25523   6.805  17.900   2.766 -0.1833 -0.2648 -0.1561
10055W        W25524  14.708   7.181   4.902 -0.0593 -0.0316  0.0057
10056W        W25525   3.784   3.292  12.450 -0.3007  0.4352 -0.0714
10057W        W25526   4.056  16.070  11.894  0.3979 -0.3616  0.1337
10058W        W25527  15.935   0.053   0.941  0.0401 -0.1856  0.1665
10059W        W25528  11.690   3.612   4.395 -0.1277  0.2679  0.2184
10060W        W25529  10.912  11.585   0.321  0.2245 -0.0719  0.1999
10061W        W25530  10.427  12.480  14.553 -0.3386 -0.2643  0.0272
10062W        W25531  16.204   1.026  14.170  0.0236 -0.2694 -0.1051
10063W        W25532   4.774   6.051  11.980 -0.2281 -0.0342  0.2054
10064W        W25533  13.484  16.539   2.187  0.1833  0.0278  0.2463
10065W        W25534  14.656  11.559   3.601  0.1012 -0.0033  0.2355
10066W        W25535   6.791  14.464   1.421  0.0171  0.2368 -0.4783
10067W        W25536  12.385   5.849   4.678 -0.0168  0.2206 -0.3796
10068W        W25537   7.869  12.280   4.931  0.0861  0.1099  0.0478
10069W        W25538  10.917   4.852   2.275  0.3300  0.1033  0.0948
10070W        W25539  13.826  14.768   2.598  0.1069  0.0421  0.0152
10071W        W25540  18.290   6.068  11.164 -0.0023 -0.2561 -0.1970
10072W        W25541  12.807   8.716  11.705 -0.1167  0.1892  0.1899
10073W        W25542  17.483  12.753  11.205 -0.0394 -0.1293 -0.1328
10074W        W25543   8.023  10.259   0.130  0.3413  0.2611  0.0524
10075W        W25544  10.087  10.205   4.962  0.0102  0.0013  0.2218
10076W        W25545  13.170   0.909  15.310 -0.3556  0.1974  0.2950
10077W        W25546   3.360  13.223  14.564 -0.1341  0.0631  0.1083
10078W        W25547   4.759   1.779   5.607  0.2157 -0.1337  0.0441
10079W        W25548  12.820  10.173  12.229  0.1490 -0.1427  0.1850
10080W        W25549   9.975  13.263  12.647  0.1462 -0.0020 -0.3789
10081W        W25550   2.188   9.347   2.008  0.1149  0.2499 -0.4565
10082W        W25551  11.410   8.541  15.182 -0.0908 -0.1009 -0.0308
10083W        W25552   1.414   7.285   2.374  0.0167  0.1079 -0.1088
10084W        W25553   1.466  15.155   1.707 -0.1776 -0.0795 -0.2437
10085W        W25554   9.956  14.424   0.054 -0.5350  0.2442  0.1742
10086W        W25555  11.087  12.014   0.346  0.1710 -0.1581  0.0717
10087W        W25556   8.235  15.106  11.989 -0.0748  0.2043  0.1766
10088W        W25557   6.825   9.330  11.812  0.0580  0.1831 -0.0855
10089W        W25558   4.661   4.952   5.431  0.0147 -0.1288  0.3316
10090W        W25559  12.347   0.442  12.792  0.2761  0.0059 -0.1887
10091W        W25560   2.034   0.009   0.502  0.0636 -0.0217 -0.4106
10092W        W25561   3.931   4.222   9.939  0.0036 -0.2117  0.1738
10093W        W25562   2.848   8.203  11.828  0.1651  0.2134  0.2283
10094W        W25563  17.805  15.271  13.290  0.0552  0.6465  0.0454
10095W        W25564   1.438   6.065   1.806 -0.1218 -0.1840  0.0806
10096W        W25565  11.198  18.743  12.360  0.0190 -0.0954  0.1580
10097W        W25566   7.404   1.076  13.228  0.1857 -0.0308 -0.1253
10098W        W25567   2.118  18.026  13.802 -0.5725  0.1223 -0.2285
10099W        W25568  10.401  17.155   1.980  0.0151 -0.0857  0.0213
10100W        W25569  10.111  16.683   0.696 -0.1215 -0.0675  0.2166
10101W        W25570  18.738  15.147  13.723  0.0586 -0.0952 -0.2688
10102W        W25571  17.369   0.251   2.375 -0.0527 -0.2913  0.2976
10103W        W25572   2.373  11.688  11.024  0.1021  0.1107  0.0079
10104W        W25573   6.007  12.518   0.240 -0.0484  0.2439 -0.0552
10105W        W25574   7.949   7.875  12.431 -0.0483 -0.3710  0.0827
10106W        W25575  14.501  14.538   5.181  0.5526  0.1494  0.0462
10107W        W25576  15.034  15.956  13.763 -0.1373 -0.0791 -0.0855
10108W        W25577   9.859  14.173  12.075 -0.0924 -0.2548 -0.3144
10109W        W25578   1.477  16.696  15.311 -0.0782 -0.2384 -0.2952
10110W        W25579   1.544   1.326   3.969  0.0560  0.0850 -0.2620
10111W        W25580  17.839   1.928   4.536  0.3273 -0.1492  0.4065
10112W        W25581  18.224   7.399  15.292 -0.0669  0.0015 -0.0506
10113W        W25582   1.997  11.114   3.790  0.3279  0.0755 -0.0157
10114W        W25583   9.361  18.687   2.508  0.2325  0.0728  0.0060
10115W        W25584   9.330   2.217  14.378  0.0759  0.4361  0.0591
10116W        W25585   4.374   4.148  14.908  0.0576 -0.0415  0.1576
10117W        W25586   4.594  15.574   2.474  0.5256  0.0157 -0.1336
10118W        W25587  15.492   4.458   4.416  0.3120  0.0037  0.1623
10119W        W25588   0.875   1.053  11.974 -0.0456 -0.1175 -0.0656
10120W        W25589   2.177   8.169  12.598 -0.1964 -0.2243  0.3046
10121W        W25590  10.806  18.347  11.308  0.0454 -0.0443  0.3473
10122W        W25591   4.763  15.768  12.356 -0.0076  0.0769  0.1560
10123W        W25592  16.390  16.232   3.886 -0.0891  0.0223  0.2296
10124W        W25593   8.475  10.177   3.029  0.0023 -0.3194  0.0116
10125W        W25594   4.680  11.689  12.872 -0.0884 -0.0955 -0.0654
10126W        W25595   4.292   4.985  11.441 -0.0676  0.0103  0.3573
10127W        W25596  13.877   9.229  12.691 -0.1446 -0.0286  0.0955
10128W        W25597   5.698   2.498  14.701 -0.0931  0.2991  0.0092
10129W        W25598   6.400  12.348   3.902  0.0410  0.3434 -0.0939
10130W        W25599   0.501  11.597   5.352 -0.1283  0.0104  0.0864
10131W        W25600   8.746  15.029  11.675  0.2200  0.4933  0.0984
10132W        W25601   2.191   7.291  15.238 -0.2114 -0.1811  0.0273
10133W        W25602  11.049  16.510   4.550 -0.1318 -0.3410 -0.0699
10134W        W25603   5.327   0.530   1.666 -0.0034  0.2068 -0.0116
10135W        W25604  13.308   7.590  11.864 -0.0496  0.1698  0.2496
10136W        W25605  17.275   4.710  13.698 -0.0772  0.2153  0.4173
10137W        W25606  16.868  14.761  14.850 -0.1716  0.0286  0.0030
10138W        W25607  11.559  10.385   1.934 -0.4305  0.1379  0.0044
10139W        W25608  17.084  16.646   1.198 -0.0848 -0.2774 -0.0396
10140W        W25609   7.251   0.731   3.197  0.1213 -0.1913 -0.2665
10141W        W25610  13.163   0.544   1.884  0.0589  0.2354 -0.2818
10142W        W25611  14.000  12.027  13.728  0.2494  0.0706 -0.1492
10143W        W25612  18.871   0.284  15.130 -0.0061  0.0223  0.2761
10144W        W25613  16.238   2.027   1.401  0.2132  0.2419 -0.0017
10145W        W25614  15.906   0.941  10.546 -0.2326  0.0786 -0.2307
10146W        W25615   8.734  16.706   3.466  0.1261 -0.1645 -0.1878
10147W        W25616   3.603  17.889   5.286 -0.0389  0.1009  0.1779
10148W        W25617  12.115   3.409   2.566 -0.2044 -0.0625 -0.2163
10149W        W25618   7.016   9.338   9.904 -0.2256 -0.1871 -0.0199
10150W        W25619   1.820   8.354   3.128 -0.1683 -0.4583  0.1326
10151W        W25620   9.928  13.723  10.103 -0.3359 -0.1454 -0.0167
10152W        W25621   3.963  11.575   4.938  0.0059 -0.2170 -0.2327
10153W        W25622  14.766  14.556  11.947  0.0061 -0.2259 -0.1090
10154W        W25623   5.862   7.796  14.221  0.3792  0.2314  0.2322
10155W        W25624  18.447   5.593  15.355 -0.0386 -0.0794 -0.1238
10156W        W25625   6.174   0.516  10.752  0.0430  0.0435 -0.3244
10157W        W25626   4.444  14.880  12.633 -0.2654 -0.2361 -0.3623
10158W        W25627  16.707  11.006  10.296 -0.1189  0.1005 -0.0835
10159W        W25628  11.667  14.317   1.700 -0.2758  0.0807 -0.0092
10160W        W25629   9.513  12.158  13.466 -0.3941  0.1788  0.0036
10161W        W25630  14.026   0.725  15.180  0.0253  0.1154  0.2496
10162W        W25631  16.969   6.667   2.396  0.0749 -0.1850 -0.2006
10163W        W25632   1.778   8.071  15.162 -0.0591  0.1484 -0.0367
10164W        W25633   5.702  15.861  12.014  0.2470 -0.0171  0.1521
10165W        W25634  13.706   5.376  15.136  0.0014  0.0571 -0.0234
10166W        W25635   1.389   7.514  10.470  0.1332 -0.0313 -0.3105
10167W        W25636  13.082   7.007  13.763  0.1546 -0.0249  0.0714
10168W        W25637   5.324  14.985   2.477 -0.1722 -0.0542  0.0596
10169W        W25638   5.420   2.754  14.346 -0.0880 -0.1175 -0.0530
10170W        W25639   8.677  11.780  12.267 -0.2126  0.1118 -0.1750
10171W        W25640   0.508  14.270   2.240  0.3267 -0.3101 -0.0676
10172W        W25641   3.666   4.965  14.889  0.2382 -0.3736 -0.0782
10173W        W25642   1.074  18.203  13.877  0.0146 -0.0398 -0.0239
10174W        W25643  16.827   7.805  15.423 -0.0311 -0.0028  0.0563
10175W        W25644   6.724   2.609   5.965 -0.3434 -0.0308 -0.0086
10176W        W25645   0.167   5.547  13.389  0.2152 -0.0005 -0.2013
10177W        W25646  11.767   9.401  11.518  0.0533  0.0789  0.0162
10178W        W25647   1.462   2.685  10.787 -0.0920  0.2043 -0.0009
10179W        W25648   3.490  16.878   3.046  0.1944 -0.0798 -0.3266
10180W        W25649  13.484   5.278   2.179 -0.1804  0.0157  0.0950
10181W        W25650  12.580  14.449   1.472 -0.2534  0.0856 -0.4071
10182W        W25651   1.934  10.055   4.024 -0.1727 -0.0342 -0.1186
10183W        W25652   1.202   4.956   1.250  0.0401  0.1883  0.0860
10184W        W25653  13.033  14.541  14.315  0.1403  0.0103 -0.2369
10185W        W25654   8.218   5.795  14.042 -0.1242  0.2205  0.0183
10186W        W25655   1.283   7.267  11.090 -0.0102  0.4314  0.2314
10187W        W25656  11.776   6.363   2.772  0.0356 -0.0296 -0.0581
10188W        W25657   1.271   9.223  14.748  0.2385 -0.1770  0.0169
10189W        W25658   1.309   6.763  14.731  0.2826 -0.0237  0.0548
10190W        W25659   2.375  13.249  10.355 -0.0834  0.2093 -0.0723
10191W        W25660  17.887  12.822   9.574  0.2643 -0.2116  0.0609
10192W        W25661  18.794   5.189   9.591  0.0899  0.0121  0.0301
10193W        W25662   8.034  11.802   1.088 -0.1147 -0.1521 -0.2542
10194W        W25663   8.407   5.240  10.564  0.0459 -0.0656  0.0861
10195W        W25664   0.257  16.891  12.276  0.1390  0.1120 -0.0796
10196W        W25665  10.882   1.407  13.317  0.2812  0.1716 -0.0859
10197W        W25666   2.505   4.547  12.468 -0.0319 -0.2754  0.0619
10198W        W25667  16.710   8.538  14.752 -0.0462 -0.1882 -0.0966
10199W        W25668  11.258  13.858   4.117 -0.0768 -0.0450 -0.1806
10200W        W25669   5.599  15.478   0.287  0.0080 -0.2933  0.4715
10201W        W25670   1.799   5.758   4.005  0.0264  0.3006 -0.1180
10202W        W25671   4.843   6.953  13.512  0.1694 -0.3187 -0.0740
10203W        W25672   8.150   1.882  11.756  0.1662 -0.2080  0.3118
10204W        W25673   8.786   8.671  12.952  0.1160 -0.1303 -0.3874
10205W        W25674   2.402   7.417  10.246 -0.0574  0.1567 -0.2599
10206W        W25675   1.464   9.953  15.312  0.0333  0.0608  0.0151
10207W        W25676  10.338   7.874  14.767 -0.0782  0.2104  0.0257
10208W        W25677   1.384  17.223   1.861 -0.2173 -0.0289  0.2337
10209W        W25678   5.721   6.810  12.936 -0.1596 -0.2214 -0.1386
10210W        W25679   4.184   3.554  10.570 -0.0898 -0.0031  0.1419
10211W        W25680  10.586  10.777  11.929  0.1056  0.3353 -0.1216
10212W        W25681  11.209   5.743   3.173 -0.0844 -0.0328 -0.0020
10213W        W25682   6.623   6.678   1.467 -0.3497  0.1043 -0.2953
10214W        W25683  15.432  10.414   4.915  0.2332  0.1071  0.4367
10215W        W25684   2.801   8.976   3.668  0.1998 -0.0383 -0.0725
10216W        W25685   9.096  12.423  14.212  0.2809  0.1211  0.0360
10217W        W25686   0.269   9.353  14.217 -0.1609  0.0737 -0.1136
10218W        W25687   7.983  16.602  12.132  0.1799  0.1932 -0.2228
10219W        W25688   2.806   5.682   2.718 -0.1649 -0.4201  0.2142
10220W        W25689  11.000  14.690  11.761 -0.0472  0.3181 -0.0204
10221W        W25690   9.582   9.336  13.924  0.0127  0.0456 -0.1783
10222W        W25691   1.427  12.700   2.257  0.0033 -0.0462 -0.1720
10223W        W25692   1.092   4.121  13.798 -0.3441  0.2529 -0.3010
10224W        W25693  12.218  17.279  14.993  0.2390  0.0337  0.1280
10225W        W25694  16.232  16.000  13.364 -0.0206  0.2604 -0.1773
10226W        W25695  12.322   7.233  12.730 -0.0712 -0.0472 -0.0957
10227W        W25696  16.983  16.545  15.316 -0.1017 -0.1203  0.1578
10228W        W25697   2.747  18.228  10.963 -0.0587 -0.2292 -0.0708
10229W        W25698  17.787   5.080   2.417  0.3082 -0.4285  0.0938
10230W        W25699  16.005   0.782  14.643 -0.3125 -0.1914  0.3593
10231W        W25700   4.903   9.577  12.715 -0.1011 -0.0192  0.0270
10232W        W25701   8.186  17.322   5.203  0.0429  0.0433  0.4959
10233W        W25702   8.981   4.456   2.090 -0.1448 -0.1584 -0.0567
10234W        W25703  11.661  12.986   1.179 -0.2825 -0.2797 -0.0649
10235W        W25704   6.785  18.313  11.064  0.0726 -0.0709 -0.2083
10236W        W25705   1.407   0.157   4.231  0.2679  0.1274 -0.0096
10237W        W25706  14.928  16.704   1.076 -0.1084 -0.1596 -0.2747
10238W        W25707   7.559   4.950   2.235  0.2130 -0.2205  0.4377
10239W        W25708   0.549  18.488  13.063  0.1109  0.1476  0.0820
10240W        W25709  13.750   9.848  10.714  0.1379 -0.1553 -0.0049
10241W        W25710   6.033   2.137  14.099 -0.0166  0.1484  0.2215
10242W        W25711  17.465  11.204   2.522  0.0148  0.1702 -0.2805
10243W        W25712   9.280  12.033  13.906  0.1168 -0.2501 -0.1811
10244W        W25713  14.681   6.087  14.953 -0.1952  0.4903  0.0460
10245W        W25714  11.160  10.887  11.318 -0.0573 -0.1684  0.0359
10246W        W25715  18.859   1.255  12.979  0.1918  0.2477  0.2111
10247W        W25716  11.067  13.190  13.414 -0.5299 -0.0497  0.1044
10248W        W25717  14.444  16.555  14.445 -0.1799  0.1271 -0.2833
10249W        W25718   3.285  15.330  12.652 -0.1075  0.3102  0.2030
10250W        W25719   8.110   4.371   1.948  0.1886 -0.0998 -0.0714
10251W        W25720   4.955  18.248   2.967  0.0677 -0.0713  0.1733
10252W        W25721  10.931   9.497  14.196  0.1300  0.2211 -0.4518
10253W        W25722  15.602  16.321   0.433  0.0409  0.1129  0.0250
10254W        W25723   4.168  13.206   4.025 -0.0548  0.0097  0.2639
10255W        W25724   3.931  15.131   0.314 -0.1600 -0.0047 -0.1485
10256W        W25725  17.264  13.758   2.959  0.0636  0.0384  0.2319
10257W        W25726   2.670   8.824  11.118 -0.1085  0.0102 -0.4284
10258W        W25727   9.913  12.014  11.677 -0.2870 -0.3234  0.4141
10259W        W25728   4.608  14.389   3.801 -0.0905 -0.0286  0.0463
10260W        W25729   0.713  12.359  15.315 -0.1641  0.1269  0.2164
10261W        W25730  16.490  16.741   2.807 -0.2542 -0.1589  0.0776
10262W        W25731   9.600  10.940   2.655  0.2652 -0.1708  0.0194
10263W        W25732  15.530   2.344   0.306  0.1196  0.1864  0.1274
10264W        W25733  10.490  17.393  13.455  0.1401  0.0873  0.0683
10265W        W25734   6.101   4.814   2.149  0.3000  0.0116  0.2507
10266W        W25735   5.985   0.403   3.226 -0.2197 -0.0926  0.0483
10267W        W25736   2.608  13.025  14.321  0.1161  0.0327 -0.2573
10268W        W25737   2.577   3.860  11.841 -0.0083 -0.0436 -0.2641
10269W        W25738   4.490   1.967  13.222 -0.1205 -0.0650 -0.0137
10270W        W25739   4.194  18.037  11.852 -0.0357  0.4405 -0.1367
10271W        W25740   8.101  15.928  10.821  0.1069 -0.1307  0.0563
10272W        W25741   5.989  14.331  13.769 -0.0370 -0.1823 -0.1968
10273W        W25742  17.310  15.280   3.823 -0.0022 -0.0864  0.0792
10274W        W25743   5.549  18.755  11.129  0.0450 -0.0612 -0.0906
10275W        W25744  11.770   9.434   1.663 -0.0720 -0.4733 -0.4235
10276W        W25745   0.423  17.662  14.068  0.2256  0.3849  0.1350
10277W        W25746   5.086  16.532   0.488 -0.0118  0.1608  0.3142
10278W        W25747  10.475   2.282   5.175 -0.1314 -0.2564 -0.0864
10279W        W25748   8.498  18.584  12.821  0.2065  0.0624 -0.1854
10280W        W25749   4.794   1.461  14.207  0.0959 -0.1374 -0.5167
10281W        W25750   0.717   5.058   9.966 -0.2006  0.1193 -0.0343
10282W        W25751  16.326   2.511  12.014  0.0976  0.1395  0.3017
10283W        W25752  17.492  15.565   0.665  0.0674  0.0133  0.2635
10284W        W25753   1.930  18.574  13.263 -0.1930  0.0664 -0.3119
10285W        W25754   9.134  13.472   1.015 -0.2150  0.0022  0.0584
10286W        W25755   1.793  15.731  15.197  0.2332  0.1705  0.2120
10287W        W25756   3.192  10.775   4.449 -0.2636  0.0765  0.1643
10288W        W25757   2.801   5.476   4.886 -0.1287 -0.0867 -0.0179
10289W        W25758  18.552   6.245  12.131  0.0022  0.1256 -0.1165
10290W        W25759  12.925  14.165   4.613  0.0151 -0.2103 -0.3369
10291W        W25760  10.027   1.550  10.567 -0.1525 -0.2109 -0.0216
10292W        W25761  16.141  14.354  12.717  0.1241 -0.1467  0.3667
10293W        W25762  17.551   3.758   2.856  0.1311  0.0190 -0.4669
10294W        W25763   1.686   0.385   2.361 -0.0907 -0.0793  0.1504
10295W        W25764  13.144  18.699   0.436 -0.2144 -0.1605 -0.0310
10296W        W25765   6.304   0.522  12.122  0.2606  0.1985 -0.1330
10297W        W25766  17.826  14.207  14.183 -0.2748 -0.0684  0.0507
10298W        W25767  14.034   0.519  13.632  0.0640  0.2342  0.0443
10299W        W25768   2.479  15.102   2.020 -0.2069 -0.4726 -0.1127
10300W        W25769   5.062  15.144   3.367  0.0389 -0.3587  0.2698
10301W        W25770   8.677   9.527  12.759  0.1410  0.0988  0.2622
10302W        W25771   8.414  17.381   5.610  0.0601 -0.0442  0.1639
10303W        W25772   9.802   9.324   0.341 -0.1388 -0.0842  0.1063
10304W        W25773  17.568   0.946  13.479  0.0508  0.1752  0.1901
10305W        W25774  11.776   9.292  14.683  0.1748  0.0743  0.3934
10306W        W25775   5.059   2.470   3.708  0.0113  0.1650 -0.2476
10307W        W25776  14.133  10.040  13.938  0.2797 -0.1157 -0.0057
10308W        W25777  17.386  17.296  11.840  0.0779 -0.0799 -0.0833
10309W        W25778  17.547   2.951   0.413 -0.0273 -0.2671 -0.4120
10310W        W25779  15.518  18.398   5.152  0.3672  0.0218  0.0068
10311W        W25780  12.051  16.166   2.753 -0.3390 -0.2228  0.0963
10312W        W25781  17.724   3.977  14.743  0.2318 -0.2015 -0.0724
10313W        W25782   0.766  14.901  12.660  0.3055  0.2140  0.0017
10314W        W25783   7.440   4.971  10.282  0.2502 -0.2655 -0.2778
10315W        W25784   2.737   7.993  13.482  0.2749  0.1371  0.1628
10316W        W25785   2.833   4.952   0.344 -0.2028  0.0335  0.2762
10317W        W25786   0.663   9.980   1.084 -0.4734  0.1976 -0.0909
10318W        W25787   8.858   0.590  13.062  0.0458 -0.3685  0.0990
10319W        W25788  10.393  18.512   0.760 -0.0786  0.2017  0.2262
10320W        W25789   1.154   2.152   2.772 -0.1095  0.0008 -0.2242
10321W        W25790   9.371   9.506   0.373 -0.1770 -0.3382 -0.0392
10322W        W25791  16.390  17.020  14.581  0.3584 -0.0355 -0.1871
10323W        W25792  12.902  10.623  12.687  0.2054  0.1776 -0.0087
10324W        W25793  15.444   6.830   4.691 -0.1987 -0.0119 -0.0940
10325W        W25794  14.328  11.112  12.750 -0.0469  0.2729 -0.0711
10326W        W25795  11.173   2.245   0.975 -0.0023  0.0135 -0.2510
10327W        W25796  14.174   2.919  14.581  0.1774  0.2391  0.0775
10328W        W25797  15.429   2.341  14.314  0.1289  0.2327  0.2067
10329W        W25798  12.601   5.127   0.734  0.0018  0.2246 -0.2115
10330W        W25799   1.598   7.022  11.800  0.1954  0.2413  0.0435
10331W        W25800   6.448  16.581   5.140 -0.0307 -0.1434  0.0403
10332W        W25801   1.274   4.891   4.095  0.1719 -0.0516 -0.1359
10333W        W25802  12.214   0.623   0.681 -0.0941  0.2295  0.1356
10334W        W25803   8.695   8.166  13.047 -0.2372 -0.0747 -0.1620
10335W        W25804  17.954   0.986   3.938  0.0380 -0.2048  0.2818
10336W        W25805   0.936   3.838   3.464  0.1069 -0.2284  0.0506
10337W        W25806  13.048  18.084   3.414 -0.0542  0.0595  0.0527
10338W        W25807   0.004   3.011  13.336  0.2545 -0.2152 -0.1270
10339W        W25808   8.032   2.499  12.287  0.2688  0.1602 -0.0355
10340W        W25809   4.645   3.190   2.607 -0.1305  0.0380  0.2794
10341W        W25810   5.701   3.905   3.325  0.0647 -0.2504 -0.0355
10342W        W25811  18.799  16.257   4.252 -0.0592 -0.2634  0.0750
10343W        W25812  12.505   0.510  13.911 -0.1151 -0.0437 -0.2622
10344W        W25813  15.406   5.500  15.133 -0.0964 -0.1201  0.0627
10345W        W25814   5.809  12.623   1.336  0.0071  0.2295 -0.0565
10346W        W25815   3.936  11.871  15.267  0.1862 -0.1084 -0.2203
10347W        W25816  18.845   9.155  14.605 -0.4089  0.3226 -0.1222
10348W        W25817  17.869   1.178  12.398  0.0607 -0.0155  0.2487
10349W        W25818  13.263  11.322   6.254 -0.1360  0.1232  0.0189
10350W        W25819   4.179  13.992  12.946  0.1840  0.4142  0.2827
10351W        W25820   2.953   6.222  14.128 -0.1108 -0.0696  0.2345
10352W        W25821   3.627   2.203  11.359 -0.3383 -0.1166  0.1323
10353W        W25822   1.684   3.581  14.257 -0.0082  0.2742 -0.2568
10354W        W25823   3.663   1.529   1.731 -0.1281  0.0048  0.1459
10355W        W25824  17.836   9.911   0.264 -0.0550  0.0561 -0.1630
10356W        W25825  15.869   7.452  11.948  0.1232 -0.2573 -0.1254
10357W        W25826   6.775   9.259   0.511  0.0910 -0.2397 -0.1912
10358W        W25827  18.395   7.493   6.028 -0.1975 -0.0496  0.0294
10359W        W25828  10.348  16.317   3.793  0.0646 -0.2139  0.0095
10360W        W25829  18.330   6.486   3.975  0.0015 -0.1369 -0.2794
10361W        W25830   2.755   0.498   0.853  0.3038 -0.1931 -0.1128
10362W        W25831   9.000  14.137  13.765 -0.0377  0.0862 -0.0796
10363W        W25832  14.771   6.740  10.275  0.3051 -0.1997  0.1008
10364W        W25833   9.835  16.579   3.148 -0.1475 -0.0168  0.2673
10365W        W25834   6.769   8.761   5.402 -0.1237 -0.0799  0.0590
10366W        W25835  14.934   9.021  10.531  0.0635 -0.1470  0.0279
10367W        W25836   8.628   3.666   0.053 -0.1409  0.0778 -0.0423
10368W        W25837   1.476   3.992  15.037 -0.1354 -0.2122  0.1575
10369W        W25838   9.207   2.683   5.337 -0.1740  0.0861  0.0070
10370W        W25839   5.841   0.906   3.063  0.0739  0.1548 -0.1556
10371W        W25840   0.210   1.932   2.631  0.1228 -0.2398  0.1325
10372W        W25841   1.924  16.480  14.282  0.0740 -0.1853  0.1284
10373W        W25842  13.349   4.688  14.574 -0.3842  0.1295  0.0960
10374W        W25843   0.293  17.163  11.784  0.0930  0.1558 -0.4796
10375W        W25844  16.389  11.349   2.023 -0.1114  0.2238  0.0207
10376W        W25845   5.374  16.322  10.997  0.1873  0.0302  0.1143
10377W        W25846   2.309   5.507   4.047 -0.0543 -0.2487  0.1137
10378W        W25847  16.114   0.299  14.750 -0.0681  0.0494  0.1842
10379W        W25848   8.647  13.313  13.328 -0.4410 -0.2251  0.0705
10380W        W25849   1.716  14.270  11.311  0.0905 -0.0603  0.0165
10381W        W25850  11.507  15.734  11.608 -0.2496 -0.1213  0.2133
10382W        W25851  17.627   8.146  14.931 -0.1821 -0.1067 -0.1063
10383W        W25852  15.081   0.209   0.920  0.0032  0.1103  0.2524
10384W        W25853   4.076   3.681  12.570  0.3768  0.2703 -0.0322
10385W        W25854  15.674   5.337   1.046 -0.0983 -0.2487 -0.0432
10386W        W25855   5.326  14.031  11.789 -0.1890 -0.0306  0.1586
10387W        W25856  15.028  10.674   4.697  0.2146  0.2230  0.0047
10388W        W25857  14.692   6.693   1.531  0.1833  0.1593 -0.2650
10389W        W25858   4.559   9.157   2.031 -0.1588  0.0447  0.1334
10390W        W25859  13.358   9.624   0.076 -0.0485 -0.0296  0.0727
10391W        W25860  15.439   2.125  13.889 -0.1245  0.0722 -0.0950
10392W        W25861  10.261   6.775  14.013 -0.1025  0.0210  0.0313
10393W        W25862   2.181  13.212  13.119  0.1744 -0.1452 -0.0160
10394W        W25863   3.998   6.663   0.686 -0.2626 -0.1584 -0.1580
10395W        W25864   7.163   5.709  12.182 -0.0498  0.0118 -0.1777
10396W        W25865  15.494   5.390   5.730 -0.2509 -0.3939 -0.2245
10397W        W25866   5.811  18.835  12.798  0.3454  0.1607  0.1520
10398W        W25867   2.994   1.415   3.841 -0.0836  0.4079  0.0494
10399W        W25868  11.057  16.603   1.242  0.3700  0.1413 -0.3187
10400W        W25869   5.687  17.435  14.685  0.0282 -0.1149 -0.0070
10401W        W25870   6.262   6.876   4.236 -0.1240  0.0117  0.0398
10402W        W25871   0.633   6.035   0.731 -0.0843  0.0158  0.2313
10403W        W25872   2.821   4.309  15.221 -0.2479 -0.0165 -0.3705
10404W        W25873  14.223   6.619  13.632 -0.1518 -0.1680  0.1930
10405W        W25874  13.851   9.562   0.929 -0.0892 -0.0619  0.2297
10406W        W25875   7.417   0.236  14.619 -0.0439 -0.2490 -0.1713
10407W        W25876   1.593  14.208   5.208 -0.0371 -0.0268  0.2020
10408W        W25877   0.646  12.559  14.221 -0.2322  0.1159 -0.3006
10409W        W25878  11.270   1.044  15.169  0.0126  0.1244 -0.1029
10410W        W25879  15.683   4.750  14.085 -0.1914 -0.2654 -0.3398
10411W        W25880   0.885   5.138   0.173  0.1303  0.0792  0.0760
10412W        W25881  18.421  12.635   2.432  0.1250  0.1335 -0.4993
10413W        W25882  14.432   3.055   2.461 -0.2246  0.1690 -0.1705
10414W        W25883   7.179   9.990   6.173  0.3687 -0.1897 -0.0743
10415W        W25884  11.631   8.255  14.117 -0.1611 -0.1559 -0.0288
10416W        W25885   6.467   0.336  13.096 -0.0889 -0.2280 -0.0720
10417W        W25886  17.103   6.543  11.934  0.0132  0.2385 -0.3010
10418W        W25887   9.877  17.691   3.084 -0.4077 -0.0508  0.0416
10419W        W25888  12.380   7.435   0.592 -0.3171 -0.0973 -0.0464
10420W        W25889  18.873   5.712   0.868  0.2254 -0.3154 -0.0172
10421W        W25890  10.018   2.748   2.213 -0.3457  0.0915  0.0278
10422W        W25891   7.644   0.064   5.354 -0.1273 -0.0352  0.2098
10423W        W25892  18.549  18.092   0.914 -0.0252 -0.3164 -0.2570
10424W        W25893   4.357  14.235   1.516 -0.0339  0.0999  0.4141
10425W        W25894  14.221  17.578  13.211 -0.5354 -0.1611  0.0079
10426W        W25895   2.507   3.368  10.586 -0.3267 -0.1613  0.1899
10427W        W25896  18.557   8.168   3.577 -0.0562 -0.0627  0.4680
10428W        W25897   8.354   5.764   3.040  0.1040  0.2373  0.0120
10429W        W25898   0.847   7.668  12.587  0.0079  0.1741 -0.0839
10430W        W25899  14.229   4.448  15.398 -0.1805 -0.0521 -0.1207
10431W        W25900  17.315  10.666  13.911 -0.1619  0.2181 -0.1341
10432W        W25901  17.880  12.157  10.660 -0.0895 -0.3429  0.0851
10433W        W25902   9.710  12.443  11.559  0.3865  0.1617  0.1327
10434W        W25903  14.082   0.754   0.251  0.0426 -0.1147  0.2810
10435W        W25904  14.270  13.910   4.955  0.1433  0.3045  0.2047
10436W        W25905   6.017   5.485   4.933  0.1661 -0.0777  0.1821
10437W        W25906   6.803   8.664   1.248  0.2540  0.0449  0.0357
10438W        W25907  13.114   3.094   2.416 -0.2625  0.1499 -0.0568
10439W        W25908  16.153   3.820   0.036  0.4979 -0.0075 -0.0387
10440W        W25909  15.637  15.473  13.500  0.1656  0.3076 -0.1499
10441W        W25910  18.337   2.478   3.269  0.1061 -0.1138  0.0230
10442W        W25911   1.263  17.570  14.917  0.1148 -0.0891  0.3354
10443W        W25912  12.426   6.699  14.609  0.0405  0.2646 -0.2826
10444W        W25913   5.279   7.025  12.703 -0.3616  0.3628  0.2305
10445W        W25914   9.115   1.484   4.085 -0.0753 -0.2168 -0.1645
10446W        W25915   0.412  12.582   3.617  0.1351  0.1278 -0.1084
10447W        W25916   2.045   7.889   3.866 -0.0927 -0.1451  0.0450
10448W        W25917  16.503   9.650   1.755 -0.1033 -0.0639  0.0433
10449W        W25918   0.746   9.254   4.776  0.0423  0.1340 -0.4416
10450W        W25919  14.169   8.853  13.124  0.4467 -0.2052 -0.1556
10451W        W25920  15.337   2.990   0.137 -0.0135  0.1898 -0.1497
10452W        W25921  13.432   2.707   3.543  0.2055 -0.1910 -0.0842
10453W        W25922   9.588   8.786   5.550  0.0978 -0.0584  0.4527
10454W        W25923   9.004   2.880   1.801 -0.1079 -0.1449 -0.0655
10455W        W25924   3.321   7.619  13.205 -0.1398  0.0224 -0.0985
10456W        W25925   0.075   2.520   0.864  0.1010 -0.1285  0.1314
10457W        W25926  17.698   6.109   2.375  0.1936 -0.0767 -0.2204
10458W        W25927  13.925  18.477   1.332  0.1032 -0.2680  0.0731
10459W        W25928  10.008   7.476   4.013 -0.0781  0.0340  0.0342
10460W        W25929   0.919   1.602  11.740  0.1554 -0.0553  0.2399
10461W        W25930   8.270  13.294   2.250  0.0201  0.1889  0.0380
10462W        W25931   8.672  12.863  14.368  0.0133  0.4195 -0.0348
10463W        W25932   0.417   8.195   4.079  0.2140  0.2878 -0.2217
10464W        W25933   3.722   6.544  14.637 -0.0505 -0.0071  0.0253
10465W        W25934   1.437  11.086   0.260  0.2758 -0.0608 -0.2599
10466W        W25935   3.163   4.916   4.057 -0.3376 -0.2052  0.2210
10467W        W25936  10.665   0.585   0.791  0.1829  0.1439  0.1583
10468W        W25937   3.179  13.137   0.830 -0.0395 -0.1017 -0.0004
10469W        W25938   5.429   2.782  11.538  0.2764 -0.0423  0.0612
10470W        W25939  10.512  14.354   2.638 -0.0292  0.0675  0.3933
10471W        W25940  10.869  16.537   0.666  0.1457  0.5133  0.0363
10472W        W25941   7.781  10.176  11.322  0.1527  0.1903  0.1972
10473W        W25942  14.523   8.017   4.637  0.1622  0.1284 -0.0218
10474W        W25943   0.568   4.791   2.176  0.0816  0.3889 -0.2047
10475W        W25944  13.612   5.126  12.305 -0.0476 -0.1881  0.1770
10476W        W25945  17.285  13.003   5.146  0.0726  0.2712 -0.2123
10477W        W25946   6.981  15.240  13.121 -0.4277 -0.1925 -0.1444
10478W        W25947  17.053   6.470  12.565 -0.1589 -0.1250 -0.1414
10479W        W25948  13.474  15.572  13.831  0.4370 -0.2668 -0.1947
10480W        W25949  12.272  16.093  12.683 -0.4671  0.1892  0.1636
10481W        W25950  13.569  16.166   1.847  0.1782 -0.2723 -0.0192
10482W        W25951  18.385   9.767   3.786  0.1687 -0.0420 -0.4773
10483W        W25952   8.765  11.431  12.668  0.2847  0.2708 -0.0696
10484W        W25953   5.018   1.277   3.996 -0.0646  0.2446 -0.0264
10485W        W25954   4.077   1.299   1.492  0.2362  0.0514 -0.1288
10486W        W25955  13.496   3.234   2.810  0.0851  0.1896 -0.1510
10487W        W25956   3.751   7.438  14.060  0.0976 -0.1580  0.3953
10488W        W25957   9.979   2.797   0.573 -0.2970 -0.1541 -0.0861
10489W        W25958   0.596   8.984   0.695 -0.2745  0.2434  0.4684
10490W        W25959  12.028  13.537   5.442 -0.4018 -0.2044  0.1245
10491W        W25960  11.728   0.407   2.085 -0.5576 -0.1791  0.2092
10492W        W25961  12.492  17.308  12.819 -0.4883  0.0522 -0.0661
10493W        W25962  15.532   4.777   4.842  0.4712 -0.0804  0.1614
10494W        W25963   9.415   7.911   2.224 -0.1552 -0.4532  0.2678
10495W        W25964  10.649  13.465   5.975 -0.0086 -0.1399 -0.1480
10496W        W25965   3.599   8.964   2.571  0.1055  0.1660 -0.0845
10497W        W25966   8.149   1.705  14.083 -0.0330 -0.1958 -0.0161
10498W        W25967  12.572  12.909   0.046 -0.0033 -0.1562 -0.2698
10499W        W25968   7.764  18.192  13.189  0.0046  0.3036 -0.0056
10500W        W25969   8.026  12.952   0.427 -0.0652  0.0451 -0.0235
10501W        W25970   7.038   8.668  11.177 -0.1707 -0.2807  0.1228
10502W        W25971  16.428   9.713   3.455 -0.1063  0.0497  0.5418
10503W        W25972  18.189   3.258  13.627 -0.0011  0.2659 -0.2370
10504W        W25973   8.581   7.195  13.340 -0.0357  0.2726 -0.0694
10505W        W25974   4.037   7.850   4.694 -0.0825  0.0760 -0.0898
10506W        W25975  17.689  10.781   5.405  0.1591 -0.0510  0.0242
10507W        W25976   4.904  17.524   2.172  0.0676 -0.0293  0.0049
10508W        W25977  10.999  13.985  15.342 -0.5027 -0.2921 -0.1848
10509W        W25978   2.321   0.555  12.186  0.2263  0.0183  0.0922
10510W        W25979  16.431   9.233  12.043 -0.0739 -0.1864  0.0226
10511W        W25980   0.026   5.231  11.762  0.0494  0.1627  0.0365
10512W        W25981   8.178   6.668  11.445 -0.3060 -0.3020  0.0578
10513W        W25982   9.242  10.265  13.288  0.0653 -0.1227 -0.3174
10514W        W25983   5.769   4.021   2.851 -0.0602  0.2743  0.2475
10515W        W25984  18.366  15.501   5.182 -0.0366 -0.2033  0.0090
10516W        W25985   9.461   7.134   5.285  0.0540  0.3032 -0.0083
10517W        W25986   9.588   7.348  11.489 -0.0016 -0.0024  0.1251
10518W        W25987   5.174   2.328  14.644 -0.2634  0.1148  0.3276
10519W        W25988   5.244   5.580   1.818  0.0388 -0.1579 -0.1556
10520W        W25989  15.809  16.227   1.043  0.0715 -0.0609 -0.0889
10521W        W25990   3.164  17.375   0.800  0.0052 -0.2233 -0.0706
10522W        W25991   8.574  18.642   2.575  0.2721  0.1614 -0.0298
10523W        W25992  17.926   1.982   1.446 -0.1349 -0.0083  0.1012
10524W        W25993  10.648   5.523   3.010  0.2892  0.0748  0.1895
10525W        W25994   4.733   6.997   4.602 -0.0267  0.3548 -0.1308
10526W        W25995  17.674  16.455   0.736 -0.3662 -0.0963 -0.3144
10527W        W25996  11.755   7.284  11.337 -0.0805 -0.2680 -0.0259
10528W        W25997  12.203  18.509  14.222 -0.3390 -0.0391 -0.2134
10529W        W25998   3.523  13.285  10.011 -0.0877  0.1378  0.1175
10530W        W25999   2.904  12.374   3.955  0.1316  0.3298  0.0764
10531W        W26000   9.581  16.542   1.574  0.5269 -0.1478  0.2128
10532W        W26001  18.578  18.621   3.303 -0.3575  0.1117  0.0967
10533W        W26002  16.120   3.424   2.749  0.0375  0.2889  0.0791
10534W        W26003  10.603   4.985  12.168  0.1360 -0.2381 -0.0249
10535W        W26004   1.299  14.982  10.916 -0.1677 -0.0210 -0.2035
10536W        W26005   9.943  16.570  12.458 -0.1686  0.1210  0.1184
10537W        W26006   1.455  16.823  14.832  0.2708  0.0338 -0.2331
10538W        W26007  15.091   6.231  13.818 -0.3308  0.2862 -0.2908
10539W        W26008   5.707   6.545   3.178 -0.1674 -0.2646 -0.1845
10540W        W26009   8.438   0.919   2.976  0.3011 -0.3575  0.1466
10541W        W26010  16.605  16.887   2.338  0.0928 -0.0217 -0.1654
10542W        W26011  13.179   5.998   4.199  0.0329 -0.2302 -0.1482
10543W        W26012  11.482   0.700   3.476  0.1840 -0.0801  0.0217
10544W        W26013  14.838   7.899  11.811  0.2144  0.2177 -0.4104
10545W        W26014   2.247   9.279   1.364 -0.1747 -0.1530 -0.2361
10546W        W26015   5.349   2.100   2.550  0.0413  0.2923  0.2383
10547W        W26016   3.733   8.718   0.878 -0.1135 -0.2532  0.3823
10548W        W26017   0.824   1.506   1.515 -0.0775  0.0615  0.0881
10549W        W26018  14.721  11.982   5.514 -0.0230 -0.0684 -0.2242
10550W        W26019   7.797   9.060  10.128  0.0717 -0.2210  0.1302
10551W        W26020   8.775  13.749  12.623 -0.1150  0.1669  0.2335
10552W        W26021  11.053   1.680  12.521 -0.2228  0.2135 -0.2162
10553W        W26022  12.361  17.746  11.577 -0.0703 -0.1343  0.1490
10554W        W26023   1.532  16.081  13.633  0.1219  0.0602 -0.2590
10555W        W26024   1.384  13.229  10.435  0.0330 -0.1804  0.0488
10556W        W26025  13.686  12.078   0.354 -0.1095 -0.1169  0.0423
10557W        W26026   7.373  13.840   4.249  0.0806  0.5121  0.2593
10558W        W26027  14.026  15.450  14.403  0.0440 -0.1227 -0.2094
10559W        W26028  15.682  11.973  11.745  0.1311  0.1892  0.0204
10560W        W26029  15.613   5.418  11.906 -0.0341 -0.1070 -0.0131
10561W        W26030   6.282   8.218   2.545 -0.0006 -0.0468 -0.2156
10562W        W26031   8.703   9.971   5.665  0.4201 -0.1021 -0.1884
10563W        W26032   3.281   4.379   1.547  0.3350  0.0153  0.3255
10564W        W26033  15.164   7.318   2.963  0.1621  0.1164  0.1798
10565W        W26034  14.073  14.962  11.313  0.2003  0.2017 -0.3071
10566W        W26035  15.216   6.143   9.459  0.0566  0.1194 -0.1167
10567W        W26036  15.246  10.831  14.664 -0.0500 -0.3010 -0.1314
10568W        W26037   2.524   4.167  13.822  0.2699 -0.1438 -0.0682
10569W        W26038   8.336   2.449  10.497  0.2204 -0.0314  0.1516
10570W        W26039   1.186  11.779  13.369  0.3980 -0.1731 -0.2078
10571W        W26040  16.687   4.710  10.136 -0.1467 -0.4291 -0.0823
10572W        W26041   8.272  16.435  13.169 -0.1917 -0.3939 -0.4919
10573W        W26042   9.715   3.142  13.906  0.1814 -0.1309  0.2780
10574W        W26043  12.048   3.336   3.134  0.3478 -0.1624 -0.0537
10575W        W26044  11.466   0.010  11.379 -0.0939  0.0262  0.0284
10576W        W26045   9.820  16.200   5.332  0.2735 -0.2272  0.0079
10577W        W26046  12.305   8.251   3.254  0.1288 -0.0787 -0.3913
10578W        W26047  18.231  16.635  13.713 -0.3575 -0.1968  0.0748
10579W        W26048  17.608  10.884  11.714 -0.0325  0.0882  0.1777
10580W        W26049  13.195   5.182   5.051  0.4633 -0.1688  0.0426
10581W        W26050   5.089  17.288   2.782  0.0677 -0.0272 -0.2128
10582W        W26051  14.828   5.453   2.234  0.1110 -0.1655 -0.1106
10583W        W26052  11.486   2.547   3.545 -0.0280  0.0600 -0.1282
10584W        W26053  10.399  15.816   3.987  0.3064 -0.3836  0.0293
10585W        W26054  14.759   3.074   2.920 -0.2230  0.0509  0.0155
10586W        W26055  10.524   6.109   3.762 -0.0108 -0.1640  0.3193
10587W        W26056   2.931  18.460   1.891  0.2130 -0.1067 -0.0648
10588W        W26057  14.102  14.414   4.921  0.4534  0.1989  0.2629
10589W        W26058  13.865  18.847   0.127  0.2169  0.3523 -0.1312
10590W        W26059   1.999   9.882   2.648  0.1365  0.3669  0.0460
10591W        W26060  12.471   2.951   4.805  0.1407  0.2910  0.1070
10592W        W26061  18.730  15.907  13.114  0.2153  0.0535  0.1195
10593W        W26062  17.746   6.354   0.576  0.0198  0.0008 -0.0857
10594W        W26063  13.468  10.129  11.099 -0.0353  0.1349  0.0159
10595W        W26064  14.113   2.641  11.540 -0.1862 -0.1473  0.2182
10596W        W26065  14.149  16.379   2.923  0.1966  0.0224  0.2175
10597W        W26066   8.919  18.350  12.395  0.1872 -0.3132 -0.0228
10598W        W26067   3.807  10.639  10.440  0.0115  0.0668  0.2330
10599W        W26068   2.465  16.814  11.846  0.0203  0.0783 -0.0118
10600W        W26069   8.587   1.053  13.840 -0.0177 -0.2588  0.0825
10601W        W26070  11.646  11.403   3.368  0.3858 -0.0510  0.2275
10602W        W26071   2.249   3.657   0.161 -0.1445  0.0007 -0.0971
10603W        W26072  18.643  14.366   0.968  0.1020  0.0695  0.0311
10604W        W26073   7.678  17.960  11.790 -0.1059  0.1665  0.0981
10605W        W26074  12.937   7.066   3.964  0.0575 -0.2108  0.2366
10606W        W26075   2.017   6.319   4.168 -0.0673 -0.2315  0.1117
10607W        W26076   1.728  17.732  15.048  0.0932  0.0729  0.0974
10608W        W26077   8.968   1.907  11.954  0.0459  0.1589  0.1213
10609W        W26078  10.935   0.887   4.375 -0.0794  0.1299 -0.1267
10610W        W26079   0.613   9.139  13.046 -0.0614  0.0229  0.0122
10611W        W26080   2.805   7.730  12.109 -0.1657  0.2101  0.1257
10612W        W26081   0.685  17.285  11.258 -0.1071  0.1138 -0.1612
10613W        W26082   3.918  16.569   3.567 -0.3062  0.0773  0.0012
10614W        W26083  18.736   5.153   2.287 -0.1174  0.1559  0.1559
10615W        W26084   1.807  15.155   1.317  0.1547  0.0079 -0.1513
10616W        W26085   7.241   1.387   4.872 -0.0436  0.3255  0.2742
10617W        W26086   5.597  17.419  11.633 -0.3110 -0.0518 -0.1835
10618W        W26087   2.605  13.940   4.325 -0.0124  0.4099  0.0463
10619W        W26088   3.689   4.961  13.217  0.0300 -0.0241  0.0165
10620W        W26089   9.635  16.552  13.961 -0.0635 -0.3541 -0.0792
10621W        W26090   8.028  10.812   5.057 -0.1311  0.2716 -0.0224
10622W        W26091  14.197  10.479  10.752  0.1251  0.2303  0.0824
10623W        W26092  15.983  16.945   1.563  0.1470 -0.1767  0.2895
10624W        W26093  10.908   9.551   3.853 -0.0525 -0.0346  0.2862
10625W        W26094   7.867   6.952   0.763  0.1026  0.0403 -0.0357
10626W        W26095   8.330   4.134  11.356  0.0191 -0.3129 -0.1581
10627W        W26096  18.562   0.680   2.546  0.0841 -0.2055  0.1361
10628W        W26097   4.226  15.170  11.835  0.1888  0.0674 -0.2888
10629W        W26098  14.397  14.247   0.476  0.2603  0.0697 -0.1531
10630W        W26099  18.074  14.673   9.998  0.2572  0.1127  0.0883
10631W        W26100  12.671   9.200  14.415 -0.0067  0.1728  0.2887
10632W        W26101   7.690  12.872   0.052 -0.0474 -0.0848  0.0941
10633W        W26102   6.677   6.053  13.765  0.3414 -0.0568 -0.2829
10634W        W26103   6.120   8.494  14.630 -0.2672  0.1172  0.0043
10635W        W26104   5.667   9.488   3.183  0.1653  0.1895  0.1013
10636W        W26105   6.770  15.694   3.092  0.0771  0.1338 -0.1169
10637W        W26106   4.410  10.185   4.972 -0.2441  0.0082  0.0672
10638W        W26107   1.659   3.032  12.045 -0.0349 -0.1357 -0.1817
10639W        W26108   6.502   9.633  15.128 -0.1104  0.0905 -0.0077
10640W        W26109  12.580   8.430   2.523 -0.3248  0.2603 -0.0255
10641W        W26110  17.052  15.074   2.151 -0.0306 -0.0122  0.2983
10642W        W26111   8.338  10.531  11.897  0.2628  0.0503  0.1991
10643W        W26112  18.450   3.290   4.088 -0.2462  0.0750  0.2109
10644W        W26113   2.395  13.072   4.202 -0.2660  0.1860 -0.0522
10645W        W26114  17.210   8.424   1.914  0.0751 -0.0528  0.1627
10646W        W26115   6.367  14.253  13.202 -0.1821 -0.1058  0.1870
10647W        W26116   0.181  17.049  10.584  0.2472  0.2058  0.0426
10648W        W26117   7.937  14.672  10.657 -0.1236 -0.0404 -0.0483
10649W        W26118  14.308  18.645   3.570  0.1976  0.0736 -0.1004
10650W        W26119   4.459   6.354  11.602  0.1414  0.1991 -0.0522
10651W        W26120   5.923  14.928   1.284 -0.3224 -0.2867  0.0764
10652W        W26121   2.520   2.728  11.775  0.0978 -0.0180  0.1399
10653W        W26122  13.204   5.637  11.962 -0.1103 -0.0527  0.0710
10654W        W26123   0.091  16.413   2.174  0.2644  0.0436 -0.2544
10655W        W26124   6.619   6.776   0.019  0.0722 -0.1281 -0.2007
10656W        W26125   4.842   2.920   3.858  0.1363 -0.0761 -0.2237
10657W        W26126  12.344   6.213   0.630 -0.1219 -0.1046 -0.2697
10658W        W26127  12.277   1.195   1.058 -0.0059 -0.1462 -0.0423
10659W        W26128  13.230  18.416   4.567  0.0606  0.1935  0.2412
10660W        W26129   3.725  12.363   5.693  0.1846  0.1517 -0.0464
10661W        W26130  10.791   6.959  14.095  0.1868 -0.0894  0.1829
10662W        W26131  11.615  18.063   4.935 -0.0401  0.2729 -0.1883
10663W        W26132   9.125  17.051  11.991  0.2931 -0.2851  0.0644
10664W        W26133  16.457   9.381   4.442 -0.2396  0.0671 -0.0442
10665W        W26134  16.793  12.897  11.886 -0.1088  0.0615  0.0061
10666W        W26135  17.024   2.299  13.485 -0.2893  0.1012  0.0859
10667W        W26136   2.042  16.883   4.882 -0.0382 -0.0769 -0.1572
10668W        W26137  17.264   2.494  10.945  0.0373  0.1050  0.1278
10669W        W26138  10.609  12.097  10.489 -0.1845 -0.0954  0.0552
10670W        W26139   6.436   6.632   0.632  0.1374 -0.1853  0.0354
10671W        W26140  16.338  18.240  13.247  0.2609  0.2943 -0.6359
10672W        W26141  14.079  17.377   1.592 -0.0500 -0.2753 -0.1686
10673W        W26142   2.888   0.285  12.929  0.2660 -0.4702 -0.2528
10674W        W26143   1.218   7.869  10.767  0.1280  0.0385 -0.4119
10675W        W26144  17.757  10.511  12.016  0.0008  0.1458 -0.0485
10676W        W26145  14.056   9.597   0.397  0.1010 -0.1504 -0.0807
10677W        W26146   3.251  17.362  10.917 -0.1051  0.1987  0.1964
10678W        W26147   1.721  18.929  11.566 -0.0549  0.1782  0.1138
10679W        W26148  14.394  18.445   4.446  0.1059  0.2458 -0.3709
10680W        W26149   2.348  13.854  12.392  0.1356 -0.1995  0.0479
10681W        W26150  14.396  15.091   0.405  0.0494 -0.0839  0.2568
10682W        W26151   9.789   1.807   4.299 -0.0303  0.0519 -0.2151
10683W        W26152   1.536   2.591  15.132  0.0040  0.1082  0.1587
10684W        W26153   6.546   5.258   1.517  0.2538  0.1786 -0.0070
10685W        W26154  10.053  11.968   1.929  0.0283  0.2437 -0.0100
10686W        W26155   5.808  12.105  13.506  0.4207 -0.1938  0.0696
10687W        W26156  14.190   9.969  15.222 -0.0342 -0.0887  0.1090
10688W        W26157   0.763  16.993   4.701  0.0181 -0.1358  0.4978
10689W        W26158  15.144   8.854  13.223 -0.0811  0.1218  0.2989
10690W        W26159  12.218   8.159   0.126  0.1649 -0.1499  0.0207
10691W        W26160  17.098   5.189  11.369  0.0047  0.3284  0.2470
10692W        W26161   7.397  17.165   3.771  0.2332 -0.1314  0.0200
10693W        W26162  11.477  12.477  11.357 -0.1055 -0.3011  0.1821
10694W        W26163  17.261  11.910  13.213  0.0237  0.2892 -0.2406
10695W        W26164  16.844  16.288  12.569 -0.0672 -0.1406 -0.2553
10696W        W26165  10.172   6.521   4.441 -0.0552 -0.1268 -0.0363
10697W        W26166  12.090  17.418   2.463  0.1117  0.1006  0.0128
10698W        W26167   3.382  14.109   4.190 -0.0555  0.0961 -0.2126
10699W        W26168  11.101   7.062  10.924 -0.2036 -0.1322  0.1253
10700W        W26169  10.861  17.167   1.870  0.0598  0.2122 -0.3826
10701W        W26170  12.780  14.539   4.209  0.0569 -0.2934 -0.0402
10702W        W26171   3.394  15.989   3.349 -0.0106 -0.0068  0.0469
10703W        W26172   0.161  18.938  11.206  0.1331  0.0414  0.1392
10704W        W26173   2.610   8.362  13.801  0.1347 -0.0496 -0.0184
10705W        W26174   9.050  18.482   2.902  0.1232  0.2724 -0.0718
10706W        W26175   2.525  15.751   2.354 -0.0748  0.0223 -0.0193
10707W        W26176  13.764  17.143  11.051 -0.2187  0.0764 -0.2083
10708W        W26177  18.837   4.155  12.357 -0.0126 -0.1576  0.0305
10709W        W26178   9.328   4.986  11.629  0.2103 -0.0045 -0.1906
10710W        W26179  15.709   3.467   4.294  0.0236 -0.3403 -0.2546
10711W        W26180  12.383   4.129  12.645  0.0539  0.0427  0.0284
10712W        W26181   7.522   9.567   0.402  0.0233  0.0781 -0.0304
10713W        W26182  10.114  10.010   3.018 -0.0334 -0.0820  0.1865
10714W        W26183   1.520   5.034   4.639 -0.2290  0.2527 -0.2308
10715W        W26184   2.095  12.172  10.989 -0.2337 -0.0218 -0.1696
10716W        W26185   6.961   3.311   5.398  0.1109 -0.0214 -0.1576
10717W        W26186   9.940   8.743  12.902  0.0859 -0.3069  0.1550
10718W        W26187   1.200   2.833   2.230 -0.1694 -0.2007  0.0623
10719W        W26188  16.261   4.151  15.168  0.1517 -0.0456  0.0044
10720W        W26189   9.942   6.172   1.500 -0.2672 -0.1563  0.1012
10721W        W26190  10.953   2.100  14.597 -0.0908 -0.1254 -0.1467
10722W        W26191  13.496  14.305  14.599 -0.2499 -0.1829 -0.1896
10723W        W26192   7.911  12.957  11.969 -0.1289 -0.2309 -0.1577
10724W        W26193   2.852   7.942  15.206 -0.1094 -0.1983  0.0731
10725W        W26194  16.680   3.206  13.153 -0.2809  0.0023 -0.3613
10726W        W26195  14.669  17.403   1.854  0.5414  0.1268  0.2877
10727W        W26196  17.888  18.826   5.348 -0.1331  0.0164  0.0590
10728W        W26197  11.951   1.721   4.370  0.0524 -0.2069  0.2366
10729W        W26198   9.652   6.892   0.340 -0.4318 -0.2915 -0.1319
10730W        W26199  17.809  13.981  11.504  0.1118  0.2392  0.1302
10731W        W26200   4.324   7.515   3.739  0.2099 -0.1443  0.0316
10732W        W26201  17.669   0.590  10.690 -0.2761  0.2423  0.0231
10733W        W26202   2.187  10.266  12.885 -0.0255  0.1064 -0.0977
10734W        W26203   8.817   2.544   0.397  0.1033  0.2979  0.2659
10735W        W26204  16.008   4.982   4.942 -0.4026 -0.1051  0.2754
10736W        W26205  10.633   9.246   0.692 -0.1387  0.1138  0.0264
10737W        W26206   6.169   1.895  14.931  0.0880  0.3141  0.0723
10738W        W26207  11.053  10.568   5.149 -0.1756  0.3260 -0.0414
10739W        W26208  10.769   3.701  12.505  0.1124  0.0957 -0.0033
10740W        W26209  10.142   6.887   0.463  0.3088  0.6240  0.0787
10741W        W26210   2.210  10.626   5.251 -0.3008  0.1623  0.1739
10742W        W26211  10.149  12.026   0.237  0.1850 -0.0649  0.1726
10743W        W26212   3.195  17.899   2.655  0.2116  0.0824  0.2477
10744W        W26213   2.034  13.908  13.883 -0.0147  0.2974 -0.0486
10745W        W26214   6.282   4.630   2.917 -0.0970 -0.5242 -0.0842
10746W        W26215  14.275   6.992  11.726 -0.0193 -0.2016 -0.0213
10747W        W26216  11.900   8.599   3.959  0.3319 -0.0056  0.2077
10748W        W26217  12.275   6.048  13.218 -0.1283 -0.0667 -0.0582
10749W        W26218   8.447   6.278  11.064  0.1941 -0.1418 -0.2485
10750W        W26219  16.411   7.006  14.081  0.0575 -0.1804  0.0486
10751W        W26220  11.749  13.952  13.661  0.2361  0.1484  0.1807
10752W        W26221   1.762   8.301   2.637 -0.1426 -0.2295  0.3967
10753W        W26222   6.350   6.318   0.094 -0.0899  0.2411 -0.0431
10754W        W26223  14.733  17.307   0.388  0.5178  0.3562  0.1824
10755W        W26224   5.165   1.901  10.376  0.2558  0.2233  0.0910
10756W        W26225  10.879   4.404  13.052  0.1134  0.2391  0.0217
10757W        W26226   8.641  18.025   4.656 -0.1308  0.2439 -0.1628
10758W        W26227  14.997  16.193  13.260 -0.0777 -0.1495  0.4146
10759W        W26228  13.564  18.091   2.221  0.0371  0.0522 -0.0934
10760W        W26229  17.464  14.101   1.214  0.0124 -0.3052 -0.0956
10761W        W26230   1.010  16.497  11.467  0.0370 -0.1935 -0.3454
10762W        W26231  14.670  10.263  11.093 -0.3638 -0.0011  0.2060
10763W        W26232  16.842  12.111  13.040  0.0958 -0.2644 -0.2790
10764W        W26233   5.874  13.347  13.670 -0.0132 -0.0581 -0.0023
10765W        W26234  11.106   3.329  11.179 -0.0700  0.1590  0.1940
10766W        W26235  16.557  11.223   3.782  0.0128 -0.0782 -0.1207
10767W        W26236   3.400  10.481   3.488 -0.0492 -0.1623  0.2700
10768W        W26237   7.356  14.141  12.752 -0.1343  0.0668  0.2351
10769W        W26238   9.558  12.592   2.042  0.0318 -0.1991 -0.3944
10770W        W26239   1.500  17.208  15.131  0.0156 -0.2913 -0.1170
10771W        W26240  16.131   1.553   3.139  0.2448  0.0118  0.0009
10772W        W26241  16.403   2.000  13.181  0.0506  0.0926  0.1525
10773W        W26242   7.749  15.533   2.710 -0.1357  0.0219  0.0150
10774W        W26243   7.654   4.437  10.965 -0.0421  0.2022 -0.2952
10775W        W26244   6.899  10.396  11.161  0.2887 -0.1685  0.2537
10776W        W26245  10.271  17.697   0.727 -0.2494  0.1890 -0.1318
10777W        W26246  18.233   5.152   1.054  0.1851 -0.2715 -0.1466
10778W        W26247   2.958   8.130  10.849  0.1504 -0.1570 -0.0889
10779W        W26248   7.608  15.078   3.526 -0.0736  0.1509 -0.1311
10780W        W26249  12.112  12.873   0.926  0.2581  0.0133 -0.0240
10781W        W26250   0.180  12.317   1.256  0.0184  0.1054 -0.3005
10782W        W26251   7.420  12.920  14.951 -0.0650 -0.1093 -0.3196
10783W        W26252  18.019   5.907   2.018  0.0079 -0.0617  0.1815
10784W        W26253  12.007   4.217   0.520 -0.1582 -0.3467  0.2464
10785W        W26254   4.067  10.320  11.862 -0.0815 -0.0109  0.2058
10786W        W26255  11.824   2.511  10.873 -0.1383  0.1070  0.1993
10787W        W26256   1.978  11.926   3.946 -0.3979  0.1060 -0.0757
10788W        W26257   8.215  14.074   1.289 -0.0832  0.0697 -0.0720
10789W        W26258   3.325  11.099   0.576  0.1553 -0.0804  0.1024
10790W        W26259   1.025  10.764   1.897  0.0237  0.0151 -0.1637
10791W        W26260   8.392   1.212   4.466 -0.0783  0.3731 -0.3770
10792W        W26261   3.074   9.579  14.440  0.2347 -0.1491 -0.2807
10793W        W26262  13.614   7.488  15.267 -0.2517 -0.0134 -0.1845
10794W        W26263   6.084   6.353   2.827  0.3740 -0.2330  0.0536
10795W        W26264  11.957  16.653   2.898 -0.2804  0.0948  0.0332
10796W        W26265  15.767   6.891  11.535 -0.0447 -0.4953  0.0228
10797W        W26266   7.098   1.380   5.402  0.2603  0.1267  0.0895
10798W        W26267   8.931   3.733  11.143  0.1402 -0.3593  0.1044
10799W        W26268  12.432   2.951  15.018 -0.3111 -0.0522  0.1585
10800W        W26269   1.798   0.922   3.732  0.3108 -0.0143  0.1853
10801W        W26270   6.148   0.510   0.479  0.1904  0.2433  0.2422
10802W        W26271   6.089   4.986  13.478 -0.0318 -0.0007  0.3529
10803W        W26272  16.180   3.708  11.246 -0.2335 -0.1160  0.0158
10804W        W26273  11.183   6.665   0.675 -0.0275 -0.1428  0.3161
10805W        W26274   6.229  13.690   2.834  0.1820 -0.3182  0.0347
10806W        W26275  15.749   6.334  13.045 -0.2116 -0.0503  0.0569
10807W        W26276  17.189   1.662   3.322  0.1987 -0.2835  0.2607
10808W        W26277  18.037  15.674   1.462 -0.2430  0.2485  0.3135
10809W        W26278  16.209   5.574  11.235  0.1352 -0.1998  0.2872
10810W        W26279  14.286   6.517   9.836 -0.2419  0.1938  0.0452
10811W        W26280   3.221  16.635  15.119  0.1522  0.0810  0.0275
10812W        W26281  10.464  11.840   1.636 -0.0843  0.1825  0.1507
10813W        W26282   4.826   8.523  11.702  0.2307  0.0444 -0.2145
10814W        W26283  15.868  15.490  12.341 -0.4295 -0.0218  0.2656
10815W        W26284   2.430  13.996  15.150 -0.1306 -0.1725  0.1470
10816W        W26285  11.842   3.905   1.933  0.2065  0.2119  0.3526
10817W        W26286  18.411   9.485   1.117 -0.2235 -0.0174  0.3688
10818W        W26287  15.936  15.171  11.319 -0.0813  0.1895 -0.0979
10819W        W26288  12.364  18.602   4.846 -0.1830  0.2418 -0.2159
10820W        W26289   9.044   9.904   1.974 -0.0284  0.2777  0.0718
10821W        W26290  15.232  14.603   3.751 -0.0532  0.1801  0.1494
10822W        W26291  11.834   5.670  15.343 -0.2171 -0.3538  0.2276
10823W        W26292   7.969   9.631   2.306  0.0719  0.1728 -0.4465
10824W        W26293   5.448   0.073  12.438  0.2760  0.0161  0.2277
10825W        W26294  18.718   5.664  10.485 -0.5310 -0.0136  0.0038
10826W        W26295   2.408   5.094   4.368 -0.1094  0.0523 -0.1076
10827W        W26296  18.590   3.372   0.259 -0.0502  0.0143  0.2152
10828W        W26297   9.263  18.717   0.075  0.0402 -0.0062  0.0683
10829W        W26298  10.253   6.067   5.168 -0.2496  0.0211 -0.2790
10830W        W26299  15.853  16.293   1.534 -0.0103  0.1063 -0.2784
10831W        W26300  15.949   7.324   2.473 -0.0246  0.3639 -0.0797
10832W        W26301   2.400  18.567  12.987 -0.3688  0.1564 -0.0583
10833W        W26302  11.405   8.175   0.574 -0.0065 -0.0908 -0.1108
10834W        W26303   9.121  16.747  13.166  0.2718 -0.0154 -0.2259
10835W        W26304  12.811  15.044   0.778 -0.2434  0.3102  0.2783
10836W        W26305   5.063   8.969  11.101  0.2823 -0.3308 -0.0810
10837W        W26306  12.711   9.340  15.075  0.1107  0.1159  0.0122
10838W        W26307   5.092  11.963   2.083  0.2826 -0.0189 -0.0414
10839W        W26308   0.685  15.870   5.618  0.3709 -0.1078 -0.0832
10840W        W26309  10.084  17.123  13.338 -0.0114 -0.0494  0.1704
10841W        W26310   3.810  18.871   5.284 -0.2187  0.1292 -0.2659
10842W        W26311  11.046   3.421   3.296  0.2664  0.2060 -0.1996
10843W        W26312  11.814   3.555  13.366  0.3864 -0.0296  0.0603
10844W        W26313   9.888   9.740  13.263  0.1103 -0.0333  0.0720
10845W        W26314  15.260   7.318  13.649  0.1429 -0.1624  0.0606
10846W        W26315  12.407  14.718   2.465 -0.1348  0.1241 -0.4702
10847W        W26316   0.142   1.420   4.829 -0.1677 -0.0377  0.2221
10848W        W26317  16.214   7.517   3.437 -0.3506  0.0045  0.5237
10849W        W26318   1.824   7.426  13.214  0.0730  0.1635  0.0438
10850W        W26319   2.009   5.227  11.440  0.0705 -0.0182  0.1154
10851W        W26320   8.952   5.604   3.323 -0.1584 -0.2921  0.1609
10852W        W26321  17.226  17.451   4.037 -0.0280  0.4685  0.0499
10853W        W26322   8.552  14.761  14.403  0.0685  0.0446 -0.0652
10854W        W26323  15.380   7.068   9.640  0.0146 -0.0964  0.1910
10855W        W26324  12.344  12.926  14.529  0.0547 -0.0286 -0.4522
10856W        W26325  18.491   8.990   2.106  0.3398 -0.0017  0.3200
10857W        W26326  16.846   8.977  10.925  0.2609  0.0982 -0.3892
10858W        W26327  16.229  13.203  12.621  0.2720 -0.0131  0.4240
10859W        W26328  15.927   8.247   0.560 -0.1837  0.1054  0.2490
10860W        W26329  12.911  12.652   4.361  0.2517 -0.2487  0.0514
10861W        W26330  17.929   9.539  14.445 -0.0771  0.0587  0.1523
10862W        W26331   0.554  17.768  11.413 -0.0838  0.2719 -0.0454
10863W        W26332  13.425  14.538   2.399 -0.0470  0.0277 -0.1944
10864W        W26333   8.398  18.752   4.430 -0.1658  0.1984  0.2396
10865W        W26334  14.839   8.930  15.009  0.0384 -0.0559 -0.0324
10866W        W26335  11.908  13.403   1.264 -0.0596 -0.2024  0.4040
10867W        W26336   7.396  17.826  15.098 -0.1231 -0.1970  0.2060
10868W        W26337   1.210   5.635  15.488  0.0592 -0.4995  0.0309
10869W        W26338   2.129  18.616   1.574 -0.0872 -0.0548 -0.1718
10870W        W26339  15.143  15.216  10.604 -0.0903 -0.0729 -0.0421
10871W        W26340  17.925   6.614  13.653 -0.0377 -0.2477  0.0740
10872W        W26341   3.186   8.896  13.514 -0.2097  0.0464  0.1184
10873W        W26342  18.633  13.740   0.130  0.1397  0.0836  0.3433
10874W        W26343   2.725   8.301  10.446 -0.2376 -0.0890 -0.3720
10875W        W26344  12.265  13.934   5.621 -0.0842 -0.3166 -0.2576
10876W        W26345   8.790   1.198   3.210  0.0128  0.1171 -0.4552
10877W        W26346  10.301   3.139  11.461  0.1194  0.0644 -0.2262
10878W        W26347  13.001  12.187   4.896  0.2274  0.0150  0.1378
10879W        W26348   3.356   1.588  11.992 -0.0973  0.0276 -0.1414
10880W        W26349   4.549   4.427  10.435  0.4994  0.0798  0.1251
10881W        W26350  12.039  16.924  12.801 -0.0850  0.2461 -0.0828
10882W        W26351   1.293   0.483  12.656  0.3327 -0.0634  0.3278
10883W        W26352  13.810   1.761  11.288  0.0731  0.0178 -0.2087
10884W        W26353   2.397   9.369  11.168 -0.1437 -0.2040 -0.2819
10885W        W26354   4.253   1.035   5.736 -0.0304  0.0562 -0.1166
10886W        W26355  18.148   6.919   0.973  0.0924 -0.0865  0.0029
10887W        W26356  13.931  12.836   4.996 -0.2492  0.2203 -0.2933
10888W        W26357   7.906   4.942  13.340  0.0271 -0.5321  0.0119
10889W        W26358   6.171  14.148  12.280 -0.1331  0.3346  0.0136
10890W        W26359   8.629   9.171  11.796  0.1038  0.1404 -0.1941
10891W        W26360   8.286   0.619   0.391 -0.0529  0.2122 -0.1231
10892W        W26361   4.062  10.558  12.326  0.0831 -0.0696 -0.3520
10893W        W26362   6.334  11.907   1.461  0.0223 -0.0573 -0.3306
10894W        W26363  13.025  12.527   0.060 -0.0492 -0.5255  0.0915
10895W        W26364  18.634  14.233  14.469 -0.0792 -0.0417 -0.0628
10896W        W26365  14.204  13.074  10.874  0.3677  0.2460  0.3963
10897W        W26366   5.442   3.342  12.942 -0.1696 -0.1210 -0.0072
10898W        W26367  10.024  11.081   2.996  0.3135 -0.0116  0.4401
10899W        W26368   6.960  14.149   4.320 -0.0334 -0.3639 -0.1422
10900W        W26369  14.489   8.919  13.875  0.0716  0.0575 -0.0429
10901W        W26370  17.822   7.867   4.165  0.0779 -0.2029  0.0231
10902W        W26371   9.040  12.125   0.169 -0.0886 -0.1209  0.1665
10903W        W26372   0.856   5.404  13.931  0.1208  0.2745 -0.0968
10904W        W26373   9.822   5.610  14.435 -0.3492 -0.0954  0.1012
10905W        W26374   2.775   9.622  15.451 -0.1711 -0.1562  0.1965
10906W        W26375   2.863   3.429   4.764  0.3911  0.1824 -0.1614
10907W        W26376  13.245  14.561  12.740  0.1230  0.0378 -0.1975
10908W        W26377   7.950  10.097  14.892 -0.0205  0.2237  0.1872
10909W        W26378   3.467   5.537   0.749 -0.1880  0.5490  0.1868
10910W        W26379   0.606  13.311  14.454 -0.0828  0.4314  0.5051
10911W        W26380   2.493  11.816   1.075 -0.1370  0.0236 -0.2273
10912W        W26381   5.507   1.086  14.956 -0.1876  0.2649  0.2780
10913W        W26382  14.406  17.466  14.968  0.2901  0.0815 -0.0638
10914W        W26383  10.045  14.887   1.809  0.3125  0.1279 -0.3035
10915W        W26384   7.174  14.717   2.933 -0.2148 -0.0111  0.1675
10916W        W26385  13.055   2.359   0.583 -0.3291 -0.4114 -0.0474
10917W        W26386   3.277   7.240  14.109 -0.1191 -0.0587  0.2275
10918W        W26387  11.779   1.348  10.323  0.1039 -0.0434  0.1713
10919W        W26388   5.676  12.370   2.617  0.1693  0.2690 -0.0146
10920W        W26389   0.893  14.242   0.281  0.2147  0.1724  0.3452
10921W        W26390  11.329  13.664   0.071 -0.0265 -0.1632  0.2771
10922W        W26391   2.120  18.842  11.890 -0.2017 -0.1848  0.3572
10923W        W26392  10.237   3.491   2.870  0.2282 -0.0612  0.2392
10924W        W26393  14.098   9.441  10.982 -0.0788 -0.1094 -0.1728
10925W        W26394   1.693   2.141  13.623 -0.1359  0.1786 -0.3766
10926W        W26395   2.401  18.677   5.150 -0.0375 -0.1745 -0.1187
10927W        W26396  11.661  11.676  14.767  0.1510  0.0242  0.3895
10928W        W26397  18.330  14.985  11.042  0.3345 -0.0515  0.1082
10929W        W26398   7.310   3.873  10.263  0.0553  0.0985  0.3831
10930W        W26399   5.126   2.730  10.784  0.1145  0.1948 -0.0754
10931W        W26400   1.971   7.374   0.183  0.0649 -0.3340  0.3739
10932W        W26401   4.605  10.872   2.272  0.0233  0.1016 -0.0931
10933W        W26402  16.916  17.707  15.441 -0.1370 -0.0646  0.4869
10934W        W26403   5.713   0.674  11.375 -0.0142  0.1953 -0.1967
10935W        W26404   6.879  14.893  12.216  0.0659  0.1184  0.0786
10936W        W26405  15.813  15.654   5.357 -0.0415 -0.2692  0.1545
10937W        W26406   5.713   4.934   4.324 -0.0254 -0.0166  0.0465
10938W        W26407   5.851  10.315  13.728  0.3143  0.1093  0.0127
10939W        W26408  16.999  17.670  13.448  0.1612 -0.0246 -0.1264
10940W        W26409   6.729  10.250  14.311 -0.0699  0.0982 -0.3635
10941W        W26410  13.395   5.783   0.541  0.2309 -0.2726  0.1967
10942W        W26411   0.370   4.958  12.815 -0.0003 -0.1557 -0.2523
10943W        W26412  16.154   7.069   3.536 -0.1640  0.1353  0.2334
10944W        W26413   3.286   4.992  11.563 -0.0766 -0.4594  0.0717
10945W        W26414  17.503  10.171  13.381  0.1316  0.0010  0.0919
10946W        W26415   7.188   0.495  13.701 -0.3713 -0.0059 -0.2000
10947W        W26416   8.239   8.472   2.582  0.0945 -0.2569 -0.1108
10948W        W26417  14.106   0.189   0.777 -0.2047  0.1256  0.1043
10949W        W26418  12.621   5.322   0.263  0.2009  0.0350  0.1021
10950W        W26419  14.901   3.344  11.680  0.3406  0.0010  0.1266
10951W        W26420  10.120   6.277  13.789 -0.0130  0.1782 -0.0246
10952W        W26421  12.859   6.030   4.747  0.0773 -0.2252  0.0915
10953W        W26422   3.341   5.916   2.618  0.0657  0.1510  0.0026
10954W        W26423   4.080   9.085   2.395  0.0646  0.1250 -0.1056
10955W        W26424   0.260  15.053  14.656  0.1476  0.2861 -0.1181
10956W        W26425  15.146   3.369   3.526 -0.1120  0.0543  0.4081
10957W        W26426   6.212   6.886   2.738  0.1409  0.2416  0.2489
10958W        W26427  12.216  13.948   2.814  0.2414  0.0356  0.1581
10959W        W26428  18.703   4.118   3.596  0.0899  0.0071 -0.1305
10960W        W26429  12.130  12.051  13.070  0.3448  0.0807  0.1536
10961W        W26430   2.981   9.932   0.830 -0.0576  0.4106  0.0748
10962W        W26431  13.632   2.662  15.052  0.2619  0.1770  0.2840
10963W        W26432   6.752   4.485  11.440  0.0540 -0.5235 -0.1540
10964W        W26433  14.521  12.009  11.247 -0.0445 -0.0945  0.2780
10965W        W26434   9.932  11.629  10.867  0.0136 -0.1327 -0.0739
10966W        W26435  15.751   2.772  14.911 -0.0796  0.1861  0.1024
10967W        W26436  12.912  14.098   9.646 -0.2033 -0.1453 -0.1879
10968W        W26437   2.050  15.039  14.009  0.1043 -0.1615  0.1455
10969W        W26438  15.464  17.787  11.926 -0.2791  0.3106  0.1668
10970W        W26439   8.194  16.480   5.149  0.1294 -0.2176 -0.3063
10971W        W26440  12.356   2.103   1.609 -0.2547  0.0653  0.3323
10972W        W26441   9.237  17.087  12.563  0.1157  0.0444 -0.1992
10973W        W26442   6.428   0.500   0.006 -0.3846  0.0550 -0.1044
10974W        W26443   0.611  11.862  15.419  0.0256  0.2185 -0.2686
10975W        W26444  10.383  17.775  13.132  0.1376 -0.3779 -0.0925
10976W        W26445   8.901  12.315  12.400  0.0500  0.2831 -0.1355
10977W        W26446   9.377   3.760  10.882 -0.0472  0.0534 -0.0111
10978W        W26447   6.778  15.293   0.289  0.2728 -0.2978  0.2071
10979W        W26448  13.153  15.787   5.585 -0.3356  0.1506  0.2831
10980W        W26449  12.142  12.353  11.220 -0.0111  0.3234  0.0652
10981W        W26450   1.621  15.138   0.214 -0.4555  0.1104  0.1238
10982W        W26451   2.757  18.509  10.187  0.1951 -0.1583 -0.1324
10983W        W26452   4.390   6.958   3.696 -0.3371  0.1115 -0.0430
10984W        W26453  15.995  15.335  10.805 -0.0323 -0.1141 -0.0531
10985W        W26454   1.959  15.956  10.711  0.2058  0.2805  0.0384
10986W        W26455  12.328  18.312  11.794 -0.2803  0.1048 -0.0891
10987W        W26456   0.095   7.972   2.070 -0.2158  0.1267 -0.3059
10988W        W26457  16.601  10.200   2.948 -0.1096 -0.3877 -0.1968
10989W        W26458  10.680  11.937   0.658 -0.0355  0.3963  0.2400
10990W        W26459   4.216  11.743  12.976  0.0161  0.0901 -0.1700
10991W        W26460  13.537   5.265  10.808  0.1484 -0.0259  0.1373
10992W        W26461  11.284  14.396  12.913 -0.1815 -0.1315  0.0025
10993W        W26462  14.907   1.260  15.423 -0.1284 -0.0344  0.1340
10994W        W26463  15.935   3.982  13.183 -0.1351  0.0489 -0.2160
10995W        W26464  10.485   7.192  10.899 -0.1000 -0.2341  0.0121
10996W        W26465   9.840  14.034   1.885  0.2036 -0.4968  0.0107
10997W        W26466  14.491  16.959  14.710  0.1314  0.1422 -0.0850
10998W        W26467   8.898   0.494  14.501  0.1797  0.1759  0.0132
10999W        W26468  17.865  17.419  13.597  0.1507 -0.0769 -0.0890
11000W        W26469   7.828   8.549   0.885 -0.0728 -0.0630  0.3159
11001W        W26470   8.978   5.038   5.485  0.1415  0.1785  0.0382
11002W        W26471   8.497   9.644   4.406 -0.1042 -0.3533  0.1619
11003W        W26472  16.934  18.053   4.903 -0.0128 -0.1851  0.2649
11004W        W26473   7.605   4.680  14.987  0.0795  0.1338  0.0755
11005W        W26474   6.638   9.408   1.664  0.1006  0.0209  0.0234
11006W        W26475   6.645   6.755  14.740  0.2430 -0.2473 -0.1822
11007W        W26476   9.177   8.963  14.526  0.2747 -0.2851 -0.1161
11008W        W26477   2.748   2.192  12.674  0.0073  0.3455 -0.3294
11009W        W26478   6.933   8.180   0.385 -0.0140  0.1894 -0.3424
11010W        W26479  14.106   7.257  13.185 -0.0884  0.0203  0.1068
11011W        W26480   5.394  14.024  13.419  0.1979 -0.3107  0.0801
11012W        W26481   8.795   9.200   0.954  0.2211 -0.3138 -0.0761
11013W        W26482  12.886   2.748  15.349 -0.0472  0.3796  0.1424
11014W        W26483  13.985   1.787  12.963  0.2228  0.0237 -0.1282
11015W        W26484  15.118  13.560   1.042 -0.0256 -0.3263 -0.0887
11016W        W26485  11.439  14.132   2.403  0.1966  0.0851 -0.1586
11017W        W26486   1.339   7.567  15.020  0.1847 -0.6185  0.0429
11018W        W26487   8.062   7.875   4.102  0.3306  0.2239 -0.1197
11019W        W26488  13.566   5.673  13.291 -0.1118  0.4813 -0.2229
11020W        W26489  13.228  17.668  12.703  0.1305  0.3299 -0.1551
11021W        W26490  10.866   5.544   1.321  0.0760 -0.1498 -0.0402
11022W        W26491  10.805   6.754  10.651  0.1791 -0.1224  0.6710
11023W        W26492  10.675   3.716   9.673  0.0313 -0.0394 -0.2789
11024W        W26493  18.757  17.514   1.649 -0.0694  0.0250 -0.3123
11025W        W26494   3.760   0.146   0.768 -0.0539  0.1322 -0.3454
11026W        W26495   9.811   4.903  11.358  0.0318  0.0159  0.0318
11027W        W26496   9.056   4.017   4.151 -0.1571  0.2137 -0.0581
11028W        W26497   2.215  17.177   1.290 -0.1911 -0.1660  0.1048
11029W        W26498   8.617   6.308  13.705  0.1506 -0.0337 -0.0957
11030W        W26499  11.721   3.752   3.349  0.1756  0.0839  0.0101
11031W        W26500  16.923   1.397   1.075  0.1316  0.0765  0.1702
11032W        W26501   1.357   8.405  13.878 -0.0936  0.1346 -0.1040
11033W        W26502   4.368   2.341  14.126 -0.0676  0.2308 -0.0893
11034W        W26503   1.694  18.625   2.979 -0.0307  0.1882  0.0055
11035W        W26504  17.590  12.553  11.986 -0.2559 -0.0383  0.4591
11036W        W26505   1.071  15.594   4.019  0.0395 -0.1751  0.2771
11037W        W26506   9.252  10.008   2.535  0.0432  0.1122 -0.0274
11038W        W26507   9.353  12.265   4.397 -0.1201  0.0687 -0.3157
11039W        W26508   0.537  15.541   3.083  0.0162  0.0237  0.0104
11040W        W26509   8.552   6.908   0.226 -0.3571 -0.1701 -0.1007
11041W        W26510  14.828   8.614   1.123 -0.0088  0.0460 -0.0998
11042W        W26511  16.778  14.562   2.949  0.1739 -0.1257  0.0651
11043W        W26512   7.273  12.059  14.977  0.0665 -0.3096 -0.0607
11044W        W26513  17.983   5.337  11.586  0.5203  0.3410  0.0640
11045W        W26514   1.673  10.312  11.865 -0.0391  0.0797 -0.1146
11046W        W26515  18.287   9.698   2.868 -0.1428 -0.3512  0.1839
11047W        W26516  14.478   7.548  12.954  0.2662  0.2320 -0.1175
11048W        W26517  18.614  16.090  14.876 -0.3284  0.1624  0.2316
11049W        W26518  18.269  10.868  13.125 -0.0942  0.0282  0.1105
11050W        W26519   8.429   7.920  10.481 -0.0655 -0.1005  0.2567
11051W        W26520  17.023   6.933  12.904  0.2354  0.0818 -0.1377
11052W        W26521  18.517  17.512  15.306  0.0140  0.2193 -0.0691
11053W        W26522   1.637  15.267  13.015  0.0069 -0.1229 -0.3892
11054W        W26523   0.108  17.953  11.221 -0.2124  0.0122 -0.1541
11055W        W26524  17.941   3.243  15.177 -0.0999 -0.0111  0.0478
11056W        W26525   8.140  10.406   3.285  0.1446 -0.1360 -0.1255
11057W        W26526   7.074   5.941   1.748  0.0040 -0.1826 -0.1919
11058W        W26527  18.743  18.687   2.856 -0.2703  0.3401  0.1481
11059W        W26528  17.997   4.266   1.060 -0.1119 -0.2613 -0.0447
11060W        W26529  14.072   5.247   0.975  0.1505 -0.0675 -0.2546
11061W        W26530  12.433   3.318   0.300  0.0080 -0.1240  0.3508
11062W        W26531   3.022  18.180   0.287  0.1666  0.2203  0.3112
11063W        W26532  17.180   5.503   1.183  0.0624  0.1959  0.3887
11064W        W26533   2.281   0.098   1.789 -0.1240 -0.0911 -0.4467
11065W        W26534   8.720  15.551   1.409  0.1487 -0.1354  0.0090
11066W        W26535  17.783  15.577  11.870  0.3332 -0.3638 -0.2300
11067W        W26536   7.485  13.302  15.335 -0.0748 -0.0393 -0.0676
11068W        W26537   1.755   6.570  11.754 -0.2714  0.4298 -0.1185
11069W        W26538  18.433  13.795  13.257  0.1883 -0.1974 -0.0441
11070W        W26539  12.984   9.338  14.068  0.1221 -0.1222  0.1391
11071W        W26540   9.320   8.490   2.371  0.1252 -0.2398  0.1566
11072W        W26541  12.585  11.580  14.130  0.1057 -0.2070 -0.1804
11073W        W26542  12.301  18.618   4.094  0.0967  0.1352  0.2327
11074W        W26543  10.294   9.320  12.045 -0.3207 -0.1037 -0.2091
11075W        W26544   7.274   9.480   1.754 -0.0709  0.3142  0.0640
11076W        W26545   3.849   9.384  14.795 -0.0940 -0.0883  0.1061
11077W        W26546   8.263  16.980   2.613 -0.0258 -0.1356  0.0782
11078W        W26547  12.993  11.742   2.802  0.0887 -0.0436 -0.0506
11079W        W26548   0.485   2.252  13.150  0.2550 -0.0176 -0.2180
11080W        W26549  14.615  10.754  10.937 -0.1324  0.2661 -0.0859
11081W        W26550   8.147  11.022   2.451  0.0293 -0.1646 -0.0502
11082W        W26551  15.828   0.990  13.775 -0.0266  0.0933  0.0604
11083W        W26552  10.650  17.727  12.166 -0.5590  0.0946 -0.2813
11084W        W26553   0.551  16.788   1.395 -0.0174  0.3452 -0.0842
11085W        W26554  10.557   0.840   0.289 -0.3727 -0.0742  0.2767
11086W        W26555  12.021  10.009   0.003 -0.1974  0.0224 -0.0465
11087W        W26556   2.195   9.411  13.175 -0.0319 -0.3155 -0.2219
11088W        W26557  11.472  13.869  12.234 -0.1198  0.2659 -0.2356
11089W        W26558  17.308   5.968   9.809 -0.1669  0.0044  0.2481
11090W        W26559   0.523  14.988  12.250  0.1301 -0.1461  0.0642
11091W        W26560   4.036   4.819   2.358 -0.1239  0.0466  0.0052
11092W        W26561   2.949   1.914   1.270  0.2392 -0.5188 -0.0116
11093W        W26562   5.951  13.665   3.516 -0.3638  0.0773  0.0454
11094W        W26563   6.818   5.457   0.546  0.1925  0.3765  0.0111
11095W        W26564  18.930  17.908  13.001 -0.1107  0.0301  0.3403
11096W        W26565  15.660   7.507  14.449 -0.0168 -0.0882 -0.4145
11097W        W26566   4.248   3.022   2.941 -0.2948  0.3163 -0.0269
11098W        W26567   0.896  14.629  15.466 -0.2442  0.1538 -0.0255
11099W        W26568  13.671  11.506   3.263  0.1962 -0.2433  0.0728
11100W        W26569  16.387  12.722   0.372 -0.1873 -0.1262  0.2811
11101W        W26570   8.049  10.723  13.065 -0.2201 -0.0998 -0.0179
11102W        W26571  16.408   3.275   3.650 -0.0862  0.1122 -0.0219
11103W        W26572   2.471   7.531   0.434  0.0115  0.0989  0.1635
11104W        W26573  17.473  12.927  12.654  0.1175 -0.2078 -0.2014
11105W        W26574   5.670  16.503   1.600 -0.0755  0.1905  0.1809
11106W        W26575  11.289  15.615  14.271 -0.1064 -0.2189  0.0159
11107W        W26576   5.976   0.763   3.598 -0.2110  0.2236 -0.1883
11108W        W26577   5.888   8.647  13.170 -0.0617  0.1384 -0.0600
11109W        W26578  12.085   5.516   0.962 -0.0365  0.3290  0.1373
11110W        W26579   6.838   8.313   2.041  0.0072 -0.0886 -0.0979
11111W        W26580   9.252   6.726   3.991  0.1290  0.4657  0.3830
11112W        W26581  14.702   9.997  15.003  0.3256 -0.0809 -0.1625
11113W        W26582   6.894   2.652  10.397 -0.2622  0.0465 -0.2322
11114W        W26583   6.933   5.175  12.873  0.1755  0.0286 -0.1055
11115W        W26584   7.623   3.668  11.875 -0.1421  0.0238  0.3359
11116W        W26585   9.887  13.128  11.647  0.3985 -0.2721 -0.0163
11117W        W26586   9.611  12.515  14.010  0.0362  0.2209  0.0017
11118W        W26587  13.454  10.130   2.869 -0.0641  0.1437  0.2163
11119W        W26588  13.718  11.665   5.546 -0.0771  0.0670  0.0941
11120W        W26589  18.923  10.019   3.392 -0.4076 -0.1932  0.2501
11121W        W26590   5.975   6.651   4.779 -0.0416  0.0104  0.0583
11122W        W26591  13.722  11.501   4.650 -0.0154  0.4730  0.1524
11123W        W26592  17.203   0.389   2.844  0.1721  0.0265  0.0418
11124W        W26593   1.226  10.516   2.409  0.1542  0.3035 -0.0979
11125W        W26594   4.713   5.367  15.356 -0.0442 -0.0262  0.0023
11126W        W26595   6.270   5.230  13.863 -0.1072 -0.1070  0.1294
11127W        W26596   9.215   7.993  13.426 -0.0286 -0.1927  0.0396
11128W        W26597  14.281  10.168  12.603  0.0907  0.1057  0.0549
11129W        W26598  14.172  12.403  11.197 -0.0500 -0.0163  0.3535
11130W        W26599   2.611  17.017   4.684 -0.2513  0.0867 -0.5706
11131W        W26600   3.052  14.517   5.874  0.0561  0.0837 -0.1720
11132W        W26601   3.078   2.190   2.492  0.0600 -0.0916  0.0666
11133W        W26602   9.120   8.261  11.386  0.0980 -0.0777  0.0214
11134W        W26603   6.251   4.231  10.314 -0.1674 -0.1616 -0.0804
11135W        W26604  10.942   2.183   4.970 -0.1332  0.0146  0.2803
11136W        W26605   1.097  15.274  12.857 -0.1378 -0.1892 -0.3797
11137W        W26606   5.466  10.212  14.516 -0.1510  0.2605  0.1138
11138W        W26607  16.622   0.135  13.095  0.0833  0.1833 -0.0894
11139W        W26608   7.465  10.376  14.720 -0.1951  0.0718 -0.0259
11140W        W26609   1.702   3.659  13.312  0.1100  0.0030  0.0185
11141W        W26610  14.794  12.600  12.941 -0.0564  0.0027  0.0867
11142W        W26611   5.699   9.826  15.494 -0.0565 -0.0992 -0.1787
11143W        W26612  18.902  11.443   2.778 -0.0841 -0.5255 -0.0198
11144W        W26613  15.544   2.995   4.517 -0.0639  0.0733  0.0460
11145W        W26614  11.957  12.633  13.539 -0.1124  0.0261 -0.0272
11146W        W26615   2.297  14.735   3.381 -0.1590 -0.1693  0.1275
11147W        W26616   6.474   4.586  14.561  0.0657 -0.1077 -0.1238
11148W        W26617   0.967  18.029  15.070 -0.1084  0.1735  0.0030
11149W        W26618  16.318   0.689  15.061 -0.1315  0.4355 -0.0633
11150W        W26619   2.423  17.662   1.165 -0.0017  0.0239 -0.2832
11151W        W26620  10.862   5.269  11.306 -0.2600  0.1245  0.2195
11152W        W26621   9.327  17.811  12.240  0.2151  0.0355 -0.4987
11153W        W26622   7.445  15.602  15.469  0.0851  0.0345  0.0476
11154W        W26623   4.372  12.831  12.608  0.0261  0.0204 -0.1209
11155W        W26624  14.198  12.234   6.186 -0.1699 -0.3624 -0.1998
11156W        W26625   4.063  18.190   4.401 -0.2318  0.1214  0.1210
11157W        W26626   4.233  12.169   5.497  0.1466  0.1184  0.1618
11158W        W26627  10.565  12.331   4.634  0.2798 -0.1750 -0.0948
11159W        W26628   9.353   1.268   0.607 -0.2496 -0.0400  0.2455
11160W        W26629  10.750   1.340  12.286  0.0612  0.2062 -0.3207
11161W        W26630   7.746   8.575  14.294  0.1088 -0.0125  0.1940
11162W        W26631   8.238  11.977   9.541  0.3570  0.1115  0.0424
11163W        W26632  16.303   4.124   2.983 -0.2462  0.3942 -0.0216
11164W        W26633   8.225   9.298  12.611  0.0442 -0.4425 -0.5021
11165W        W26634  11.880   2.128  13.304  0.4769  0.3046 -0.0191
11166W        W26635   0.877  13.294  10.458  0.0488  0.1438 -0.1929
11167W        W26636  13.770   8.295  10.671 -0.1593  0.1020  0.0304
11168W        W26637   8.679   3.563   5.566 -0.0465 -0.0642 -0.2867
11169W        W26638   0.067   5.903   2.884  0.0654  0.2427 -0.1611
11170W        W26639   5.917  17.637  12.441 -0.1162  0.0647 -0.0632
11171W        W26640  14.769   6.510  12.377  0.1739  0.1434 -0.3255
11172W        W26641  17.111   2.578   0.559 -0.2131  0.0962  0.1407
11173W        W26642  16.116   7.527  12.811  0.0951 -0.2724  0.2489
11174W        W26643   8.660  16.248  12.384 -0.3459 -0.2930  0.0617
11175W        W26644   6.417  17.071   5.281  0.0074  0.1731  0.1085
11176W        W26645  13.300  17.863   0.008  0.2030  0.0182 -0.2647
11177W        W26646  10.140   7.572  11.081 -0.0266 -0.0395 -0.1554
11178W        W26647   2.298  12.935   4.777  0.2649  0.0122  0.1968
11179W        W26648   7.125  11.432  11.837 -0.3941 -0.1524 -0.3665
11180W        W26649   5.582   5.211   4.833 -0.0171 -0.1222  0.0947
11181W        W26650  10.960   7.969   1.011 -0.1427 -0.2128 -0.1396
11182W        W26651   6.397   3.466  14.027 -0.0488 -0.1201 -0.0965
11183W        W26652   4.712  13.917  14.685  0.0945  0.0942 -0.0713
11184W        W26653   1.234  17.341   5.276  0.1350  0.1840 -0.0513
11185W        W26654  15.180   2.206   5.782 -0.1068  0.2030  0.1834
11186W        W26655  13.390   0.502   2.894 -0.0278  0.0293 -0.1366
11187W        W26656   3.537  17.453  15.451 -0.0470  0.0315 -0.2282
11188W        W26657  11.680   1.068  14.914  0.0340  0.0388 -0.4851
11189W        W26658  16.907  17.779   2.712 -0.2278  0.2026  0.4213
11190W        W26659  13.644   6.054  11.925 -0.2753  0.0679  0.0925
11191W        W26660  15.619  14.943  14.746 -0.2531 -0.2594  0.1533
11192W        W26661   9.053   8.614   4.308  0.1353 -0.0502 -0.1784
11193W        W26662  13.665   6.787   3.330  0.0551  0.1228  0.3407
11194W        W26663  14.020   5.017  15.230 -0.1993  0.1131 -0.1194
11195W        W26664   8.134  12.515  11.749  0.1834 -0.1020  0.4219
11196W        W26665   3.787  12.851   1.172 -0.0636 -0.1089 -0.1256
11197W        W26666   0.196  14.225   4.046 -0.4180 -0.0408  0.1364
11198W        W26667  11.853  11.195   1.678  0.5037 -0.1005 -0.1542
11199W        W26668   7.563  11.487   0.644 -0.2359 -0.1183 -0.4476
11200W        W26669   5.858  17.127  13.102 -0.3151 -0.2928  0.0400
11201W        W26670   6.884   0.896   0.017  0.0629  0.2490 -0.0146
11202W        W26671  15.953   4.803  12.225  0.0739 -0.1592 -0.2418
11203W        W26672   0.493   6.610  12.461  0.2192 -0.2620  0.3101
11204W        W26673  16.036   6.082  11.175 -0.2216 -0.0466  0.3090
11205W        W26674  10.122   2.172   2.430 -0.1549  0.0018  0.0190
11206W        W26675   2.562  16.321  11.950  0.3540 -0.0886 -0.3396
11207W        W26676   5.878   1.622   4.099  0.3021  0.0076 -0.2092
11208W        W26677  16.642   3.758  10.793  0.0386  0.0074  0.0310
11209W        W26678   2.048   8.995  11.050  0.0307 -0.0608  0.1721
11210W        W26679  17.548  10.631  14.940  0.1525  0.1430  0.1139
11211W        W26680  14.539   2.898  12.404  0.1866  0.0465  0.4833
11212W        W26681  14.918  14.852   1.923 -0.0363  0.1451 -0.0807
11213W        W26682   5.098   2.045   3.505  0.0619  0.4158 -0.2502
11214W        W26683   4.739   8.723  13.692 -0.2770 -0.2344  0.0034
11215W        W26684   8.005  11.551   4.214 -0.2838 -0.6036  0.0256
11216W        W26685  18.371  12.617  14.956 -0.1384  0.2922 -0.0245
11217W        W26686   3.947   4.131   1.510 -0.1465 -0.0189  0.0572
11218W        W26687   1.336   9.733  14.729 -0.0286  0.3095  0.0955
11219W        W26688  16.978   8.616   5.179 -0.1026 -0.1281  0.1140
11220W        W26689   3.220   4.672  14.316 -0.1128  0.1913  0.3348
11221W        W26690   6.536   5.849   2.776 -0.0502  0.0327  0.0754
11222W        W26691  10.093   1.179   3.388 -0.0980  0.0767  0.3116
11223W        W26692   2.528  11.057   1.204  0.0748  0.0070  0.0539
11224W        W26693   2.019  15.831  12.867  0.2664 -0.1149  0.0623
11225W        W26694   1.165  18.615   0.312 -0.0000 -0.1284 -0.1310
11226W        W26695   0.021  18.814  14.783 -0.4600 -0.1255 -0.0086
11227W        W26696   5.489   6.504  11.405 -0.0382  0.1341 -0.3745
11228W        W26697   0.135  15.630  11.774 -0.0500 -0.0040  0.0492
11229W        W26698   7.268   8.507  10.658 -0.0406  0.1369 -0.0570
11230W        W26699   3.167   8.007   3.474  0.1673  0.0130 -0.0435
11231W        W26700  10.348   1.580   3.200 -0.0980 -0.3113 -0.1183
11232W        W26701   3.365   2.138  12.183  0.0072 -0.2333 -0.0521
11233W        W26702   2.719  17.771  13.195  0.0556 -0.2109 -0.0435
11234W        W26703  13.346   2.665   0.081 -0.0826 -0.0347 -0.3137
11235W        W26704  15.869  16.036   0.092 -0.0866  0.3280  0.1383
11236W        W26705   2.463   4.732   0.691 -0.3105  0.2611 -0.2310
11237W        W26706   3.978  16.745  12.337 -0.1288  0.1940 -0.1919
11238W        W26707   1.028  13.002  13.276  0.0757  0.2026 -0.1710
11239W        W26708  13.996  13.951  11.743  0.3276 -0.0574 -0.1107
11240W        W26709  17.448   0.243   3.862 -0.1978  0.1472  0.0441
11241W        W26710   9.039  14.852  12.609  0.1182  0.2464  0.1406
11242W        W26711  10.081  14.466  13.964 -0.1178 -0.0601  0.1150
11243W        W26712  14.525  11.944  12.361 -0.1647 -0.1443  0.3247
11244W        W26713  14.433   8.189   2.268  0.1869 -0.2096  0.0870
11245W        W26714   8.128   8.200  13.146 -0.1235 -0.2485 -0.0648
11246W        W26715  16.799  18.249  10.890  0.0838  0.0495  0.3672
11247W        W26716   4.047   4.339   2.698  0.1067  0.0626  0.1760
11248W        W26717  16.179   5.627  13.079 -0.1903  0.3997 -0.2610
11249W        W26718   7.688   7.774   1.677 -0.0799  0.2539  0.4134
11250W        W26719  15.368  10.820   1.341 -0.3130 -0.2406 -0.2574
11251W        W26720  10.689  11.901   2.504 -0.0605  0.2712  0.1093
11252W        W26721   6.818   4.266   2.495 -0.2727 -0.2933  0.1360
11253W        W26722   9.912   4.982  10.870  0.0320 -0.2511 -0.0707
11254W        W26723   7.856  15.735   3.170 -0.1226 -0.2833 -0.0337
11255W        W26724  14.741   4.616  12.303  0.1253  0.1925 -0.2348
11256W        W26725  10.851   1.076   2.101  0.0044  0.2325 -0.0905
11257W        W26726   1.204   5.163   2.083 -0.0261 -0.1124 -0.0409
11258W        W26727   6.120  11.347  12.858  0.0853  0.2835  0.3057
11259W        W26728   7.690  16.445  14.293  0.1051  0.1615  0.0115
11260W        W26729  13.920   1.600  10.771 -0.0487  0.0575  0.2179
11261W        W26730  17.672   3.429  14.061 -0.3717  0.1347  0.2170
11262W        W26731   0.594  14.244   5.427 -0.1736 -0.0413 -0.1293
11263W        W26732  11.580   2.370  11.807  0.0966 -0.1029 -0.2111
11264W        W26733  18.117  15.659   5.953  0.0476 -0.0348  0.0843
11265W        W26734  17.042   3.162   4.131 -0.0615 -0.2845 -0.1154
11266W        W26735  12.278  15.242   5.012 -0.0709 -0.2223 -0.1983
11267W        W26736   3.973   1.722  14.991 -0.2731 -0.0132  0.0774
11268W        W26737  12.763  10.113  14.145 -0.0885 -0.0871  0.0576
11269W        W26738   5.794   8.983  13.737 -0.0914 -0.0889  0.0940
11270W        W26739   0.568   8.227   2.760  0.2277  0.0031 -0.0740
11271W        W26740  15.166  16.276  12.315 -0.0874 -0.0527  0.1854
11272W        W26741  18.888  17.580   3.049  0.1519 -0.0524 -0.2466
11273W        W26742   2.258  17.974   2.600 -0.2796  0.0515  0.0426
11274W        W26743  12.980  17.390  15.435  0.1844 -0.1748  0.0478
11275W        W26744  16.931  10.900   0.776  0.0659  0.1318  0.3102
11276W        W26745   6.929   3.115  10.163 -0.1592 -0.1168 -0.2174
11277W        W26746   2.115   5.705  13.503  0.0010  0.1221 -0.1037
11278W        W26747   6.092   5.433   0.027  0.0565 -0.0817 -0.2257
11279W        W26748   7.584   6.077   0.441  0.3210 -0.2834  0.0433
11280W        W26749   4.348   4.068  12.348 -0.0336  0.1322 -0.0752
11281W        W26750   8.259  11.604  12.702  0.1545  0.2421  0.1364
11282W        W26751   5.124  14.130  14.800  0.1159  0.2181 -0.1837
11283W        W26752   6.676  16.607   1.381  0.1428 -0.0258  0.3653
11284W        W26753   9.108   0.450   0.767 -0.0568 -0.2277 -0.0601
11285W        W26754   5.042   3.609  13.872  0.1581 -0.2918  0.2147
11286W        W26755  13.380   3.892  11.265 -0.1531 -0.0448 -0.1617
11287W        W26756   5.492   5.762  13.654  0.0171  0.0960 -0.1700
11288W        W26757   3.565   1.318  12.446  0.1681 -0.0542  0.1469
11289W        W26758  11.844   0.773  10.418 -0.0222  0.1800  0.3141
11290W        W26759  16.576  10.998  14.752 -0.2927 -0.0222 -0.0417
11291W        W26760   1.845  10.427  13.293  0.1201  0.0411  0.3206
11292W        W26761   6.912   0.040   5.788  0.2034  0.0931 -0.3533
11293W        W26762   2.680  13.779   4.980  0.2198  0.0201  0.2263
11294W        W26763   5.489   0.102   3.269  0.1160  0.4319  0.0517
11295W        W26764  13.676   3.101  11.870 -0.0014 -0.3264  0.1947
11296W        W26765  14.626   7.409  11.414 -0.3265  0.1202  0.2850
11297W        W26766  11.279  11.987  13.667  0.0026  0.1478  0.1027
11298W        W26767  16.808  12.510  14.448  0.0040  0.1468 -0.0477
11299W        W26768   4.214   7.990  11.577 -0.0251  0.2388  0.1544
11300W        W26769   2.621   6.330  11.670  0.0000  0.0183 -0.1032
11301W        W26770  12.553  17.848  13.986  0.1926 -0.0174 -0.2180
11302W        W26771  13.574   2.445  10.547 -0.3464 -0.2512  0.5046
11303W        W26772   5.647   8.842   0.729  0.0817 -0.1022  0.0264
11304W        W26773   8.917  10.571  14.336 -0.1523 -0.1379  0.0066
11305W        W26774   7.683  13.446   2.543  0.0096  0.4623  0.3559
11306W        W26775   7.898  11.206  11.869 -0.2569 -0.1037 -0.0783
11307W        W26776   0.026   6.656  14.288  0.0094  0.3555 -0.1916
11308W        W26777   1.757  11.939   4.420  0.1961  0.0558 -0.0641
11309W        W26778   7.678  17.465  14.905  0.0480 -0.0149 -0.0904
11310W        W26779   7.586   7.352   0.861 -0.0282 -0.1100  0.2500
11311W        W26780  15.328   0.257  12.476  0.1280 -0.1463 -0.0696
11312W        W26781   6.457  16.583  14.052  0.1245 -0.1312 -0.2656
11313W        W26782   5.475  11.732   4.348 -0.1580  0.2159  0.0346
11314W        W26783   7.010   7.073   4.756 -0.0279 -0.1428  0.0898
11315W        W26784  13.095   4.774  11.359 -0.1363 -0.0917  0.1213
11316W        W26785  17.738  14.914   1.164 -0.1918  0.1591 -0.0848
11317W        W26786  15.109   7.626   3.348 -0.2168  0.2086  0.1230
11318W        W26787  11.450   4.589   0.251 -0.1228 -0.1314 -0.0081
11319W        W26788   0.447  15.277   0.092 -0.5799  0.1677 -0.0048
11320W        W26789  17.268  15.209   1.033 -0.3203 -0.2928  0.1489
11321W        W26790   5.787  15.543   4.291  0.0729  0.0564  0.1496
11322W        W26791  15.201   6.033   2.119 -0.1187 -0.2585  0.1341
11323W        W26792  18.843  17.297   3.457  0.2201  0.2935  0.0842
11324W        W26793   3.070  14.586  14.319  0.1653 -0.2000 -0.1430
11325W        W26794  13.136   9.487   0.519  0.0511  0.1780  0.0063
11326W        W26795  16.284   7.874   4.367 -0.0705 -0.2884  0.1023
11327W        W26796  16.235  18.084   2.142 -0.0912  0.1887 -0.1162
11328W        W26797  10.277  13.068   0.732  0.1545  0.0665  0.0659
11329W        W26798   9.094  11.157   0.249  0.1066  0.1656 -0.1373
11330W        W26799   4.158  13.235   1.320  0.0390  0.1606 -0.1869
11331W        W26800   3.111  14.799  11.068 -0.0778 -0.1237  0.1268
11332W        W26801   4.638  14.152  13.656 -0.1794  0.1142 -0.0893
11333W        W26802   2.053  13.639   1.094  0.0150 -0.0566  0.1127
11334W        W26803   6.711   3.698  14.840  0.2138 -0.0857 -0.2242
11335W        W26804   2.408  11.809  15.237  0.0995  0.0760  0.1434
11336W        W26805  12.051   1.342  11.908  0.1249  0.0460  0.1255
11337W        W26806   3.273   5.463  11.871  0.1768  0.4395  0.1041
11338W        W26807  17.341  10.741   0.367  0.2085 -0.0806 -0.0548
11339W        W26808   7.148   5.038  14.505 -0.1118 -0.2537 -0.2100
11340W        W26809  16.512  12.658   4.608  0.0079  0.0972  0.1082
11341W        W26810  17.089   4.908  11.782  0.2054  0.1161 -0.4760
11342W        W26811  18.649   7.210  12.567 -0.2253  0.3000 -0.2135
11343W        W26812   0.715   8.961   2.094 -0.0331  0.0623 -0.1488
11344W        W26813   0.600  18.646   2.910 -0.0341 -0.2592  0.0049
11345W        W26814  17.497  18.927   1.830  0.2433  0.1577  0.3469
11346W        W26815   0.548   7.213   9.920  0.1194  0.2136 -0.2182
11347W        W26816  16.273  10.907   4.048 -0.0965  0.1907 -0.0011
11348W        W26817  14.334   6.787   3.538  0.0741  0.3377  0.0055
11349W        W26818   5.091  10.909   1.100 -0.2643 -0.0322 -0.0037
11350W        W26819  11.845   7.250  11.872 -0.0511  0.0389 -0.1072
11351W        W26820  11.378   1.670  10.537  0.3042 -0.0176  0.0691
11352W        W26821   6.602   8.118  13.356  0.2057  0.1220  0.0121
11353W        W26822  16.826  18.676  11.180  0.1630 -0.0408  0.2411
11354W        W26823  12.913  18.589   4.972  0.1972  0.0751  0.2186
11355W        W26824   3.628  12.521  13.440 -0.0819 -0.0041 -0.2332
11356W        W26825   6.610  12.000   5.032 -0.1889  0.0724  0.0935
11357W        W26826   8.164  15.405   2.949 -0.0637 -0.3066  0.3107
11358W        W26827   8.302  13.904   4.134 -0.0297 -0.0090  0.0116
11359W        W26828   6.664   1.637   2.175 -0.3169  0.2602 -0.1267
11360W        W26829  11.411  10.921  14.522  0.0665 -0.0900 -0.0264
11361W        W26830  14.289  16.902   0.003  0.2663 -0.1171  0.2093
11362W        W26831  18.020   4.112  13.455  0.0518  0.2770 -0.1355
11363W        W26832   1.342  15.549  15.438 -0.2434  0.3877 -0.0839
11364W        W26833  11.554   5.262  15.180 -0.2861  0.1425 -0.0141
11365W        W26834  14.390   1.887   0.840 -0.0166 -0.5550 -0.0025
11366W        W26835  17.048  14.410  12.232 -0.1425 -0.2249  0.0227
11367W        W26836  15.695   0.752   9.775  0.0491  0.1584  0.1837
11368W        W26837  17.935   6.194  13.353 -0.0538  0.2082  0.0785
11369W        W26838   1.647  14.154  13.558  0.1167 -0.2065  0.0445
11370W        W26839  15.386   9.303   0.932 -0.0525 -0.2880 -0.2986
11371W        W26840  14.042   6.700   1.454  0.4465 -0.2754  0.0490
11372W        W26841   2.732  17.699   2.694  0.1617 -0.1450  0.1277
11373W        W26842   5.399  18.485   3.176  0.1006 -0.1296 -0.2786
11374W        W26843  13.910   0.661  11.221 -0.0218  0.0883 -0.2031
11375W        W26844  13.984  16.642   4.895 -0.0251 -0.2453  0.0764
11376W        W26845  13.519   9.203   9.568 -0.0018  0.3409 -0.0834
11377W        W26846  17.805  14.020   0.587  0.0360 -0.1551 -0.2309
11378W        W26847  10.239  16.290   3.309 -0.1068  0.2572 -0.0282
11379W        W26848   6.730  17.296   4.244  0.0361 -0.1357 -0.1877
11380W        W26849  11.768   1.535  10.763  0.0041 -0.0621  0.2346
11381W        W26850   7.155  18.421  10.693 -0.1435 -0.3735  0.3769
11382W        W26851   9.565   0.255  10.695  0.0726 -0.2084 -0.0704
11383W        W26852  15.818   4.366  13.491  0.1440 -0.1510  0.3992
11384W        W26853   8.949   6.164  10.321  0.0415 -0.2353  0.1658
11385W        W26854   4.090   2.821  11.972 -0.0811  0.0205  0.0345
11386W        W26855  10.110   2.557  13.494  0.0449  0.1893 -0.0708
11387W        W26856   8.471   9.352   3.975  0.1792 -0.1857  0.0452
11388W        W26857   2.912  12.213   2.250  0.0642 -0.0612 -0.0011
11389W        W26858   1.034  17.828  11.192 -0.0348 -0.2034  0.2576
11390W        W26859  15.730  10.199   2.561  0.0275 -0.0514 -0.2470
11391W        W26860   1.769   1.281   9.959 -0.1343 -0.1123 -0.1679
11392W        W26861  14.406   2.565   1.551 -0.0421 -0.0780 -0.1447
11393W        W26862   5.654   2.216   2.936  0.0599 -0.4719 -0.0841
11394W        W26863   0.382   9.372  14.786 -0.0926 -0.0873 -0.2635
11395W        W26864  18.729   0.710  13.697  0.0863  0.2052  0.1786
11396W        W26865   7.630   2.451  13.748  0.0198 -0.1206 -0.2213
11397W        W26866  17.315   6.578   3.627  0.0263  0.3161 -0.5273
11398W        W26867  16.321   5.124   1.253  0.2250  0.0191 -0.2357
11399W        W26868  16.737  11.805  14.551  0.2343  0.2796 -0.2528
11400W        W26869  13.340  12.786   0.390 -0.0129  0.1011  0.0068
11401W        W26870   0.204  12.284  14.207 -0.1168 -0.0569  0.1864
11402W        W26871  17.018  15.209  11.673  0.4638 -0.3029  0.1102
11403W        W26872  13.942   4.821   5.507 -0.0972  0.5406 -0.0758
11404W        W26873  14.075   7.933  12.684 -0.1095 -0.1596 -0.3246
11405W        W26874   4.221   5.638   4.214  0.1524 -0.0791  0.2646
11406W        W26875   5.129  18.470   4.023 -0.2719 -0.0529 -0.1703
11407W        W26876   3.289   3.114  13.335 -0.2054  0.2024 -0.1712
11408W        W26877  14.378   4.391   0.349  0.0297 -0.3893  0.0360
11409W        W26878   8.458   9.101   0.492 -0.3533  0.3586  0.2074
11410W        W26879   6.616  11.910  14.124  0.2343  0.1545  0.0289
11411W        W26880  13.012  12.018   4.290 -0.1558 -0.0476 -0.1535
11412W        W26881   1.882  17.339  14.271 -0.0086 -0.1199 -0.0821
11413W        W26882   2.551   0.391  11.355  0.1645 -0.2079 -0.1890
11414W        W26883   3.386   6.289   5.475 -0.4398  0.0186 -0.0247
11415W        W26884   0.115  10.309   1.003 -0.1676  0.3771 -0.1559
11416W        W26885  10.189   2.101  13.246 -0.0899 -0.0804 -0.1483
11417W        W26886  15.647  16.983  15.221 -0.1542  0.0788 -0.0318
11418W        W26887   3.294  11.142   1.437  0.3757 -0.0627 -0.0646
11419W        W26888  10.048   0.746  12.741  0.2187 -0.0484  0.1906
11420W        W26889  12.186   8.875  12.744  0.1877  0.1660 -0.1245
11421W        W26890   9.062  12.979  14.617 -0.1284 -0.1288  0.0808
11422W        W26891   3.746   2.257   0.974 -0.0430  0.0440 -0.0804
11423W        W26892  15.444   7.630   3.778 -0.1036 -0.0712 -0.3966
11424W        W26893  12.363   8.669  14.413 -0.2712  0.0832 -0.0192
11425W        W26894  15.013  10.222  12.043  0.1458  0.2718  0.0703
11426W        W26895   1.305   3.393  11.502  0.1656  0.1054  0.0498
11427W        W26896  12.767   4.213  15.357 -0.0337  0.0530  0.2775
11428W        W26897  16.979   0.134   0.096 -0.5305 -0.1955  0.2118
11429W        W26898   7.712  14.910   4.466 -0.1088 -0.0817  0.1732
11430W        W26899  10.051   8.913   3.060 -0.1661  0.3101 -0.1000
11431W        W26900   6.497  17.886   1.333 -0.1465  0.0221  0.1004
11432W        W26901   3.477  16.349  11.201  0.1047  0.4015  0.2319
11433W        W26902   5.277   8.264  14.957 -0.2829 -0.2558  0.1407
11434W        W26903  14.896  15.477   0.153  0.2649  0.2587 -0.3803
11435W        W26904  14.649   9.642   1.257  0.1067  0.0789 -0.2582
11436W        W26905  13.444   5.334  13.850  0.1257  0.0500 -0.0584
11437W        W26906  11.228   1.396  12.167 -0.2066 -0.1822  0.1331
11438W        W26907  12.953  13.849   5.035 -0.0717  0.0010 -0.0320
11439W        W26908   2.389  11.638   3.153 -0.0946 -0.2711  0.1962
11440W        W26909   4.240   8.847  14.187  0.3915 -0.0022  0.4111
11441W        W26910   0.842  16.872  12.468 -0.1162 -0.3953 -0.1424
11442W        W26911  10.260  13.323   4.395 -0.3518  0.6042  0.2872
11443W        W26912  18.596   9.174  10.370  0.1105  0.3875  0.3987
11444W        W26913  16.923   6.137  15.273  0.0081  0.0375  0.0417
11445W        W26914   6.068   3.409   6.099 -0.0338 -0.2239  0.0380
11446W        W26915  10.063   6.268   3.903  0.1919 -0.0698 -0.1103
11447W        W26916   6.809   7.491   3.868  0.3382  0.2677 -0.3632
11448W        W26917  15.347   2.124   4.230 -0.0373  0.1852  0.2596
11449W        W26918   4.150   7.284   1.104  0.0635  0.1566  0.0171
11450W        W26919  10.264   4.847   1.971 -0.1697 -0.2166 -0.1248
11451W        W26920  17.997  13.450  11.475  0.0335  0.0633  0.0904
11452W        W26921  18.897   6.374   4.823 -0.2282  0.1236 -0.0349
11453W        W26922  11.828  17.089  14.107 -0.1418 -0.0283 -0.3027
11454W        W26923   3.937   7.225   2.006  0.0483  0.0822 -0.3903
11455W        W26924   0.745  15.068  15.215  0.1380  0.1514  0.1600
11456W        W26925  13.012  13.654   4.599 -0.0553  0.0169 -0.2206
11457W        W26926   9.485   5.288  10.738 -0.0563 -0.2058 -0.4698
11458W        W26927   7.110  12.085   0.003 -0.4483  0.3570 -0.2844
11459W        W26928   8.594   7.460  11.454 -0.1015  0.0344 -0.0154
11460W        W26929   2.240   3.277   4.175  0.0660 -0.3565 -0.0647
11461W        W26930  18.147   7.359  12.682  0.0829  0.0512  0.0010
11462W        W26931   5.223   9.793   3.960 -0.2106 -0.0192 -0.0402
11463W        W26932   4.140  18.419   3.940  0.4191 -0.1313 -0.5710
11464W        W26933  13.444  17.563  14.550 -0.1738 -0.0850 -0.0794
11465W        W26934   5.377  18.538   5.319 -0.2529  0.2892  0.0340
11466W        W26935  18.134  11.735   2.226  0.2209  0.4018 -0.0198
11467W        W26936  18.388   8.027  13.947  0.2276  0.1626  0.1187
11468W        W26937   8.991  11.336  15.112 -0.0997  0.0723 -0.0430
11469W        W26938   0.675   8.370   1.410 -0.0116  0.1818 -0.1275
11470W        W26939   5.342  12.667  11.934  0.1244  0.0001 -0.1911
11471W        W26940  11.042  18.461   5.752  0.4288 -0.2948 -0.1442
11472W        W26941  15.829   8.016   5.005 -0.1215 -0.0764 -0.0690
11473W        W26942   2.935  12.202   5.401 -0.3417 -0.3772 -0.2615
11474W        W26943  10.861   6.083   1.152  0.1705  0.5252  0.1431
11475W        W26944   7.779   1.080  10.660 -0.1281  0.2550 -0.0267
11476W        W26945  16.553   7.170  11.536  0.0618 -0.1403 -0.2315
11477W        W26946  14.761   3.742   5.449 -0.2119 -0.3476 -0.0700
11478W        W26947  12.168  13.387  13.022 -0.0094  0.6371  0.1215
11479W        W26948   1.756   6.879   2.452  0.0498 -0.2889  0.0685
11480W        W26949   9.481  13.327  11.909  0.1544  0.0620  0.0489
11481W        W26950  13.193   6.093  12.231  0.4302 -0.0718 -0.0363
11482W        W26951   9.977  14.514   0.524 -0.1818  0.0791  0.0706
11483W        W26952   2.180  14.305   5.611 -0.0836  0.1156 -0.2813
11484W        W26953   4.739   5.591  12.826  0.0132 -0.0426 -0.6391
11485W        W26954  13.274   2.462  13.262 -0.0272  0.0846  0.0748
11486W        W26955  15.446  12.381  11.383  0.0212  0.2805 -0.0796
11487W        W26956   7.438   3.346   3.255  0.2328 -0.1908 -0.0337
11488W        W26957  14.478  15.037   3.570  0.1541  0.1736 -0.1095
11489W        W26958  15.925   6.352  11.604 -0.0954 -0.0505  0.3047
11490W        W26959  10.501   6.216   4.773 -0.2913 -0.2026  0.1683
11491W        W26960  18.566   8.833   2.589  0.1559 -0.0982  0.4537
11492W        W26961   2.273  14.436  14.551 -0.1893  0.1296  0.1233
11493W        W26962   0.953   3.193  11.182 -0.1068  0.1213  0.0868
11494W        W26963   0.181  18.844  13.748 -0.1499  0.0787 -0.3793
11495W        W26964  10.636  15.885  13.528 -0.4326 -0.3425 -0.1719
11496W        W26965   8.838   3.411  15.198 -0.0055  0.2890 -0.1156
11497W        W26966   0.872   7.557   5.391  0.0215  0.0633  0.2579
11498W        W26967  18.768   4.485   1.457 -0.2674  0.1164  0.0141
11499W        W26968  16.195  13.057  15.013  0.0310  0.1934  0.1499
11500W        W26969  12.882  11.481  13.361 -0.2484 -0.2402  0.0561
11501W        W26970  13.854  17.162  12.493 -0.3541 -0.0105 -0.0123
11502W        W26971  15.316  17.250  13.846 -0.0957  0.1225  0.1628
11503W        W26972  16.706   2.897  12.769  0.4236  0.0607 -0.0221
11504W        W26973  15.605   0.564   3.249  0.1454 -0.1034  0.1582
11505W        W26974  14.626   0.676   3.615  0.0773  0.0888  0.3532
11506W        W26975   8.657  17.839  12.418  0.3130  0.0743 -0.0771
11507W        W26976  12.544   6.890   4.749 -0.1614  0.0284  0.3700
11508W        W26977   2.130  12.129   0.418  0.0871 -0.0864  0.0013
11509W        W26978   3.481  12.183   2.299  0.0193 -0.0901  0.2471
11510W        W26979  18.415   9.250  14.381 -0.0021 -0.3834  0.2015
11511W        W26980   2.122  15.322  14.957  0.0712  0.0890 -0.0771
11512W        W26981   7.139  17.964  11.867 -0.0220  0.3134 -0.2751
11513W        W26982  15.571  17.421  12.643 -0.1946 -0.1007  0.0825
11514W        W26983  11.373   6.402   3.586  0.3399  0.0678 -0.1714
11515W        W26984   2.469  16.101   3.171  0.0069 -0.1582  0.1811
11516W        W26985  10.653  12.785   3.799  0.1347  0.3336 -0.0916
11517W        W26986   9.633  14.489   2.557 -0.2487 -0.0466  0.0661
11518W        W26987   9.337   1.572  12.075 -0.2930 -0.0898 -0.1224
11519W        W26988  18.312  11.587   1.168  0.0213  0.1468 -0.0402
11520W        W26989  16.472   1.321  10.559 -0.0950 -0.2483  0.1911
11521W        W26990   5.144   0.871  14.629  0.2931 -0.1089 -0.0131
11522W        W26991   1.793  10.075  11.076  0.0522  0.1400 -0.1341
11523W        W26992   5.532   8.206   1.832 -0.1637 -0.0656 -0.1800
11524W        W26993  15.252  14.355  12.157  0.3203  0.2740 -0.1545
11525W        W26994   0.828   2.265   1.365  0.0772 -0.3510 -0.0855
11526W        W26995   2.694  13.706  11.507  0.0930  0.0978  0.2315
11527W        W26996   3.729   8.160   2.201  0.0998  0.0443 -0.3686
11528W        W26997   5.818   2.657   3.384 -0.1592  0.3270  0.2123
11529W        W26998   0.300  17.050   5.337  0.1107  0.1354  0.3331
11530W        W26999   3.463  11.664   1.836  0.0021 -0.3626 -0.0015
11531W        W27000   5.239   1.769  15.435 -0.1793 -0.1764 -0.1452
11532W        W27001  15.540  12.282  12.108 -0.2593 -0.1796  0.1806
11533W        W27002  18.629  10.371   0.242 -0.0127  0.3517 -0.1220
11534W        W27003  17.319   4.656   3.223  0.0314 -0.2611 -0.1549
11535W        W27004   7.121   3.796  12.037  0.2736 -0.2133 -0.2986
11536W        W27005   2.056   8.657   3.446 -0.1526 -0.2323 -0.0398
11537W        W27006   9.000   9.367  13.620  0.3454  0.1569  0.0921
11538W        W27007  16.052   2.650   3.972  0.1493  0.0204 -0.2388
11539W        W27008  17.634  17.208   4.042 -0.1682  0.5347 -0.1458
11540W        W27009   9.294   8.463   3.291 -0.1322 -0.0782  0.0612
11541W        W27010   1.537  14.497  12.316  0.0462 -0.2082 -0.2119
11542W        W27011  13.637   1.714   0.376 -0.1192  0.0173 -0.1641
11543W        W27012  12.893   7.488  11.529  0.2111  0.0195  0.5466
11544W        W27013  14.865  14.827  13.874  0.0447  0.0954  0.1158
11545W        W27014   8.232  18.416  13.261 -0.1574 -0.1196 -0.0751
11546W        W27015   6.961  17.125   2.913 -0.1093 -0.4049 -0.1818
11547W        W27016   8.687  10.249  11.622  0.0185  0.1176  0.0622
11548W        W27017  15.620  15.677   3.612 -0.0603  0.3111 -0.0826
11549W        W27018  17.659   7.070   4.019 -0.4445  0.2333 -0.0113
11550W        W27019  16.911   4.005   4.450  0.1029 -0.0036  0.0400
11551W        W27020  11.013  10.143   2.764 -0.0115  0.1503  0.2494
11552W        W27021  17.816   7.119  15.411 -0.0457  0.0465  0.1046
11553W        W27022   1.984   6.218  13.244  0.4290 -0.0863  0.0348
11554W        W27023   1.784   7.268  12.239  0.1840 -0.3928 -0.0064
11555W        W27024  11.971  10.207   2.264 -0.0969 -0.1573  0.1193
11556W        W27025   7.698  16.694   3.491  0.0937  0.2834  0.3820
11557W        W27026  12.915   7.281  14.145  0.3405 -0.2748  0.0722
11558W        W27027  17.786   6.407   2.019 -0.0757 -0.0584  0.0816
11559W        W27028  12.128   6.482  15.096 -0.3278 -0.1225  0.2333
11560W        W27029  14.362   8.007   1.388  0.4168  0.2768 -0.1824
11561W        W27030  11.538  10.873  15.400 -0.1124  0.0751 -0.1175
11562W        W27031   1.307   8.061  15.397 -0.2399  0.1208 -0.0160
11563W        W27032  17.294   5.630   3.629 -0.0474  0.0208  0.0081
11564W        W27033  12.013  10.641   1.912 -0.3731  0.1292  0.0667
11565W        W27034  13.075   9.440  13.476 -0.2689  0.0053  0.0480
11566W        W27035   4.029   0.403  15.203  0.1238  0.0185 -0.0350
11567W        W27036   8.465   8.930   4.887 -0.0560 -0.0488 -0.1961
11568W        W27037  10.074  14.164   3.313  0.2009 -0.0387  0.0470
11569W        W27038  11.063   0.042  12.832  0.4107 -0.1317 -0.4303
11570W        W27039   6.396  10.306  12.445  0.4050 -0.0219  0.3299
11571W        W27040   5.887   8.709   1.996  0.1905 -0.0779 -0.1805
11572W        W27041   4.983  10.103  14.197  0.2209 -0.0891 -0.3829
11573W        W27042  16.127   4.096  11.507 -0.0723  0.0222  0.0286
11574W        W27043   5.260   9.836  10.082  0.3529  0.1751  0.1079
11575W        W27044   3.651   7.526  11.377 -0.1662 -0.1842 -0.1669
11576W        W27045  15.971   6.240  12.152  0.1847  0.1659 -0.0657
11577W        W27046   3.225  11.359  10.672 -0.0833  0.1035 -0.0990
11578W        W27047   2.852   1.127   3.451  0.0051 -0.1968  0.1765
11579W        W27048   9.576  15.615   5.927 -0.1931 -0.0913 -0.1202
11580W        W27049   0.395  18.723  14.282 -0.2828 -0.0310  0.2457
11581W        W27050   8.561  16.532   2.789 -0.1534 -0.0216 -0.0909
11582W        W27051  18.351   3.946  11.189  0.2109 -0.1294 -0.3040
11583W        W27052  10.435  16.158   2.556 -0.1350 -0.2880  0.3538
11584W        W27053   9.444   5.729  13.886 -0.0386 -0.2610 -0.0584
11585W        W27054  14.760   4.123   1.939 -0.0559 -0.2521  0.0879
11586W        W27055   4.387   7.491   3.249  0.2322  0.2389 -0.5179
11587W        W27056  11.776   2.459  14.776  0.3085 -0.2977 -0.0018
11588W        W27057  16.142  17.040   2.095 -0.1609  0.0294  0.2454
11589W        W27058   0.697  18.885  12.686 -0.2283 -0.2079  0.0899
11590W        W27059   0.128  13.389   1.296 -0.0829  0.0465  0.0995
11591W        W27060  17.885  14.950   2.132  0.1914  0.1151  0.0185
11592W        W27061  12.914  14.867   0.333 -0.0724 -0.2206 -0.1816
11593W        W27062   4.795   2.611   0.338 -0.0353 -0.3378  0.3161
11594W        W27063   2.013  11.746   0.822  0.3704 -0.0515  0.1142
11595W        W27064   8.362   2.118  13.212 -0.2246  0.1076 -0.0534
11596W        W27065   6.104   4.964   0.094 -0.1758 -0.2260 -0.0910
11597W        W27066   5.630  14.453  14.654  0.0973 -0.0800 -0.1190
11598W        W27067   0.646   7.010   4.573 -0.1100 -0.0096  0.1553
11599W        W27068  12.595   0.374   4.829  0.2044  0.2218  0.0584
11600W        W27069   3.588  14.888   3.964  0.2813  0.2515 -0.0559
11601W        W27070   5.598   4.290  12.084  0.3141  0.3661  0.3220
11602W        W27071  11.059   3.556  15.112  0.0165  0.1487  0.2849
11603W        W27072  15.764   7.633   2.109  0.1379 -0.1966  0.2443
11604W        W27073   5.176  14.376   1.026 -0.0555 -0.6776 -0.1150
11605W        W27074  14.006  17.880   2.568  0.0619  0.0638  0.0070
11606W        W27075   6.397  11.537   2.270  0.2520  0.0585 -0.0617
11607W        W27076   7.703   1.134   5.055  0.0001  0.1726 -0.3186
11608W        W27077   5.813  16.100  13.461  0.2934  0.1619  0.0665
11609W        W27078   9.304   3.221  13.635 -0.0528  0.0857  0.2805
11610W        W27079   3.074   5.575   1.627  0.0490 -0.0702  0.1291
11611W        W27080   4.205   7.684  13.344  0.1942  0.1653  0.1617
11612W        W27081   8.735   9.643   1.212 -0.0691  0.0860  0.0294
11613W        W27082   7.773  14.877   3.931 -0.1259 -0.0795 -0.2470
11614W        W27083   6.005  10.140  14.628 -0.2740  0.0414  0.0792
11615W        W27084   6.627  15.945  13.510  0.1980 -0.1770 -0.1041
11616W        W27085   8.430  12.171   3.599  0.2789  0.2129 -0.3022
11617W        W27086  17.620  16.703   4.716 -0.0643  0.0125  0.2353
11618W        W27087   4.079  10.170   0.237  0.0869  0.4452 -0.1818
11619W        W27088  12.490   0.799  13.102  0.1570  0.1208  0.3535
11620W        W27089   0.756   9.034  11.424  0.3770 -0.0812  0.0078
11621W        W27090   1.586   7.460   3.262  0.2076  0.2246  0.0666
11622W        W27091  13.657  16.322   5.030 -0.0925  0.0752  0.0886
11623W        W27092   2.376   0.766  14.132 -0.2317 -0.0771  0.0675
11624W        W27093  16.709   8.714  10.503 -0.0766  0.1180  0.1018
11625W        W27094   3.031  14.463  12.461 -0.1140  0.1412 -0.2135
11626W        W27095   8.045   4.214   0.379 -0.1121 -0.1405  0.0143
11627W        W27096   4.484   6.012  12.621 -0.0155 -0.0444 -0.1545
11628W        W27097  17.461   7.864   1.138 -0.2092  0.3371  0.0739
11629W        W27098  17.163   2.647  14.140 -0.0477  0.2052  0.3642
11630W        W27099  10.804  18.302  14.589  0.1668  0.0999 -0.3004
11631W        W27100  12.346   4.451   3.627 -0.0542 -0.0113 -0.0183
11632W        W27101   9.790  13.687  14.632 -0.1459 -0.2974  0.1950
11633W        W27102  14.654  18.064   2.597 -0.0814 -0.0156 -0.0837
11634W        W27103   6.481  11.497   4.373  0.1131 -0.0443  0.1414
11635W        W27104   8.807  14.042  15.320  0.0124 -0.1697 -0.1045
11636W        W27105  13.272  14.810   3.211 -0.3845  0.1107 -0.0441
11637W        W27106  15.311   6.017  13.331  0.1909 -0.0380  0.0551
11638W        W27107   0.313  16.218   0.711 -0.2801 -0.0903  0.0155
11639W        W27108   8.322  14.669  11.699 -0.2398 -0.0898 -0.0923
11640W        W27109  11.648   0.260   5.653  0.3156  0.0872  0.0444
11641W        W27110  12.451   5.143   5.103 -0.0050 -0.0158 -0.0544
11642W        W27111  13.936   9.390  10.430  0.2125 -0.4963 -0.2607
11643W        W27112  13.949   4.103  12.225 -0.1210  0.4003 -0.2956
11644W        W27113   5.533  14.589   1.357 -0.0488 -0.3640 -0.1901
11645W        W27114  11.556  15.731  12.508 -0.0451 -0.1512  0.1765
11646W        W27115  15.562  17.608   0.574  0.0687 -0.1740 -0.1588
11647W        W27116  11.573  14.524  10.038 -0.0830 -0.1701  0.1479
11648W        W27117   0.560  13.678  14.812  0.0626 -0.2154  0.0131
11649W        W27118   4.305  18.671  13.695 -0.0304  0.0567  0.0379
11650W        W27119   7.215   2.943  11.158  0.0486  0.1177  0.0069
11651W        W27120  10.761  12.613   2.816  0.3121 -0.3140 -0.1832
11652W        W27121  13.042  18.355  13.109 -0.1509  0.1481  0.1751
11653W        W27122   3.683  17.253  12.636 -0.1420  0.2307  0.0945
11654W        W27123  11.220   0.810  11.795 -0.3852  0.0816  0.1325
11655W        W27124   7.313  17.838   4.919  0.0978  0.0372  0.1668
11656W        W27125   3.052  13.855   4.559 -0.0851  0.0611 -0.1069
11657W        W27126  16.023  18.729  15.450  0.0592  0.2265 -0.1076
11658W        W27127   9.279  15.494   4.031 -0.0513 -0.1919 -0.0450
11659W        W27128   3.181   6.192  11.317 -0.0439  0.1018  0.1674
11660W        W27129  12.027  10.236   2.774 -0.0176 -0.2296  0.1732
11661W        W27130   3.938   3.396   0.873 -0.3108 -0.0852  0.1102
11662W        W27131   3.325   0.429  12.569  0.0186  0.0863  0.1856
11663W        W27132   9.805   0.079  13.420 -0.2246 -0.0032 -0.1607
11664W        W27133  14.639  12.249  13.265  0.0294  0.0565 -0.0644
11665W        W27134   8.071  11.590   1.596 -0.2803  0.2366 -0.1672
11666W        W27135   6.139  15.346  14.098  0.0418  0.2998  0.1145
11667W        W27136   3.187   7.268  12.262 -0.0610 -0.1863  0.2679
11668W        W27137   0.298  16.203   5.889 -0.1386 -0.2033 -0.1637
11669W        W27138  17.165  17.437   5.374 -0.0595 -0.2951 -0.1234
11670W        W27139   5.892   3.594  12.729 -0.0824 -0.1392 -0.2950
11671W        W27140  15.197  11.763   2.109  0.1360 -0.0858 -0.2355
11672W        W27141   0.719  13.772  10.389 -0.2390 -0.1208 -0.3048
11673W        W27142  18.407   3.030   1.961 -0.2838  0.0648 -0.1557
11674W        W27143   9.573   1.168   3.178  0.0686 -0.0289  0.1609
11675W        W27144  14.064   0.356  14.849 -0.0759 -0.1367 -0.2572
11676W        W27145   4.158  12.198  11.388  0.0069 -0.2983  0.2109
11677W        W27146   0.546   4.126   4.873  0.0304 -0.0736  0.1070
11678W        W27147  14.001   1.233   0.089  0.1857 -0.0744  0.1649
11679W        W27148   4.943   1.600   3.065 -0.0503  0.1000  0.2362
11680W        W27149  18.004   3.621  14.885  0.0017  0.0212 -0.3864
11681W        W27150  12.775   4.956  13.437  0.0435 -0.2284  0.0272
11682W        W27151   0.766   2.211  10.472  0.1095  0.0127 -0.0151
11683W        W27152   7.542  14.772   0.315  0.3471  0.2748  0.0825
11684W        W27153  14.072   7.014  12.222  0.0544  0.1526 -0.0201
11685W        W27154   1.112  14.180   5.193  0.0171  0.0195 -0.0626
11686W        W27155   9.312  13.301   0.005 -0.2686  0.2121 -0.1044
11687W        W27156  14.614   0.222  10.959  0.1282 -0.1582 -0.2643
11688W        W27157   7.450  17.600  13.969  0.1012 -0.0668  0.0917
11689W        W27158   9.624  16.442  11.174 -0.4816 -0.2497 -0.2804
11690W        W27159  16.844  16.843  14.913 -0.4139  0.1579  0.0286
11691W        W27160  12.301   3.725   3.717 -0.3847 -0.4941  0.0658
11692W        W27161  15.456   4.654  14.789  0.4673 -0.0950 -0.3575
11693W        W27162  11.658   0.856   0.549  0.1443  0.3012  0.0725
11694W        W27163   9.981  11.523  14.822  0.4900  0.0072 -0.2326
11695W        W27164   0.086   9.914   0.292  0.1318 -0.1070  0.3282
11696W        W27165   8.822  16.124   0.587 -0.1473  0.0564  0.2422
11697W        W27166  12.671  10.401   1.082 -0.1646  0.4579  0.1566
11698W        W27167  17.693   8.595   2.559  0.1802  0.0866 -0.1002
11699W        W27168   9.355   8.199  12.305 -0.1288 -0.2561  0.1851
11700W        W27169  14.693   7.387   2.189 -0.2507  0.1653  0.1965
11701W        W27170   0.297  18.191   4.891  0.0725 -0.2152  0.0920
11702W        W27171   2.554   8.223  14.962 -0.2174 -0.0417 -0.1238
11703W        W27172  18.467   1.118  14.827 -0.0796 -0.0085  0.3369
11704W        W27173  16.789   6.772   1.337 -0.2366 -0.2405 -0.0678
11705W        W27174  18.260  16.983  12.740  0.2910  0.1508  0.2407
11706W        W27175   3.153   8.605   0.078  0.0634 -0.0369 -0.2087
11707W        W27176  10.288  18.031   3.220 -0.0743 -0.2808  0.0809
11708W        W27177   4.286   1.019   5.169 -0.0330  0.0379  0.3068
11709W        W27178  16.516   0.370  12.538  0.1801  0.3224  0.1466
11710W        W27179   2.880   6.871  14.080 -0.0893 -0.1694 -0.0058
11711W        W27180  11.191  18.346  15.367  0.1589  0.0467  0.0706
11712W        W27181   1.712  10.733  10.276  0.4707  0.0444 -0.0645
11713W        W27182   8.220   6.332  14.546 -0.2041 -0.1026 -0.0652
11714W        W27183   6.105   7.963  13.636  0.1352 -0.1438 -0.3421
11715W        W27184   2.061   3.518   1.153 -0.1367  0.1209 -0.1411
11716W        W27185  12.685  13.999   1.917  0.3814 -0.2299 -0.1408
11717W        W27186  17.877  17.048  12.451  0.1000 -0.1324  0.0419
11718W        W27187   6.344  14.766  12.395 -0.0848  0.0356 -0.2180
11719W        W27188  13.332   8.638   4.430 -0.1624 -0.0809 -0.0710
11720W        W27189  10.680   2.137   2.136 -0.0925 -0.1858  0.0966
11721W        W27190  12.079  17.779  14.775 -0.1591  0.3036 -0.5485
11722W        W27191  11.325  14.567   5.605 -0.3418 -0.0185  0.0182
11723W        W27192   3.760  17.578  11.707 -0.0662  0.1287  0.2141
11724W        W27193  18.854   8.397   1.210  0.1329 -0.1712  0.0713
11725W        W27194  11.832  18.854  10.275 -0.3990 -0.0329  0.1490
11726W        W27195  11.194   0.346  14.280  0.2450  0.0654 -0.1111
11727W        W27196  17.533  10.444   2.039  0.0458  0.0361 -0.0611
11728W        W27197   1.934  11.605  11.267 -0.2407 -0.0062 -0.0670
11729W        W27198  16.099   6.657   3.774  0.5401 -0.3238  0.3747
11730W        W27199   0.596   1.992  15.411 -0.3741  0.0877  0.0310
11731W        W27200   8.056  10.032   0.962 -0.1002 -0.0172  0.2424
11732W        W27201  16.490  13.308   3.833  0.0003  0.0490  0.2272
11733W        W27202  14.177  12.054  13.245 -0.0530 -0.1060 -0.1157
11734W        W27203   1.708  13.915   0.758 -0.2692  0.1195 -0.0413
11735W        W27204   2.560  12.566  14.142 -0.1672 -0.1246 -0.1076
11736W        W27205  15.283   8.716  15.033 -0.2754  0.3138  0.1887
11737W        W27206   1.803  14.593   3.272  0.3233 -0.0471  0.0716
11738W        W27207   2.106  10.681  11.052 -0.2111 -0.0588  0.1456
11739W        W27208   0.078  14.514   3.628 -0.0173  0.1838 -0.2381
11740W        W27209  16.200   9.565   1.376 -0.0482 -0.0182  0.1504
11741W        W27210  15.069  16.226   0.784 -0.2800  0.1302 -0.1497
11742W        W27211  14.865  11.170   0.429 -0.0366 -0.0806 -0.1007
11743W        W27212   2.109   7.086  10.637  0.1430  0.0480  0.1891
11744W        W27213   7.481   5.354   1.121 -0.0100  0.1218  0.3028
11745W        W27214   9.213  13.969  10.509 -0.0883 -0.0908 -0.0725
11746W        W27215  17.801  10.778  10.803  0.3176 -0.2640 -0.2449
11747W        W27216  16.172  12.516   5.769 -0.2391  0.1534  0.3181
11748W        W27217   7.904  15.006   2.649  0.1412 -0.5335 -0.0624
11749W        W27218  10.686  12.633   5.569 -0.0464 -0.1461  0.0729
11750W        W27219   1.579   1.784   0.751 -0.0329 -0.1831  0.1597
11751W        W27220  14.160   2.654  15.029 -0.1567 -0.0769  0.0939
11752W        W27221  18.829   0.347  12.783  0.1510  0.1534  0.1589
11753W        W27222  10.810  16.167   0.378 -0.0464  0.3948 -0.1340
11754W        W27223   4.274  17.398   3.251 -0.0027  0.0077 -0.0189
11755W        W27224   7.746  11.546   2.560  0.1572  0.1265 -0.4212
11756W        W27225  15.267  12.533  15.275 -0.1028 -0.3078 -0.0424
11757W        W27226  15.303  16.036  10.618 -0.1915 -0.4832 -0.0839
11758W        W27227  17.677  12.559  14.391 -0.0395 -0.2042  0.0982
11759W        W27228   2.278  14.959  11.335  0.4552  0.0252 -0.1271
11760W        W27229   6.574  12.975   1.786 -0.4846  0.0887 -0.1167
11761W        W27230   0.902   3.127   0.996  0.0914 -0.0861  0.0430
11762W        W27231   8.703   1.926   6.316  0.1030 -0.1897 -0.3840
11763W        W27232   5.262   6.155   1.918  0.0103 -0.2191 -0.1901
11764W        W27233   5.241   3.769   3.971 -0.0127  0.0970 -0.0910
11765W        W27234  17.946   8.839  13.285  0.3856  0.1856 -0.2645
11766W        W27235   0.217  17.627   0.349  0.0131  0.0957  0.4553
11767W        W27236  13.827  17.076   2.792 -0.0122  0.2233 -0.3409
11768W        W27237   2.836   8.742  10.612  0.1480  0.3168 -0.1769
11769W        W27238  17.580   7.794   0.615  0.3593  0.1403 -0.0515
11770W        W27239   0.289   0.216   3.844 -0.0771 -0.0724  0.2894
11771W        W27240  14.986  17.622  14.065 -0.1013  0.0232  0.2936
11772W        W27241  10.610  10.956  15.039  0.2112 -0.0726 -0.1484
11773W        W27242   5.176  17.358   4.748 -0.0019  0.1528 -0.1501
11774W        W27243  14.409   7.611   1.051  0.2131  0.0828  0.2166
11775W        W27244   5.471   6.241   5.508  0.0727  0.2780 -0.1608
11776W        W27245   9.634   7.376  12.510 -0.0408 -0.0203 -0.1112
11777W        W27246   3.257  15.752   5.130  0.1503 -0.2027  0.2607
11778W        W27247  13.564  15.296   1.369 -0.0328  0.0706 -0.3258
11779W        W27248   5.860  10.458   4.112 -0.3167  0.3147  0.2355
11780W        W27249   2.430   9.720   0.869 -0.0066 -0.2873 -0.4014
11781W        W27250   8.773   3.986   5.388  0.1216 -0.2274 -0.0005
11782W        W27251  14.334   9.762   5.581 -0.0189 -0.0170  0.0672
11783W        W27252   6.089   9.082   2.425 -0.1699  0.3827 -0.0335
11784W        W27253   3.201   9.705  13.953 -0.2598  0.4719  0.0475
11785W        W27254   1.030   6.148   5.805 -0.0581 -0.4862 -0.1286
11786W        W27255  14.843   8.969   2.064  0.2152 -0.1788 -0.1740
11787W        W27256  10.207   8.821  13.732  0.0026 -0.2791 -0.1548
11788W        W27257   4.182   6.233  14.729 -0.2990 -0.0779  0.2103
11789W        W27258   8.306  14.369   4.520  0.1556 -0.0567 -0.0143
11790W        W27259  12.502  17.071   1.226 -0.0771  0.1920  0.1617
11791W        W27260   6.138   7.508  12.511  0.0648 -0.1925  0.0509
11792W        W27261  18.479  11.186   2.837  0.2528 -0.0501 -0.1595
11793W        W27262   7.422   8.784  10.236  0.1428 -0.1579 -0.1474
11794W        W27263  13.099   4.998   2.087  0.2311 -0.2227 -0.2221
11795W        W27264  16.016   6.230  14.312 -0.0883  0.2699 -0.2032
11796W        W27265   3.510   4.041  12.985  0.1343 -0.0659  0.1660
11797W        W27266   5.299   1.304  10.565  0.2682 -0.6461 -0.0691
11798W        W27267  14.955   1.501  13.449  0.1951  0.0807  0.1891
11799W        W27268  12.625  18.260  14.337  0.0041 -0.0393  0.0223
11800W        W27269  13.711   2.433   2.028 -0.0806 -0.2904  0.1160
11801W        W27270  10.407   2.630   2.522 -0.2600  0.1272 -0.2210
11802W        W27271  13.648   5.092   4.792 -0.1429  0.2421 -0.1334
11803W        W27272   6.452   0.618   4.842 -0.0505  0.0090 -0.1574
11804W        W27273  16.789   0.131  10.891  0.2414  0.0544 -0.0001
11805W        W27274  14.354   3.790   1.955 -0.0877 -0.1419 -0.0582
11806W        W27275   7.133   3.339   0.474  0.1008  0.0953  0.1433
11807W        W27276  13.940   3.343   0.208  0.0529  0.0150  0.2060
11808W        W27277   3.316   1.340   5.308 -0.0331 -0.1406  0.2297
11809W        W27278  13.883   3.969   3.901 -0.0234 -0.0018 -0.3106
11810W        W27279   2.325   8.477  14.595 -0.2107 -0.3293 -0.4182
11811W        W27280  14.800  18.169   3.992 -0.1526 -0.2237 -0.0801
11812W        W27281  15.058  15.396  12.032  0.3235  0.1276  0.1230
11813W        W27282   1.415  10.393   1.608  0.2053  0.0523  0.4340
11814W        W27283  15.108  17.266   2.485  0.4021  0.1486 -0.0319
11815W        W27284   7.286   7.851   2.814  0.0049 -0.1877  0.0693
11816W        W27285  10.535  15.402  11.322  0.0258 -0.1820  0.1610
11817W        W27286   0.842   9.146  14.423 -0.3276 -0.1759  0.2344
11818W        W27287  16.886   8.307   5.596 -0.0599  0.0629 -0.2585
11819W        W27288  15.060   2.046   2.276 -0.3833 -0.1675 -0.0116
11820W        W27289   9.031   7.080   4.989  0.2405 -0.0634 -0.1846
11821W        W27290  15.807   7.115  13.606  0.0739 -0.0564 -0.0075
11822W        W27291  13.011   3.976   2.539 -0.1519 -0.0843  0.0520
11823W        W27292   1.355  10.740  14.408  0.0055 -0.1569  0.4035
11824W        W27293   7.452  13.318   4.400  0.2234 -0.1933  0.3135
11825W        W27294  12.261   7.691  12.972  0.2309 -0.6180 -0.1045
11826W        W27295   7.860   6.791  13.086  0.1462  0.1891 -0.1333
11827W        W27296  12.462   2.133  11.299 -0.2065 -0.1247 -0.0869
11828W        W27297  14.916   6.724   5.016 -0.0694 -0.1515  0.2428
11829W        W27298   5.242  15.685   4.317  0.1792 -0.1717  0.0613
11830W        W27299   4.485  16.340  14.312  0.1662 -0.0655 -0.2679
11831W        W27300   1.280   4.244  12.540  0.0187  0.0064  0.0481
11832W        W27301  10.693  13.715  12.588 -0.1999  0.1622  0.2493
11833W        W27302   5.721   1.924   4.594 -0.0575 -0.0756 -0.2119
11834W        W27303  10.267   2.185   1.528 -0.0260  0.1029 -0.0620
11835W        W27304   2.328   0.177  14.295  0.0462  0.0144  0.2564
11836W        W27305   3.966   9.307   1.754 -0.0771  0.0767  0.2419
11837W        W27306   8.077  11.181  13.236 -0.1146  0.1201 -0.4606
11838W        W27307   7.255   3.682  15.467  0.0677  0.0531  0.0240
11839W        W27308  12.252   1.647   1.377  0.5525  0.0253 -0.2554
11840W        W27309  15.838  18.433  13.042 -0.0900 -0.0987  0.0733
11841W        W27310   7.330  18.769   2.894  0.3254 -0.0924 -0.2987
11842W        W27311   9.376  15.121   3.152 -0.0794 -0.0142  0.2487
11843W        W27312   8.332   7.360   1.554 -0.2456  0.1335 -0.1683
11844W        W27313  10.186  12.951  11.293  0.1933  0.0137  0.2883
11845W        W27314   0.563   3.924   0.949  0.2609 -0.0599  0.0999
11846W        W27315  16.592   5.739   9.721 -0.0955 -0.0488  0.0648
11847W        W27316   1.990  14.352  12.551  0.1104  0.0432  0.2748
11848W        W27317   8.900   8.289   1.574  0.1016 -0.0030  0.0278
11849W        W27318  13.630  16.528  15.073 -0.1971 -0.3757  0.1143
11850W        W27319   9.935  18.123   0.007 -0.0692 -0.1266  0.3892
11851W        W27320   6.411   6.321   3.545 -0.3163 -0.1014 -0.3099
11852W        W27321   4.089   1.231   3.486 -0.0817  0.0223 -0.1274
11853W        W27322  12.116  16.807   3.363  0.2379  0.1434 -0.2835
11854W        W27323   0.021   5.931  12.692  0.1517  0.0852  0.0724
11855W        W27324   1.410   6.313  13.427 -0.2564 -0.1807 -0.1640
11856W        W27325  10.928  11.998  11.980  0.1967 -0.2871  0.2821
11857W        W27326   8.078  17.755   5.306 -0.2038  0.3343 -0.0469
11858W        W27327   4.465  15.478  13.790 -0.1756 -0.1860  0.0950
11859W        W27328   8.683  14.086   5.582 -0.2710  0.0890  0.0459
11860W        W27329   1.115  13.137  15.451 -0.3658 -0.1570 -0.1543
11861W        W27330  13.932  13.457   0.609  0.1914 -0.4242 -0.0135
11862W        W27331   5.939   3.060   1.108 -0.0285  0.2138 -0.0165
11863W        W27332   0.319  17.239   1.770  0.1023  0.0598  0.0634
11864W        W27333   7.568   6.711   5.531 -0.4064  0.1487 -0.2286
11865W        W27334  17.586  16.761  14.310 -0.0384 -0.0818 -0.0018
11866W        W27335  17.502  14.421  11.287 -0.1775  0.1317 -0.1769
11867W        W27336   6.920  16.886   0.340 -0.0147  0.0926 -0.0454
11868W        W27337  18.893   3.113  12.843 -0.1290  0.0913  0.0071
11869W        W27338  14.241   1.594  14.619  0.2325  0.0610  0.1657
11870W        W27339  16.251   2.053  12.245  0.0812 -0.0432 -0.2356
11871W        W27340  14.987   4.480   4.255 -0.2245 -0.2437 -0.2171
11872W        W27341   7.329  10.534   0.825  0.1142 -0.2496 -0.0698
11873W        W27342  14.994   3.775   0.158 -0.1887 -0.5514 -0.1455
11874W        W27343   6.899  17.246  12.768  0.1250 -0.2359  0.2588
11875W        W27344   2.806   6.082   3.514 -0.0652 -0.0783 -0.0233
11876W        W27345   9.748   6.360   3.382  0.3498 -0.3959 -0.0274
11877W        W27346  11.392  10.747  10.735 -0.1969 -0.4231  0.1086
11878W        W27347  14.659  17.556  10.984 -0.1132  0.2752 -0.1539
11879W        W27348  14.765  18.635   0.298  0.1045  0.1321  0.0507
11880W        W27349  16.904   2.724   2.968  0.1140 -0.0243 -0.1781
11881W        W27350  14.822  18.540  14.225 -0.0135  0.1565 -0.0352
11882W        W27351   9.221  10.044  10.281  0.3053 -0.2223 -0.2413
11883W        W27352  17.835   6.992  14.102 -0.0368  0.1993  0.0923
11884W        W27353   1.998  17.379  13.789  0.2714  0.3634 -0.0389
11885W        W27354   7.592  14.578  10.983 -0.1274 -0.1213  0.0096
11886W        W27355   3.596   5.375  11.396 -0.2691  0.0680 -0.2271
11887W        W27356  13.656  12.058  11.799 -0.2427 -0.1089 -0.0906
11888W        W27357   1.310   7.203   4.047  0.1601  0.0881  0.1701
11889W        W27358  16.004   4.447  10.966  0.0457  0.1873  0.0093
11890W        W27359  17.574   1.099   1.201  0.0569 -0.0765 -0.1331
11891W        W27360  11.860  14.186   4.817  0.2510  0.1911 -0.1180
11892W        W27361  12.531   5.264   3.282  0.0192  0.1332 -0.1412
11893W        W27362  11.779  13.618   4.971 -0.3228  0.0672  0.1845
11894W        W27363   8.439   8.783   0.088  0.1378 -0.0685  0.1278
11895W        W27364  15.632  18.303   1.770 -0.2100 -0.1578 -0.0740
11896W        W27365  11.413   7.305   0.340 -0.1919 -0.0790  0.2113
11897W        W27366   2.703   9.553  14.046 -0.2534 -0.2518 -0.1410
11898W        W27367  14.013  15.702  12.645  0.1991 -0.1679  0.1369
11899W        W27368   9.090   0.928   0.995 -0.3275 -0.1132 -0.2146
11900W        W27369   0.983  16.490   4.868  0.1916  0.1311 -0.2298
11901W        W27370   9.163   7.405  12.652 -0.0874 -0.1893 -0.0705
11902W        W27371   6.536  13.602   0.242  0.2742 -0.1874 -0.1376
11903W        W27372   4.531   2.185   2.031 -0.3307  0.2884  0.0426
11904W        W27373   3.704   0.003   1.938 -0.2053  0.1858  0.1856
11905W        W27374  18.029  17.711  13.132 -0.3176  0.2760 -0.1675
11906W        W27375  14.502  11.531  15.057 -0.4308 -0.0099  0.0205
11907W        W27376   4.805  15.541  10.485 -0.2223 -0.1915 -0.0356
11908W        W27377  11.122   1.480  15.419  0.2045 -0.1237 -0.0723
11909W        W27378  16.300  12.557   2.239 -0.3126 -0.2782 -0.1189
11910W        W27379  17.051   8.771   1.264  0.0065 -0.0832 -0.2333
11911W        W27380   6.359   1.961   1.779 -0.3598  0.2166 -0.3329
11912W        W27381  13.462  16.502   4.616 -0.3255  0.2613 -0.0701
11913W        W27382  12.353  15.882  11.290  0.0640  0.5081  0.3109
11914W        W27383   0.567   2.710   4.904 -0.0844  0.0252  0.0723
11915W        W27384  16.999   6.332   4.076  0.0948 -0.0561 -0.1614
11916W        W27385   7.928  11.948   3.730  0.0392 -0.2385  0.3464
11917W        W27386   0.322   6.327   0.090 -0.0297  0.1088 -0.2830
11918W        W27387   5.249  18.688  14.720 -0.1055  0.3752 -0.1751
11919W        W27388  11.089   0.273  11.518 -0.1965 -0.0443 -0.0538
11920W        W27389  13.985  16.913  13.760 -0.1331 -0.0695  0.0696
11921W        W27390  12.906  14.318  10.762  0.0591 -0.0278 -0.3629
11922W        W27391   9.717   3.646  11.707 -0.5022  0.3684  0.0296
11923W        W27392   3.249  10.504   3.922  0.1042  0.0568 -0.2642
11924W        W27393   8.040   1.454   4.723 -0.0912 -0.0643  0.0465
11925W        W27394   3.030   1.454  14.167 -0.0233 -0.2274 -0.0005
11926W        W27395  10.091  17.122   4.536  0.0252 -0.0370 -0.0937
11927W        W27396  15.416   6.580   1.205 -0.1519  0.2842  0.1226
11928W        W27397   1.074  17.909  14.578  0.4230  0.0237 -0.1203
11929W        W27398  10.414   2.679  11.162  0.2109 -0.1953  0.2123
11930W        W27399   7.424   0.892   0.662  0.3894 -0.1263 -0.0645
11931W        W27400  16.593  16.790  14.077  0.2130 -0.0384 -0.1302
11932W        W27401   3.580  17.101  15.094  0.1709  0.0708  0.0546
11933W        W27402  18.493  10.935  12.419 -0.1932 -0.3545  0.2758
11934W        W27403  15.252  16.407   4.079  0.0476 -0.0490 -0.1523
11935W        W27404   1.992  15.505  10.923 -0.0937  0.0948 -0.0756
11936W        W27405   4.404   0.388   1.561  0.1062 -0.0805  0.0255
11937W        W27406   1.956   4.768  13.335 -0.0719 -0.0478  0.1278
11938W        W27407   3.569   0.114  11.522 -0.1275 -0.0502 -0.0944
11939W        W27408   5.126   6.459  11.828 -0.1754 -0.1244 -0.0969
11940W        W27409  15.337  13.338  11.187  0.1416  0.3164  0.0629
11941W        W27410   9.884  11.937  13.073  0.2690  0.1279  0.2236
11942W        W27411   3.543  18.015  10.269 -0.0802 -0.2122  0.0731
11943W        W27412  11.543  17.722  10.141 -0.0567  0.1012 -0.1966
11944W        W27413   9.840   6.303  10.562 -0.0882  0.2459  0.3385
11945W        W27414   4.001   0.374   3.919 -0.4132  0.0568 -0.0312
11946W        W27415   6.133   6.169   4.038 -0.1565 -0.1649  0.0340
11947W        W27416   9.632  12.849  12.680  0.4397 -0.1265  0.3589
11948W        W27417   1.914   5.076   3.279 -0.1222  0.0189 -0.0888
11949W        W27418  18.856   5.189  13.855 -0.0332  0.1403 -0.2142
11950W        W27419  15.331   0.754   0.684 -0.0596  0.3304 -0.1356
11951W        W27420   4.902  14.011   1.322 -0.4682  0.0405 -0.0728
11952W        W27421  14.161   3.788  10.613  0.1705  0.2844  0.2027
11953W        W27422  13.271   4.420  15.326 -0.2503 -0.2959 -0.1306
11954W        W27423   0.083   7.514  11.815 -0.1280  0.6422  0.0880
11955W        W27424  12.964  15.231   2.299 -0.1481  0.1165 -0.0264
11956W        W27425   3.977   1.916   4.882 -0.4073  0.1492  0.2933
11957W        W27426  14.197   1.324  12.179 -0.2194 -0.0154 -0.0445
11958W        W27427  13.046  18.773   1.516  0.0835  0.0045  0.0670
11959W        W27428  15.877  17.388  11.291  0.1659  0.0937  0.3160
11960W        W27429   0.333  12.224  12.902 -0.0822 -0.2476 -0.0223
11961W        W27430   1.615  15.266  14.248  0.2120  0.1910 -0.0019
11962W        W27431   0.939  11.813   3.006 -0.0013 -0.2067 -0.0029
11963W        W27432   3.842   7.222  12.508  0.1336  0.3284  0.0182
11964W        W27433   5.591  16.775   2.635  0.1899 -0.1610  0.4171
11965W        W27434   4.373   1.247  12.861  0.1000 -0.3537  0.0512
11966W        W27435   8.435  13.087  11.510 -0.0313  0.0061 -0.1395
11967W        W27436  18.338  13.266   0.368  0.2125  0.0721 -0.0704
11968W        W27437  18.050   8.157  13.294  0.3657  0.1046  0.2048
11969W        W27438   3.572   3.812  12.506 -0.2353 -0.1069 -0.2342
11970W        W27439  15.878  11.192   2.396 -0.1307  0.2031 -0.3743
11971W        W27440   5.959  17.054  11.675 -0.0432 -0.2650 -0.1517
11972W        W27441   1.117   8.892   0.550 -0.0002  0.1312 -0.3478
11973W        W27442  14.976   0.715   1.053 -0.2018 -0.0434  0.1612
11974W        W27443   3.710   5.884   3.732  0.4222 -0.0461 -0.3265
11975W        W27444  14.684   9.845  10.680  0.1688 -0.0500  0.0806
11976W        W27445  13.288  13.015  14.027  0.2025 -0.1921  0.3405
11977W        W27446   8.371  11.636   3.883  0.0738  0.1002  0.0298
11978W        W27447   1.710  15.636   3.558 -0.3888 -0.0071 -0.1272
11979W        W27448  10.830   7.289  10.463 -0.0205  0.4885  0.0038
11980W        W27449   6.443  11.564  13.182  0.4170  0.0234 -0.0527
11981W        W27450   8.393   7.831   1.335  0.0239  0.1657 -0.0095
11982W        W27451   8.329   2.776  14.533 -0.2132  0.1080  0.5787
11983W        W27452   2.401   5.874   9.486 -0.0705  0.0792 -0.0467
11984W        W27453  17.122  10.284  14.990 -0.0879 -0.3256 -0.0691
11985W        W27454   6.527   5.117  13.275  0.1358  0.0893  0.0941
11986W        W27455   9.551  15.028   2.650 -0.0881 -0.0037 -0.2934
11987W        W27456   0.118  10.109  11.691  0.0101 -0.2624  0.2333
11988W        W27457   9.960   5.058   2.495 -0.1609 -0.0426 -0.2454
11989W        W27458  13.863   5.688   0.925 -0.2894 -0.2921  0.3355
11990W        W27459   1.788   4.071   4.799  0.1210 -0.3216 -0.1788
11991W        W27460   8.875   1.796  13.262 -0.2510 -0.1043 -0.2936
11992W        W27461  17.365   9.478  12.861 -0.2807  0.2902 -0.1722
11993W        W27462   0.963  15.568   3.420  0.1827  0.1188 -0.1011
11994W        W27463   5.346   5.944   1.443 -0.1414 -0.0013 -0.3560
11995W        W27464  15.384   0.849   1.945 -0.1357  0.2557 -0.0875
11996W        W27465  15.595   6.258  12.535  0.2476  0.1113 -0.2960
11997W        W27466   6.380  15.995   2.942  0.2172 -0.0965  0.3077
11998W        W27467   8.348  17.796   1.991  0.2196  0.1363  0.0844
11999W        W27468   9.486   5.993   4.761 -0.0798  0.4607 -0.0745
12000W        W27469   9.596   7.249   4.791 -0.2877  0.0638  0.2544
12001W        W27470   3.006  12.543   9.629  0.1338  0.0327  0.3933
12002W        W27471   3.848  17.821  14.014 -0.1579 -0.1397  0.2625
12003W        W27472   8.041  17.655  13.250 -0.0729  0.2571 -0.0617
12004W        W27473  14.275  18.251  10.932  0.0998  0.1207 -0.0087
12005W        W27474   0.343   3.843   5.304  0.2927  0.3512  0.2871
12006W        W27475  13.118  17.930   4.780  0.0301  0.0943 -0.1660
12007W        W27476   0.491   8.394  10.859 -0.2099  0.1986 -0.0398
12008W        W27477  18.848   1.123  13.969  0.0737  0.2346  0.2089
12009W        W27478  17.285   5.719  12.362 -0.1083 -0.1431  0.1273
12010W        W27479   8.111  16.951   4.360 -0.0582  0.0701 -0.3156
12011W        W27480  11.442  14.672   4.815 -0.1502 -0.0407 -0.0263
12012W        W27481   4.179   5.927  13.997  0.2113  0.1646  0.2109
12013W        W27482   2.192  12.563   5.622 -0.2921 -0.0717 -0.3524
12014W        W27483   7.762  10.136   3.432  0.0102 -0.2278  0.0471
12015W        W27484   8.987  14.803   4.720 -0.0384 -0.1323  0.1248
12016W        W27485  13.128  11.943   0.255  0.4607  0.0950  0.1053
12017W        W27486   5.768   1.728  13.651  0.3521 -0.1684  0.1434
12018W        W27487   2.826  15.308   2.318  0.0467  0.2309 -0.0200
12019W        W27488  18.068   2.197   3.637 -0.2813 -0.1244  0.1742
12020W        W27489   6.476   4.717   0.831 -0.0003 -0.1547  0.0292
12021W        W27490  11.022   1.745   1.301 -0.1240 -0.1290  0.1671
12022W        W27491  13.711   6.402   3.695  0.4995 -0.4697  0.2344
12023W        W27492   5.528   0.749  15.342  0.1054  0.4341  0.0838
12024W        W27493   7.916  15.329  13.414 -0.2484  0.4743  0.0587
12025W        W27494  14.477   1.556  10.759 -0.0522 -0.2874 -0.2976
12026W        W27495  11.477   9.008   2.327 -0.1414 -0.0719 -0.1434
12027W        W27496  17.986   1.371  15.041  0.1342 -0.2837  0.1170
12028W        W27497   1.586  11.492  10.394 -0.0256  0.1292  0.1189
12029W        W27498  10.330  12.308   0.608  0.1720  0.0172  0.0269
12030W        W27499   4.530   1.472   1.766 -0.1178 -0.0204  0.1367
12031W        W27500   1.051  13.629   0.070  0.2125 -0.0325  0.0225
12032W        W27501   5.599   1.719   3.235 -0.1786 -0.2516 -0.2430
12033W        W27502   6.479  15.179  12.060 -0.2566  0.1233 -0.0983
12034W        W27503   1.691  14.743   3.788  0.4697 -0.1109  0.2073
12035W        W27504   2.166   4.598   5.626  0.0973 -0.3859 -0.0697
12036W        W27505  13.413   5.526   2.806 -0.3538 -0.0249 -0.0662
12037W        W27506   9.081  17.880   0.402  0.3711 -0.1400  0.2137
12038W        W27507  17.896   2.033   5.032 -0.1246  0.0455 -0.0173
12039W        W27508   1.557   6.701   0.987 -0.0312  0.2085  0.0350
12040W        W27509  18.512   4.817  14.011 -0.2213  0.1442  0.1057
12041W        W27510   4.041  12.703   2.501 -0.0208  0.0572  0.2886
12042W        W27511  18.312   4.568   0.769  0.0284  0.1254 -0.1565
12043W        W27512   5.872  16.530   5.331  0.2403 -0.0542  0.0992
12044W        W27513   0.657   3.954  11.875  0.1537 -0.0477 -0.0850
12045W        W27514  13.877   0.092   4.683  0.4419 -0.1049 -0.2272
12046W        W27515  12.080  14.939  11.808  0.0899 -0.1728 -0.0642
12047W        W27516   6.100  13.202   2.605  0.1003 -0.1311 -0.4204
12048W        W27517  13.615  14.985   0.949 -0.0411 -0.2906 -0.0886
12049W        W27518   0.590  10.808   4.842  0.1068 -0.1359 -0.2228
12050W        W27519   4.764  11.677  11.682  0.2139  0.1960 -0.1130
12051W        W27520   1.064  17.561  15.336 -0.2793  0.0461 -0.0556
12052W        W27521  11.866   3.467   0.218  0.0768 -0.1821  0.2015
12053W        W27522   2.813   2.128  13.609  0.0617  0.0063 -0.2604
12054W        W27523   8.225   1.242  15.342 -0.4647  0.0416 -0.4130
12055W        W27524  13.351   7.508  10.985 -0.1901 -0.1996 -0.4303
12056W        W27525   4.379   6.724   2.017 -0.0332  0.2655 -0.0342
12057W        W27526  14.402   1.149   3.651  0.1329  0.0378  0.2075
12058W        W27527  17.384  13.825   0.330 -0.0408  0.0534 -0.1153
12059W        W27528  12.224  11.938  11.559  0.0601  0.0499  0.0816
12060W        W27529  10.563  18.729  10.976 -0.2012 -0.0316 -0.0111
12061W        W27530   1.965  16.660   0.489 -0.0006  0.0662  0.0416
12062W        W27531  15.622  15.572  15.455 -0.0529  0.1140 -0.3493
12063W        W27532   7.097  11.533  15.317  0.1881  0.0047  0.2697
12064W        W27533   2.864   6.283  12.639  0.1651 -0.1966  0.1023
12065W        W27534   1.570  14.929   4.971 -0.0864 -0.1742 -0.1813
12066W        W27535   3.426   7.714   1.638 -0.2556  0.0357  0.4743
12067W        W27536  16.899  14.066   4.301 -0.0878  0.0684  0.0719
12068W        W27537  13.795  18.658   2.106 -0.1097 -0.3359 -0.1253
12069W        W27538  17.274   6.623   0.685 -0.0046  0.4165 -0.0853
12070W        W27539  14.810  17.542   4.193 -0.3123 -0.0651  0.2496
12071W        W27540   0.668   2.312   4.508 -0.1837  0.0270 -0.2044
12072W        W27541   5.626  16.786  14.817  0.0217  0.0344 -0.0650
12073W        W27542   2.312  10.544  11.710  0.0339  0.3499  0.0190
12074W        W27543   2.657   7.723   4.998  0.2388  0.1947 -0.4207
12075W        W27544   5.877  14.386  10.761  0.4230  0.3856 -0.5648
12076W        W27545   8.810  12.184   5.160 -0.2778  0.0204  0.2692
12077W        W27546   9.155  12.276   2.742  0.1706 -0.2950  0.0346
12078W        W27547   2.076   2.916  12.863 -0.0357  0.1350  0.0674
12079W        W27548   4.806  13.416   5.818  0.1078 -0.2986  0.0066
12080W        W27549  14.830  18.109  12.800  0.0193  0.1855  0.0205
12081W        W27550  14.063   2.627  12.451 -0.1195  0.1925  0.3956
12082W        W27551   9.653  15.127   5.986 -0.0010  0.3940 -0.1695
12083W        W27552  12.736   4.323   1.249 -0.1841  0.2298 -0.1088
12084W        W27553  10.417   9.554  14.388 -0.2768 -0.1197 -0.2922
12085W        W27554  16.990   4.160  10.824 -0.1960  0.3081 -0.0579
12086W        W27555  18.171   7.060  10.614 -0.1112  0.0724  0.2082
12087W        W27556   3.093  12.230  15.484 -0.0523  0.0781  0.0960
12088W        W27557   1.569  13.792  13.169  0.4082  0.1646 -0.0183
12089W        W27558  15.321   9.060  13.655 -0.2107 -0.0953 -0.0936
12090W        W27559   3.649   5.951  11.348 -0.1811 -0.2246  0.2223
12091W        W27560   8.401  10.257   3.706 -0.1693 -0.0181 -0.2997
12092W        W27561   1.873  17.899  11.935  0.1433 -0.2679 -0.1249
12093W        W27562  18.540   5.982   2.166 -0.0520 -0.1508 -0.1915
12094W        W27563  14.637   9.896  12.434  0.0292 -0.0002  0.0691
12095W        W27564   9.760   0.257   2.812 -0.1337 -0.1575  0.0315
12096W        W27565  13.586  11.924   4.178  0.1334  0.0623 -0.0940
12097W        W27566   7.904  16.902  13.493  0.0109  0.0848 -0.2715
12098W        W27567   0.689   6.303  12.111  0.0670  0.2931 -0.0595
12099W        W27568   8.169   0.583   4.146 -0.1663  0.1825 -0.0309
12100W        W27569   7.974   7.475   4.748  0.0700 -0.3200 -0.2065
12101W        W27570   1.861  15.541  13.786  0.1221  0.0694 -0.0473
12102W        W27571  14.050   1.189   0.882 -0.4072 -0.1355 -0.1871
12103W        W27572  13.865  12.193   3.840 -0.2534  0.3403  0.2988
12104W        W27573   7.974   0.772   0.763 -0.0160  0.0178  0.1862
12105W        W27574   5.546  15.378  12.089 -0.1790  0.1746 -0.1416
12106W        W27575  13.699   4.539   1.533  0.1501  0.0235 -0.0586
12107W        W27576  12.708   6.334  13.086  0.3786  0.1339  0.2799
12108W        W27577   3.748  15.655   3.134 -0.1603  0.0690  0.0558
12109W        W27578  16.056   5.058  12.678 -0.0761  0.3077  0.1479
12110W        W27579  13.271  14.951   3.708  0.0549 -0.1366  0.0192
12111W        W27580   8.845   5.718   3.785  0.3021 -0.0218 -0.1768
12112W        W27581  15.454   1.048   3.449 -0.0170  0.0011 -0.0155
12113W        W27582  18.615  11.875   3.088  0.1522 -0.2900 -0.1659
12114W        W27583   7.515   1.512  13.055  0.4729  0.0694 -0.1448
12115W        W27584  13.046   2.356   3.360 -0.0436 -0.0288 -0.1188
12116W        W27585  13.884  12.345   3.376 -0.2321  0.1982  0.0487
12117W        W27586   3.893  10.664   1.684 -0.1082  0.0789  0.1056
12118W        W27587   0.257   6.980  10.845  0.0192  0.2224 -0.0773
12119W        W27588  14.248  14.963   2.651  0.0612  0.0672 -0.1361
12120W        W27589  13.191   1.514   0.634 -0.3478  0.0118  0.1143
12121W        W27590  13.237   2.714   3.062 -0.0888 -0.0814  0.3364
12122W        W27591  12.872   5.746   2.589  0.2555  0.1785  0.1371
12123W        W27592   9.855   1.297  12.198  0.0695 -0.0482  0.2885
12124W        W27593  15.693   8.112  12.157 -0.0979 -0.0252  0.1953
12125W        W27594  13.447  16.164   5.422  0.2548 -0.2565  0.0389
12126W        W27595   1.275  18.788  14.998  0.2112 -0.1103  0.0717
12127W        W27596   7.653  17.169   4.545 -0.0037 -0.3680 -0.1004
12128W        W27597   6.307   3.070  13.337 -0.0084 -0.0187  0.2546
12129W        W27598   9.905   5.835  12.002  0.2605 -0.0426 -0.1392
12130W        W27599  12.420  13.012  11.754  0.3489  0.1024 -0.1938
12131W        W27600   2.839  18.463  13.524  0.1491 -0.1601  0.1609
12132W        W27601  17.881  11.734   2.737 -0.2419  0.2422  0.0310
12133W        W27602   8.780   0.460  11.664 -0.2066  0.3301 -0.2369
12134W        W27603  14.216  17.876   3.403  0.3188  0.3037 -0.1146
12135W        W27604   1.383   7.269   0.290 -0.0802  0.3976 -0.0034
12136W        W27605  17.793   4.598  13.729  0.1836 -0.1511  0.1439
12137W        W27606   3.078   4.886  13.309 -0.1575 -0.0709 -0.0536
12138W        W27607   7.296  11.700   4.361 -0.1752 -0.1234  0.0547
12139W        W27608  11.452  10.894  11.762 -0.0788  0.0360 -0.2597
12140W        W27609  14.036   8.397   4.099 -0.2044 -0.0520 -0.1662
12141W        W27610  11.912   0.860   0.995 -0.3599  0.3398 -0.0657
12142W        W27611   6.127  18.657  15.340  0.0333  0.0585 -0.1047
12143W        W27612   4.769   3.513   4.555  0.1090 -0.0423 -0.1065
12144W        W27613  13.914  10.865  10.611 -0.1198 -0.0632 -0.0914
12145W        W27614  10.774  16.874  14.930 -0.1409 -0.1741 -0.3710
12146W        W27615   1.743  11.128   3.353 -0.0040  0.0537  0.0494
12147W        W27616  14.846  12.849  12.145  0.1306 -0.2967  0.1422
12148W        W27617   8.905   1.789  10.664  0.1242 -0.0135 -0.3627
12149W        W27618  14.789  14.957  14.403  0.1803  0.1282  0.1174
12150W        W27619  15.534   3.787   0.626  0.3071  0.0321 -0.1546
12151W        W27620   9.269  14.710  13.426  0.1356 -0.4437 -0.1898
12152W        W27621   6.359  18.222   2.103 -0.0306 -0.0936  0.0017
12153W        W27622  15.516  11.164  15.112  0.1128 -0.1706 -0.0821
12154W        W27623   6.803  18.289   2.278  0.3117 -0.1169 -0.1100
12155W        W27624  16.518   8.339   0.686 -0.1757  0.1131 -0.4706
12156W        W27625   2.064   5.042   2.628 -0.0211  0.2115  0.0339
12157W        W27626  10.443   8.157   2.535 -0.1324 -0.2021  0.1924
12158W        W27627  10.384  10.063   0.415 -0.2520 -0.0928 -0.1517
12159W        W27628   8.855   6.837   1.042  0.0235  0.3133  0.0181
12160W        W27629  16.688   3.119   5.101 -0.1252  0.5209  0.1297
12161W        W27630  16.213   1.983   2.983  0.0975 -0.2256  0.0402
12162W        W27631   4.707   7.785  12.836 -0.3224  0.1779  0.1019
12163W        W27632   9.649  10.896  10.265 -0.3624  0.0592  0.1044
12164W        W27633   5.135  18.515  10.903 -0.1282  0.1639  0.0203
12165W        W27634   3.554  10.512  12.505  0.2345 -0.0400  0.3964
12166W        W27635  10.809   8.632  11.728 -0.2454 -0.0322 -0.1285
12167W        W27636   2.291  12.903  12.521  0.0674 -0.1766 -0.0538
12168W        W27637   4.643  13.902   0.695 -0.2175 -0.0575  0.2166
12169W        W27638  18.397  11.750   1.727  0.0877 -0.1142  0.0452
12170W        W27639  10.261  11.031  10.814 -0.0641 -0.1668  0.0204
12171W        W27640   2.379  15.705   9.993 -0.2355 -0.2326  0.1388
12172W        W27641   3.014   3.763  11.574 -0.1431 -0.3032  0.1944
12173W        W27642   7.357   4.601   1.317 -0.3689  0.2301 -0.2171
12174W        W27643  16.570   4.412  10.946 -0.1102 -0.2527  0.2585
12175W        W27644   1.145   5.295   1.616 -0.2626  0.2971 -0.1975
12176W        W27645  14.333  14.969   5.012 -0.4570  0.0513 -0.1595
12177W        W27646  10.776  10.363   1.666 -0.1756  0.1509  0.0314
12178W        W27647  15.642  16.952  11.256  0.1080  0.1635  0.1000
12179W        W27648  17.457  18.714  11.668  0.0992 -0.0524  0.0818
12180W        W27649   7.348   6.132  13.986  0.0836 -0.2264  0.2252
12181W        W27650   0.648  11.889   1.958  0.0909 -0.3568 -0.1098
12182W        W27651   8.873   6.838   3.285 -0.0878 -0.4540  0.0675
12183W        W27652   9.427   3.222   1.605  0.1688 -0.0021  0.3159
12184W        W27653   0.552  16.667  14.065 -0.1186  0.5984 -0.0939
12185W        W27654  15.044  11.445   2.508  0.1849  0.0064 -0.0308
12186W        W27655  14.195  13.301   2.921  0.0159  0.3496 -0.2544
12187W        W27656  17.976   5.199  12.114 -0.1623 -0.0900 -0.1649
12188W        W27657  16.528   5.139   0.765  0.0137  0.1522 -0.1609
12189W        W27658  12.009  11.063  15.218  0.0428 -0.1703  0.0735
12190W        W27659  18.611   7.448  14.948 -0.1111  0.4347  0.2322
12191W        W27660  12.361   3.911  13.114  0.0506  0.0224 -0.0404
12192W        W27661  14.262   6.323  10.983  0.2758 -0.3595  0.2396
12193W        W27662   2.792   7.041  12.492 -0.2624 -0.0778 -0.2384
12194W        W27663  18.180  17.050   2.785  0.0810 -0.0829  0.3590
12195W        W27664   0.059   7.037   2.852  0.1532 -0.0274  0.2141
12196W        W27665  12.481   4.356   3.080 -0.0920 -0.1755  0.4276
12197W        W27666   2.016  13.651  13.271  0.0195  0.0574 -0.2204
12198W        W27667   3.139  13.039  11.090 -0.3408  0.1011 -0.3067
12199W        W27668  15.927  16.567   2.070 -0.1355  0.1296  0.0326
12200W        W27669   1.845   1.226  14.831  0.0306 -0.1027 -0.0916
12201W        W27670  15.482   7.149   2.513 -0.0590 -0.2303 -0.4976
12202W        W27671  14.650  12.820   2.174 -0.0155  0.0781 -0.0230
12203W        W27672   2.628  15.040   4.139 -0.0426 -0.0976 -0.3071
12204W        W27673   4.685   3.275  11.859 -0.0499  0.4673  0.0729
12205W        W27674   2.603   1.015  12.178 -0.0909 -0.1132 -0.4171
12206W        W27675  13.295   7.742  13.304  0.1697  0.0860 -0.4012
12207W        W27676   1.954  15.119   3.342  0.0114 -0.0855 -0.4224
12208W        W27677   5.346  12.932  12.349  0.0851  0.2465 -0.2355
12209W        W27678  17.268   7.410   1.320  0.2526 -0.2744  0.3318
12210W        W27679   7.068   1.936   4.872 -0.2499  0.0101 -0.2617
12211W        W27680   2.174  15.576   3.240 -0.0010  0.2046  0.1868
12212W        W27681   4.111  11.182   1.470  0.1304 -0.0201  0.1625
12213W        W27682  12.234   1.812  12.140 -0.1814 -0.3780  0.1159
12214W        W27683  18.682  14.337   3.264 -0.0097 -0.0443 -0.0272
12215W        W27684   2.420  17.786  11.971 -0.0551  0.4581 -0.3589
12216W        W27685  17.272   6.247  14.414  0.0846  0.0733 -0.2812
12217W        W27686  14.699   1.363   3.263 -0.0943  0.1069 -0.3343
12218W        W27687   9.895   8.794  12.424 -0.1417 -0.2455 -0.2543
12219W        W27688  18.512   0.501  11.394  0.0133 -0.1353 -0.1007
12220W        W27689   4.745  10.167   1.510 -0.0685  0.0573 -0.3558
12221W        W27690   8.183   6.451  12.666  0.0026  0.1265  0.5641
12222W        W27691   0.591   1.380  13.999  0.0242 -0.1288 -0.1642
12223W        W27692   2.832  13.413   4.138  0.0942  0.1696  0.1846
12224W        W27693  12.463  18.937   5.207  0.0762  0.0662  0.1472
12225W        W27694   4.167   8.428  11.327 -0.4557  0.0287 -0.0604
12226W        W27695   6.622  10.363   4.683 -0.5632  0.2421 -0.0192
12227W        W27696   9.629   1.777  10.687  0.0950 -0.3213  0.1699
12228W        W27697   3.669  15.396   5.867 -0.2402 -0.1956  0.0191
12229W        W27698   4.359   5.659  15.446  0.2292 -0.3610  0.0674
12230W        W27699  12.723   2.238   2.493  0.0872  0.0627  0.3890
12231W        W27700   1.492   5.356   4.149 -0.2560 -0.2620  0.0015
12232W        W27701  10.309  16.683  11.084  0.1221 -0.2589  0.4093
12233W        W27702  11.496   8.571   2.667  0.1445  0.0060  0.0817
12234W        W27703   1.180  12.876   0.495 -0.5494  0.0079  0.0719
12235W        W27704   5.999   7.154  10.416 -0.0395  0.0461 -0.1295
12236W        W27705   0.837   3.087   1.492  0.0630  0.1091  0.0185
12237W        W27706  15.242   6.715   2.236  0.0316  0.2137  0.1568
12238W        W27707  16.772   4.230   0.245 -0.1488  0.1026  0.1698
12239W        W27708  16.730   6.475   5.750 -0.1473  0.1343  0.1837
12240W        W27709  11.698   4.451   1.513  0.0633  0.2011 -0.0192
12241W        W27710   7.864   8.821  13.862 -0.1034  0.2168 -0.2837
12242W        W27711   1.103  16.552  13.802 -0.1494 -0.1477  0.0036
12243W        W27712  15.611  15.211  10.448  0.2613  0.1750 -0.0009
12244W        W27713  15.570  12.282   1.573  0.0367  0.0366  0.1971
12245W        W27714  15.714   2.161   3.874  0.0310 -0.1218  0.0277
12246W        W27715   8.907   5.091   4.609  0.0980 -0.0030 -0.2472
12247W        W27716  12.002   0.335   1.082  0.0755 -0.3969  0.0143
12248W        W27717  16.179  14.113  13.970 -0.1433 -0.1582  0.0375
12249W        W27718   3.880  10.110  11.136 -0.0062  0.6103 -0.1316
12250W        W27719   0.203   2.940   5.225 -0.1188  0.0999 -0.0777
12251W        W27720  11.645   9.074  10.494  0.1344  0.1596 -0.0158
12252W        W27721   6.642  11.983   0.927 -0.1339  0.1533  0.0777
12253W        W27722   9.870  15.086   2.309  0.0752 -0.1460  0.3303
12254W        W27723   0.583  16.653   0.836 -0.0090  0.0453  0.1281
12255W        W27724  15.041   2.356  15.454  0.1352  0.0361 -0.1411
12256W        W27725   4.092  16.318  10.629  0.0039 -0.1231  0.0404
12257W        W27726   5.110   6.862  12.103 -0.0169 -0.0209  0.0313
12258W        W27727  11.206   0.028  15.229  0.1237 -0.1130  0.0590
12259W        W27728  15.023   4.425   2.274 -0.2834 -0.1147  0.1604
12260W        W27729   3.930   9.731   0.116 -0.2129 -0.0476 -0.2181
12261W        W27730   5.143  18.770  12.065 -0.1414  0.3186  0.2614
12262W        W27731  11.949  17.943  11.435 -0.0518 -0.0185 -0.0954
12263W        W27732   2.241   7.830   4.683  0.0376  0.1380  0.0672
12264W        W27733  11.749   2.437   3.983  0.0272 -0.1967  0.3046
12265W        W27734   6.647   2.590  14.696  0.0953  0.0313  0.2825
12266W        W27735  17.791   5.227  10.649 -0.0153 -0.1706  0.0845
12267W        W27736  13.071   6.201  11.058  0.0596 -0.1843 -0.1934
12268W        W27737   0.016   9.057   2.857  0.1977  0.0110  0.1372
12269W        W27738   3.852  10.646  14.627 -0.0011 -0.0523  0.0304
12270W        W27739   4.111  12.351   0.249  0.5236  0.1605  0.2852
12271W        W27740  13.999   3.373   1.104 -0.1868 -0.1023  0.2996
12272W        W27741   3.351   6.155   3.520 -0.2467  0.0520  0.0641
12273W        W27742  18.260   0.931  13.772 -0.1413 -0.0657  0.0528
12274W        W27743  11.905   4.820  12.777  0.2723 -0.1597 -0.1176
12275W        W27744   0.851  10.429  12.257 -0.0415 -0.1760 -0.1001
12276W        W27745   3.576  11.179   3.071  0.4812  0.2151  0.0980
12277W        W27746  13.938  17.560   0.786  0.1376  0.2205  0.2437
12278W        W27747  10.730  14.341  12.845  0.0131 -0.2080 -0.1062
12279W        W27748   1.789  10.357   1.319 -0.5723 -0.3221 -0.0787
12280W        W27749  13.999  13.908   1.420 -0.0310 -0.2110  0.0320
12281W        W27750  14.475   6.886  13.940  0.0498  0.1286 -0.1863
12282W        W27751   2.832  14.994  14.409  0.1190  0.1004 -0.0726
12283W        W27752   2.701   8.465   2.796  0.0059 -0.2724  0.1197
12284W        W27753   1.111  12.917   3.261  0.4106  0.2111  0.1632
12285W        W27754   7.893   4.175  12.462  0.2269 -0.0042 -0.1498
12286W        W27755  16.173  18.678  11.779  0.2044  0.0621 -0.0651
12287W        W27756   1.607  13.874  12.032 -0.1973  0.2746 -0.1442
12288W        W27757  15.395  13.448  13.555 -0.0519  0.2696 -0.0361
12289W        W27758   0.051  15.081  14.215 -0.1512 -0.0676 -0.0868
12290W        W27759  14.660  18.773   1.161 -0.1773  0.1604 -0.1304
12291W        W27760  13.250  17.632  12.067 -0.0639  0.0834 -0.0595
12292W        W27761  11.548   5.485  10.734 -0.0436 -0.0656  0.2630
12293W        W27762   2.882   4.905   0.961  0.1747  0.3222 -0.3814
12294W        W27763  16.958   2.067  10.207  0.1590  0.0097 -0.1885
12295W        W27764  10.588  11.753   3.553 -0.0681  0.1389  0.0774
12296W        W27765   7.855   3.781   0.636  0.1673 -0.2151 -0.4321
12297W        W27766  12.506   8.323   4.510 -0.1278 -0.0565  0.2440
12298W        W27767  16.330   4.923  15.003 -0.0725 -0.0726 -0.3027
12299W        W27768  16.666   8.523   0.029 -0.4759  0.3246  0.1355
12300W        W27769  18.205  11.249   0.723 -0.1588  0.0608 -0.1884
12301W        W27770   2.114   5.275  14.749  0.2470  0.1286  0.3476
12302W        W27771  12.767   7.910   0.806  0.1214  0.0194 -0.2246
12303W        W27772  12.243   0.139   3.081 -0.0569  0.1438 -0.3677
12304W        W27773  17.336  13.852   5.859 -0.0015  0.2626  0.3471
12305W        W27774   9.407  15.362   6.365  0.3151  0.1844  0.0431
12306W        W27775  12.639  18.740  10.693 -0.0183  0.0593 -0.1411
12307W        W27776   8.040   7.761  14.342 -0.3965 -0.1611 -0.3494
12308W        W27777   9.195   4.643   3.061 -0.1714  0.0108 -0.1791
12309W        W27778   8.383  18.487   4.920 -0.4031  0.0437  0.1706
12310W        W27779   9.861   2.013  12.621 -0.0813 -0.0455 -0.0074
12311W        W27780  18.773  13.013   0.531 -0.0464  0.0295 -0.0812
12312W        W27781  10.125   7.930  13.914  0.2652 -0.0056 -0.0907
12313W        W27782   9.318  18.448  11.377 -0.1881 -0.1275 -0.1609
12314W        W27783  16.147  12.333   2.654  0.2226 -0.0401  0.1541
12315W        W27784  10.229   9.474   2.957 -0.0297  0.0105  0.0505
12316W        W27785   8.006   0.715  15.384  0.1047  0.1238  0.3534
12317W        W27786  10.600   6.113  13.520 -0.1170  0.2629  0.0921
12318W        W27787  14.598  11.229   5.016 -0.1625 -0.0608  0.0807
12319W        W27788   7.364  12.183   0.548 -0.1785  0.5031 -0.0584
12320W        W27789  13.014   8.283   4.470  0.1845  0.1204 -0.0668
12321W        W27790  18.721   2.145   3.698 -0.0385 -0.1317 -0.0356
12322W        W27791  12.793   7.686  13.884 -0.0673  0.1351 -0.1178
12323W        W27792   4.074  18.792   3.199 -0.0416 -0.0999  0.3820
12324W        W27793   0.588   3.365   5.154 -0.0570 -0.1634  0.0874
12325W        W27794   0.985  17.857  11.722  0.0556 -0.0654 -0.1215
12326W        W27795  16.120  10.555  15.364 -0.2828  0.1376  0.0040
12327W        W27796  16.898  15.145   9.886 -0.1710  0.0374 -0.0693
12328W        W27797  12.557  11.789   4.309 -0.1666  0.1311 -0.1242
12329W        W27798   3.993   6.754  11.836 -0.1060  0.1545  0.1775
12330W        W27799  12.331   3.553  13.450 -0.1729 -0.2499 -0.0899
12331W        W27800   4.995  16.656  13.224 -0.2906  0.0651  0.1298
12332W        W27801  12.938  16.875   4.009 -0.5566 -0.2902 -0.1113
12333W        W27802   7.132   6.212  12.950 -0.1077 -0.1386 -0.4433
12334W        W27803  11.522   4.704  15.242  0.3257  0.0455 -0.2725
12335W        W27804  10.964   4.107   0.544 -0.0504  0.3393  0.1247
12336W        W27805   7.266   7.243  13.323 -0.2268 -0.1697 -0.1134
12337W        W27806  18.008   4.276   0.056 -0.0640 -0.0861 -0.0360
12338W        W27807  15.544   2.837  13.153  0.2202  0.0398  0.1854
12339W        W27808   7.990   8.003  11.942  0.2527 -0.0893  0.2148
12340W        W27809   6.321   1.133   5.858  0.1160  0.2808 -0.0706
12341W        W27810  15.599  17.395  14.225 -0.0710 -0.3779  0.0233
12342W        W27811  14.199   1.564   3.865 -0.0705  0.1132 -0.1675
12343W        W27812   8.686   6.751   2.811 -0.0646  0.0342 -0.0646
12344W        W27813   4.522   4.072   2.842 -0.0061  0.0976 -0.0233
12345W        W27814   3.333  16.738  11.537  0.1783  0.2089 -0.0315
12346W        W27815   8.286  18.717  14.646 -0.3138 -0.0739 -0.0613
12347W        W27816   8.049  18.583   2.756  0.4557 -0.0661 -0.2203
12348W        W27817  12.479   0.390   2.643 -0.0960  0.0080 -0.0994
12349W        W27818  11.195   7.920  11.829  0.0328  0.2023  0.2458
12350W        W27819   2.503   4.033   2.314  0.2547  0.1254  0.0587
12351W        W27820  12.852  18.125   5.708  0.1737 -0.1660 -0.0169
12352W        W27821   4.864   3.992  13.238 -0.2877  0.3055 -0.0639
12353W        W27822  13.883  13.783   2.379  0.1420  0.1425  0.1102
12354W        W27823   6.165   7.014  14.654  0.1311  0.0481  0.3719
12355W        W27824  11.261  11.728   4.520  0.0136  0.0308 -0.0593
12356W        W27825   1.600   3.128  10.550  0.0927 -0.0106  0.0139
12357W        W27826   4.653   0.304  11.412 -0.1349 -0.0744  0.1013
12358W        W27827   9.560  11.135   1.539  0.2395 -0.0607  0.0143
12359W        W27828   0.653  18.908   1.989  0.1614 -0.0184 -0.1276
12360W        W27829   2.135  16.407  10.880  0.1698 -0.0083 -0.1542
12361W        W27830   1.908   0.795   1.979 -0.0453 -0.0585  0.1388
12362W        W27831   3.429  17.402   4.808  0.1241  0.0243 -0.0757
12363W        W27832   0.700   5.710  11.463 -0.3487  0.0857 -0.1666
12364W        W27833   3.776   1.974  11.761  0.1928 -0.0420 -0.0216
12365W        W27834   8.855   7.179  12.227 -0.2224 -0.1930 -0.0720
12366W        W27835  16.910  17.115  14.517  0.3413  0.2338  0.0123
12367W        W27836   3.492   6.995   3.094 -0.0410 -0.3105  0.1740
12368W        W27837   6.141   1.592   4.806 -0.1053 -0.0874  0.3318
12369W        W27838  18.408  16.428   3.770 -0.1575  0.1815  0.0703
12370W        W27839   8.236   3.809  13.545 -0.1117 -0.1607 -0.2101
12371W        W27840   9.522   0.672   9.454 -0.1211 -0.1384 -0.2992
12372W        W27841   4.264  16.581  12.758 -0.0699 -0.1659  0.1893
12373W        W27842  14.441   8.085  11.626  0.1798 -0.1560 -0.3007
12374W        W27843   3.280  11.383   0.985  0.1962 -0.0044  0.0310
12375W        W27844   8.094  10.479   2.727 -0.0556 -0.3024  0.0553
12376W        W27845  11.618   1.637   2.913  0.2161 -0.0708 -0.1436
12377W        W27846   0.006  12.353   3.738  0.0549  0.2790  0.0120
12378W        W27847  13.999   2.282   4.639 -0.1241  0.1644 -0.1557
12379W        W27848  10.477   6.800   0.127 -0.3110  0.2220  0.2829
12380W        W27849  12.049   7.698   0.104 -0.2826  0.0572  0.1559
12381W        W27850  17.493  11.516  15.008  0.5008 -0.2938  0.0094
12382W        W27851   5.030  14.701  15.459  0.0926  0.0301  0.1128
12383W        W27852   6.396  18.644   0.659 -0.3277  0.1624  0.3983
12384W        W27853  13.127  13.052   4.095 -0.1261 -0.0428 -0.2220
12385W        W27854  12.242  14.941  14.731 -0.4058 -0.1545 -0.2775
12386W        W27855  17.140   3.412  15.391 -0.1009  0.0325  0.3347
12387W        W27856   7.387  11.804  13.184 -0.0743 -0.0218  0.1900
12388W        W27857  11.693  14.718  12.948  0.0628  0.3744 -0.5329
12389W        W27858  16.538   4.048   4.170  0.0102 -0.2411 -0.0646
12390W        W27859   9.714  13.010   4.809 -0.0249  0.1452  0.0041
12391W        W27860  16.507   7.632  13.159  0.0554  0.0526 -0.0182
12392W        W27861  16.756  16.811  12.781 -0.0864  0.2221  0.0181
12393W        W27862   7.031  13.188  10.553 -0.0028 -0.0230 -0.0962
12394W        W27863  18.258  15.905   1.851  0.2845  0.0520 -0.2370
12395W        W27864   5.207  11.047  13.138  0.5102 -0.0543 -0.0500
12396W        W27865   1.557   2.215   0.446 -0.1267 -0.0743  0.1302
12397W        W27866   7.508   9.524  13.307 -0.2440  0.3765 -0.1646
12398W        W27867   4.175   3.905   0.826  0.0474  0.0140 -0.0557
12399W        W27868   2.763   9.116  15.407  0.2241 -0.0067  0.0104
12400W        W27869   6.930   2.952  12.156 -0.0279 -0.1590  0.3871
12401W        W27870  17.288   9.910   2.385 -0.0444 -0.0323  0.0762
12402W        W27871   0.429   6.810  12.978  0.0411  0.3227 -0.1204
12403W        W27872  11.943   2.011  14.765  0.3551 -0.0133 -0.1139
12404W        W27873   1.816   2.900  14.148 -0.5375  0.2559  0.1997
12405W        W27874  16.023  15.221  14.537 -0.1884  0.3341  0.3310
12406W        W27875   9.061   4.006  13.737 -0.0058  0.1625  0.0612
12407W        W27876   9.181  15.173  10.125  0.0580  0.0217 -0.2545
12408W        W27877  11.494   0.849   2.891  0.0465  0.2033  0.4123
12409W        W27878   0.671   1.516  15.423  0.0870  0.0906  0.0608
12410W        W27879  16.701   8.667  12.571  0.1707 -0.1971 -0.1599
12411W        W27880  10.809  13.740   2.169 -0.2085 -0.3262 -0.0060
12412W        W27881   7.384   0.348  15.259 -0.1260  0.1788  0.2359
12413W        W27882   4.863   0.635   1.885 -0.0240 -0.0073  0.2246
12414W        W27883   0.191  15.504  15.153  0.0833 -0.1130  0.2895
12415W        W27884  14.845   4.698  11.381  0.0409 -0.1599  0.2686
12416W        W27885   4.614   6.629  12.061 -0.0637 -0.0792  0.0015
12417W        W27886   7.755   6.322  13.742 -0.1840 -0.1664  0.1715
12418W        W27887  12.406  15.791   4.084 -0.0870 -0.1169 -0.4222
12419W        W27888   9.335  17.113   2.492 -0.1250 -0.2330 -0.1260
12420W        W27889   9.249  14.612  13.971 -0.0359  0.2374  0.1670
12421W        W27890   7.234   0.004   0.697 -0.0104 -0.1062  0.2139
12422W        W27891   9.857  16.403   4.011 -0.1447  0.0250  0.0788
12423W        W27892   0.566   0.096   3.237  0.0808 -0.0546 -0.0391
12424W        W27893   4.644  17.095   4.121  0.1825 -0.0173 -0.0230
12425W        W27894   2.580  12.218  11.294 -0.1618  0.0534 -0.0724
12426W        W27895   1.803   7.163   5.380  0.1875 -0.3765 -0.1823
12427W        W27896  15.593  13.846   4.860  0.1510  0.0946 -0.2133
12428W        W27897   1.059  11.220   4.139 -0.0414  0.1435  0.2912
12429W        W27898   9.286  14.906   0.083 -0.0837  0.0555  0.2745
12430W        W27899   3.428   1.025  11.902  0.1120  0.2881  0.0532
12431W        W27900  14.267  10.974   2.873  0.1275  0.0711 -0.2503
12432W        W27901   9.733   7.726   3.666 -0.3713  0.0832 -0.1617
12433W        W27902  18.282  17.676  13.953  0.0189  0.2243  0.1466
12434W        W27903   9.399  16.668   1.006 -0.0191  0.1013 -0.0980
12435W        W27904   4.008   0.934  11.850  0.0343  0.1773 -0.3598
12436W        W27905   4.538  16.128   2.137  0.0160 -0.0129 -0.1025
12437W        W27906  15.202  18.045   5.378  0.0992  0.1088 -0.0836
12438W        W27907  14.132  13.319  12.425 -0.0434 -0.1141  0.3529
12439W        W27908   6.398   2.628  11.148  0.1575  0.0624  0.2634
12440W        W27909   9.256   8.487  14.293 -0.1366  0.3868 -0.1392
12441W        W27910   7.061  15.204  14.517  0.0628 -0.0184  0.0806
12442W        W27911   3.184   5.288  10.652 -0.0124  0.2219 -0.1370
12443W        W27912   3.962  15.369  15.013  0.1411  0.0201 -0.2637
12444W        W27913  18.110  18.432   4.019 -0.1332  0.3924  0.0142
12445W        W27914  14.434  14.309  14.437  0.1273  0.2344 -0.0082
12446W        W27915  18.529   5.664  12.913 -0.0332  0.4593 -0.0360
12447W        W27916   0.289  16.688   3.090  0.0795  0.3211 -0.0402
12448W        W27917  16.875   7.620  10.725  0.2674  0.0262  0.0826
12449W        W27918  13.868   7.723  11.695  0.1546  0.0695  0.0796
12450W        W27919  16.387  11.433  11.108  0.2935 -0.0910 -0.0596
12451W        W27920   9.627   2.860  12.195 -0.0145 -0.1138  0.0807
12452W        W27921  11.794   4.946  11.193 -0.3344  0.0411 -0.5602
12453W        W27922   1.519  10.292  10.571 -0.0403 -0.0567 -0.1433
12454W        W27923   5.841  15.014   4.292  0.2578  0.3921 -0.0914
12455W        W27924  17.701  18.771   3.526 -0.1541 -0.1419 -0.0188
12456W        W27925   4.977  14.218   5.160 -0.0884  0.0987  0.0463
12457W        W27926   3.679  13.930   3.711  0.2767  0.0166  0.1260
12458W        W27927  10.744   2.802   2.850 -0.1037  0.2326 -0.0827
12459W        W27928   6.812  11.510  14.466 -0.0098  0.0869  0.0466
12460W        W27929  17.591  11.622   4.924  0.1133 -0.3169  0.0522
12461W        W27930  13.981  10.501   4.912 -0.1227 -0.2319 -0.1256
12462W        W27931  10.388  14.270   5.257 -0.1324  0.1167 -0.1382
12463W        W27932  16.305  11.535   4.100  0.0601  0.0895 -0.0892
12464W        W27933   8.471  15.700  12.231  0.0171  0.2852  0.3595
12465W        W27934   4.109   3.414  13.300  0.0040  0.0898 -0.1825
12466W        W27935   7.751   1.572  11.505 -0.1682 -0.0702  0.5983
12467W        W27936   8.609  11.591  11.781 -0.0143  0.1092 -0.1876
12468W        W27937   7.512  13.626  11.232 -0.3829 -0.3568  0.1903
12469W        W27938   2.916   1.371  12.300 -0.2796  0.1499  0.0659
12470W        W27939  17.425   3.684  11.565  0.0272  0.1013  0.0374
12471W        W27940  12.647  10.979  13.419  0.0476 -0.1265 -0.2307
12472W        W27941  17.513  16.318   1.202  0.0579  0.2427  0.2614
12473W        W27942  12.882   2.662  13.651  0.1302 -0.0464  0.2511
12474W        W27943   2.025  13.922  14.758 -0.0300 -0.0644  0.3901
12475W        W27944  17.327   7.585  11.939 -0.1507  0.5758 -0.2017
12476W        W27945   1.997  14.173  12.087 -0.1235 -0.1400  0.2420
12477W        W27946  16.115  11.842   4.974  0.2258  0.0607 -0.0487
12478W        W27947   5.230   6.956   0.279  0.1535 -0.0003 -0.2123
12479W        W27948   3.361  18.540  14.118  0.0873  0.0434  0.0912
12480W        W27949  13.532   5.082  14.346 -0.1597 -0.3439  0.0608
12481W        W27950  15.625   6.480   2.529  0.1277 -0.1067 -0.0001
12482W        W27951  12.907   8.145  13.187 -0.2975 -0.0217  0.1675
12483W        W27952   9.449  13.246   9.799  0.0732 -0.0098 -0.3346
12484W        W27953   4.465  11.897  15.268 -0.1378 -0.1729 -0.1015
12485W        W27954  11.113   7.368  14.620  0.3253 -0.0856  0.1673
12486W        W27955  14.719  16.120  14.466  0.1691  0.2523 -0.0625
12487W        W27956  10.592   4.456  11.703 -0.0247  0.1419  0.0544
12488W        W27957   2.737   8.623   4.701 -0.0084  0.2330  0.4326
12489W        W27958   2.620  18.855  12.680 -0.4024 -0.2932 -0.0111
12490W        W27959  18.190  12.169   4.149  0.0340  0.0236 -0.0506
12491W        W27960   9.884  12.678   0.715  0.1263 -0.1448  0.1514
12492W        W27961  16.657   7.072   3.258  0.3298 -0.1510  0.2751
12493W        W27962  12.712  18.526  10.004 -0.1247 -0.3426  0.0008
12494W        W27963   9.074  14.174   5.257 -0.2598  0.3283  0.0557
12495W        W27964   9.019   7.413  13.982 -0.1756  0.1002 -0.3350
12496W        W27965  14.215   5.858   1.564 -0.0521 -0.0486  0.0480
12497W        W27966   5.427  16.286   1.195  0.2694 -0.1290  0.1472
12498W        W27967  16.669  17.569  11.389 -0.0229 -0.2202 -0.0610
12499W        W27968   6.361  13.944   2.420  0.0382 -0.0161  0.0009
12500W        W27969   5.869  12.450   2.152  0.0314  0.0844 -0.3214
12501W        W27970  17.870  17.662  10.773 -0.2342  0.1993 -0.1071
12502W        W27971   0.048   5.990   3.524 -0.1808  0.0474  0.1629
12503W        W27972  11.087  17.956  15.110 -0.0604  0.0590 -0.1923
12504W        W27973  14.257  16.860  10.788  0.0183  0.1121 -0.0784
12505W        W27974  15.789   3.705  15.215 -0.1922  0.1942  0.0212
12506W        W27975   8.472  14.234  14.550  0.0811 -0.0217  0.1437
12507W        W27976   8.125  13.447   1.721  0.1232 -0.1826  0.0731
12508W        W27977  12.608  17.056   4.703  0.0757 -0.2187 -0.2068
12509W        W27978   9.685   2.318   0.501  0.1058  0.4320 -0.0642
12510W        W27979   2.448   8.948   5.449 -0.2663  0.2088 -0.1328
12511W        W27980   8.751  14.073   4.296  0.1188 -0.1369 -0.1560
12512W        W27981  12.134  18.659   1.800  0.3083 -0.1532 -0.1814
12513W        W27982  14.718  16.176  11.981  0.4493 -0.0455 -0.4088
12514W        W27983  13.939  16.706  11.817  0.1473  0.5210  0.2940
12515W        W27984   5.542   7.518   2.570  0.0172  0.2321 -0.2791
12516W        W27985  13.886  16.118  12.332  0.1945 -0.2738 -0.4538
12517W        W27986   8.886   2.674  13.786 -0.1117  0.2160  0.0583
12518W        W27987   9.404   9.934  11.046  0.1462  0.0756 -0.0989
12519W        W27988   3.459  14.908   1.122 -0.1428 -0.2296 -0.0778
12520W        W27989   0.208  13.098   5.698  0.0441 -0.0115  0.4620
12521W        W27990  10.491   7.205   3.918 -0.1404  0.1734  0.1268
12522W        W27991   8.264   4.565   1.183  0.0698  0.2345  0.3532
12523W        W27992  18.357  12.542  11.423  0.1469  0.0613  0.1587
12524W        W27993   1.536   0.731  11.714 -0.1136 -0.1421  0.1194
12525W        W27994   7.609  13.185  13.194 -0.0363  0.0383 -0.0110
12526W        W27995  12.910   4.590  11.844 -0.0981  0.0973  0.2127
12527W        W27996  11.445  10.708   1.216 -0.0294 -0.0247  0.1086
12528W        W27997  11.189  16.521   4.069  0.1907  0.0683  0.3944
12529W        W27998  16.269   3.315   1.115  0.1176  0.2759  0.0138
12530W        W27999   5.874  11.670  13.385 -0.1353 -0.3050 -0.0234
12531W        W28000  10.834   9.080   5.238  0.0352  0.1822 -0.0045
12532W        W28001  16.514  15.836   4.904  0.0865 -0.1665  0.0445
12533W        W28002  15.925  16.556  12.564 -0.0798 -0.2172  0.0100
12534W        W28003   9.955  14.873  12.760  0.0386  0.0159 -0.0020
12535W        W28004   8.054  11.995  14.704 -0.0734 -0.3730  0.0604
12536W        W28005   6.861   5.253  14.911  0.1692 -0.1564 -0.0374
12537W        W28006  14.736  15.501   3.752 -0.0775 -0.0609 -0.2160
12538W        W28007  11.061  12.879  11.658  0.0126 -0.5464 -0.0628
12539W        W28008   8.979  14.267   0.984  0.3821  0.1811 -0.0860
12540W        W28009   7.709  18.941  12.021  0.1044 -0.0914 -0.3144
12541W        W28010   4.609  13.875  12.631  0.0632 -0.2132  0.0927
12542W        W28011   4.902   0.481   0.072 -0.1561  0.1381  0.2589
12543W        W28012   0.245  11.302   3.308 -0.0747  0.0932  0.1248
12544W        W28013   7.571  15.372  11.595  0.3226  0.0956 -0.0484
12545W        W28014   7.296   7.064   2.386  0.3178  0.1114  0.0615
12546W        W28015  16.730  16.136   5.238 -0.2081  0.2307 -0.0787
12547W        W28016  10.265  17.181   1.376 -0.0183  0.1585  0.0161
12548W        W28017   5.423  14.796   3.101 -0.1214 -0.1245 -0.2333
12549W        W28018   4.745   4.910  15.207  0.2152 -0.0426 -0.1078
12550W        W28019  12.999  12.103  15.157 -0.1936  0.0414 -0.0032
12551W        W28020  18.140  11.910   5.936  0.2963 -0.0983  0.0036
12552W        W28021  11.370   0.102  10.239 -0.0428  0.2623  0.1362
12553W        W28022   5.132   4.853   0.090  0.0610 -0.2120  0.4422
12554W        W28023  17.966  12.116  11.140  0.0054  0.2024 -0.4518
12555W        W28024  12.156  11.954   3.981 -0.2248 -0.1249 -0.3617
12556W        W28025  16.777  14.731   1.640 -0.8156 -0.0238 -0.2334
12557W        W28026  13.286   7.863  11.444 -0.1026 -0.1976  0.0534
12558W        W28027   2.129   3.161   5.039  0.0705  0.0360 -0.2302
12559W        W28028   5.903  12.463  12.707  0.1830 -0.2515  0.0109
12560W        W28029  12.429   1.614  14.990  0.1399  0.1595  0.3063
12561W        W28030   3.536  11.637   3.206 -0.0895  0.1921  0.0379
12562W        W28031  14.747   9.233   1.637 -0.0202 -0.0188 -0.0298
12563W        W28032  12.555   3.353   2.058 -0.2633  0.1906 -0.1430
12564W        W28033   1.408   6.175   1.179 -0.0874  0.1205 -0.2316
12565W        W28034  18.132   2.715   0.415 -0.2634 -0.1529 -0.0688
12566W        W28035   3.904  15.304   3.568  0.0549 -0.3367 -0.1331
12567W        W28036  13.118   5.347   1.332  0.0885 -0.0442 -0.1422
12568W        W28037   8.144  17.384   1.676 -0.1033 -0.1477  0.2398
12569W        W28038  15.777  17.486   4.121 -0.4102  0.4214  0.2065
12570W        W28039  13.247   8.460  15.490 -0.1494  0.1384 -0.0873
12571W        W28040   3.882  16.843  15.351  0.0357  0.1695 -0.3774
12572W        W28041   4.698  11.702   2.183 -0.1583  0.5255  0.1159
12573W        W28042   7.071  14.246   2.475  0.2914  0.1526  0.1662
12574W        W28043   4.613   8.609  11.043 -0.3526 -0.1700  0.0197
12575W        W28044  10.994  12.200   2.710  0.1674  0.4134  0.2839
12576W        W28045  16.370   5.664   4.140 -0.0744  0.2585  0.4142
12577W        W28046   7.911   2.211  13.348  0.1196  0.1798 -0.1351
12578W        W28047   4.299  12.433   4.482  0.0123 -0.1483  0.0598
12579W        W28048   3.174   8.573   2.697  0.2129 -0.0149 -0.1839
12580W        W28049  10.306  18.394   2.913 -0.0210  0.2089 -0.0117
12581W        W28050   1.118   6.160   5.142  0.1502 -0.2121  0.2200
12582W        W28051  10.689  10.295   2.225 -0.0020 -0.2499  0.1885
12583W        W28052   4.218   4.959  14.900 -0.1458 -0.2857  0.1683
12584W        W28053  11.001   5.063  13.151  0.1060 -0.0621 -0.0807
12585W        W28054  17.494  18.788  12.713 -0.2139 -0.1202  0.2439
12586W        W28055  10.305  18.495  15.259 -0.1565  0.3345 -0.1651
12587W        W28056   7.567  11.926  14.593 -0.1459  0.1455  0.0248
12588W        W28057  10.941  14.209  13.309  0.3224  0.2066 -0.2359
12589W        W28058  13.409   0.782   5.466  0.0778 -0.0943  0.2918
12590W        W28059  12.737  17.607  10.025  0.0707 -0.4034 -0.0378
12591W        W28060   1.698   5.179  14.261  0.0824  0.0285 -0.2206
12592W        W28061   7.434  14.341   2.768  0.1439  0.0579  0.4238
12593W        W28062   2.218  18.349  10.956 -0.0224  0.2496  0.0566
12594W        W28063  18.173  12.059  11.604 -0.0811 -0.1527 -0.2737
12595W        W28064  16.946   4.605  12.154 -0.0608  0.0807  0.0222
12596W        W28065   5.097   4.114   0.411 -0.0919  0.0855  0.3647
12597W        W28066  10.214   4.564  11.376  0.1957 -0.0596 -0.1410
12598W        W28067   9.754   3.046  11.492 -0.2696 -0.3643  0.0814
12599W        W28068  13.513   5.068   3.577 -0.1861 -0.0136  0.0327
12600W        W28069   9.194  16.469   0.483  0.2429  0.0143  0.0229
12601W        W28070   2.867  12.399   3.425 -0.3196 -0.0713  0.1682
12602W        W28071  10.845   5.966  10.051  0.1122 -0.4229 -0.0044
12603W        W28072  12.892   1.391   4.894  0.1132 -0.0791  0.2910
12604W        W28073   7.272   2.964   2.136 -0.0309 -0.2079  0.1650
12605W        W28074  10.223   3.601  10.182  0.0412  0.2687  0.0555
12606W        W28075  10.991   9.410   4.351  0.0872 -0.0917 -0.2913
12607W        W28076   0.071   9.584  11.685 -0.0870 -0.2356  0.3563
12608W        W28077   3.287   7.692  11.191 -0.0264 -0.2229  0.0573
12609W        W28078  11.343   9.714   4.706  0.1972 -0.1413  0.1198
12610W        W28079  14.079  18.111   0.856  0.0725 -0.1467 -0.2075
12611W        W28080  15.345   5.442  14.539 -0.1150 -0.0541  0.2049
12612W        W28081  18.032  17.357   3.788 -0.0426 -0.1167 -0.0650
12613W        W28082   3.376  15.487   1.665  0.0827 -0.1227 -0.1672
12614W        W28083   2.473  13.143  13.523 -0.0367  0.0500  0.0721
12615W        W28084   6.343   8.465  10.874 -0.0393  0.0570  0.0648
12616W        W28085   9.221  11.988  14.816 -0.1847  0.1000  0.1549
12617W        W28086   7.421   0.954  10.260 -0.0659 -0.0406 -0.3436
12618W        W28087   9.733   7.680  14.007  0.2129 -0.0277  0.1738
12619W        W28088   9.369   2.674   1.441 -0.3048  0.1436  0.1043
12620W        W28089  12.649   7.448   3.066  0.0827 -0.0806 -0.2189
12621W        W28090   2.833  17.935   0.836  0.0216 -0.1247  0.0451
12622W        W28091   2.177   8.301  15.458 -0.0356  0.2099 -0.0614
12623W        W28092  11.764   1.760  12.006 -0.0436  0.3178 -0.0267
12624W        W28093  10.101  14.011   0.686  0.2297  0.3674 -0.2661
12625W        W28094  13.490   8.913  14.281 -0.1899 -0.4162 -0.1111
12626W        W28095   3.519  15.209  13.683 -0.1248  0.0322  0.1130
12627W        W28096   3.342   9.908  11.114 -0.2312  0.2050  0.1173
12628W        W28097   9.650  15.616   1.461 -0.0946  0.1978  0.2426
12629W        W28098  12.558   3.023  13.363 -0.0936 -0.1399 -0.3470
12630W        W28099   6.117   5.324   9.507  0.0141 -0.1471 -0.0944
12631W        W28100  18.916  15.554  14.083 -0.2358  0.0276  0.0401
12632W        W28101   9.523  15.646   0.793 -0.2170 -0.0892 -0.1346
12633W        W28102  13.090  16.759  10.298 -0.2695 -0.1911 -0.0440
12634W        W28103  10.177   5.297  12.557  0.0746  0.0461 -0.1783
12635W        W28104   3.593   0.720  15.437 -0.1399  0.1165  0.1478
12636W        W28105  17.592   6.177  11.500 -0.1513 -0.0908 -0.4157
12637W        W28106  18.133   7.297  14.427 -0.1890  0.2466 -0.2037
12638W        W28107  17.521  13.208   3.111  0.1085  0.1872  0.1949
12639W        W28108  16.047  15.979   0.611 -0.2230  0.0964 -0.2121
12640W        W28109  12.526  16.181  10.601  0.1449 -0.0894 -0.0943
12641W        W28110   8.216   3.051   3.723 -0.1482  0.0423  0.0393
12642W        W28111  18.315   2.970  14.382 -0.0769 -0.1199  0.0566
12643W        W28112   1.248   5.659  10.483 -0.0480  0.0944 -0.1658
12644W        W28113  10.182  11.750  12.267  0.2157 -0.1123  0.2828
12645W        W28114  15.021  16.983  12.265  0.1369  0.2446 -0.2176
12646W        W28115   5.294   5.558  12.785  0.0793 -0.0457  0.0322
12647W        W28116  15.205   3.285  10.581  0.0930 -0.3843  0.3272
12648W        W28117  18.102  11.068  11.662  0.3693 -0.2547 -0.0321
12649W        W28118  15.769   1.204   9.463  0.1005 -0.3923 -0.0404
12650W        W28119  18.288   5.622   1.605 -0.0873  0.0880  0.0025
12651W        W28120   0.202   1.527   5.521 -0.1123  0.1735  0.2096
12652W        W28121  11.750   7.706  15.221  0.1444  0.1519 -0.0412
12653W        W28122   0.257  18.398   4.400 -0.0865 -0.1859 -0.1672
12654W        W28123   3.628  12.961  12.146 -0.3218 -0.2391 -0.0357
12655W        W28124  17.957   0.413  11.397 -0.2386 -0.0232  0.3969
12656W        W28125   4.845   1.092   6.081 -0.0417 -0.1520 -0.2232
12657W        W28126  16.417   1.149  11.725 -0.0806  0.3524  0.0410
12658W        W28127  12.409   6.747  15.414 -0.1957 -0.3492  0.0486
12659W        W28128  11.287   6.856  14.120  0.3188 -0.3933  0.0520
12660W        W28129   3.836  18.340   0.151  0.1626  0.1513  0.0010
12661W        W28130   5.294  10.549   4.955  0.2984 -0.4113  0.1376
12662W        W28131   8.370   5.869  10.828 -0.0422 -0.0634 -0.3863
12663W        W28132   8.899   0.428   2.671  0.1024  0.1190  0.0500
12664W        W28133   1.198  15.776  11.141  0.0142  0.0753 -0.2580
12665W        W28134   7.095   8.153  12.097 -0.1219 -0.1394  0.0562
12666W        W28135   9.988   0.497   1.353  0.0434 -0.2656  0.1850
12667W        W28136   2.852   5.283  11.660 -0.1303  0.2513  0.1474
12668W        W28137   7.844  12.080  12.105 -0.4711  0.2066 -0.2064
12669W        W28138  17.029  15.923   4.857  0.1450 -0.0215 -0.0935
12670W        W28139   1.224  10.609  12.745 -0.0211  0.0071 -0.1708
12671W        W28140   7.683  10.074  12.202  0.2194  0.0408  0.2665
12672W        W28141   0.951   2.217   0.535  0.1146 -0.0378 -0.1786
12673W        W28142   9.787  18.370  12.066  0.0103  0.0753 -0.0917
12674W        W28143   3.519  16.417   1.154  0.0865  0.1264 -0.0417
12675W        W28144   4.223  13.762   2.270 -0.1198 -0.0602  0.0226
12676W        W28145   1.552  17.844   4.077 -0.0959  0.2619  0.0700
12677W        W28146   8.295   9.179   4.444 -0.1046  0.1528 -0.0406
12678W        W28147  18.766   2.800   4.801  0.0828  0.1515 -0.1868
12679W        W28148   4.313  13.677   3.900 -0.0156  0.2968 -0.1443
12680W        W28149   7.754   8.502  10.859  0.3303  0.0537 -0.3324
12681W        W28150  10.894  16.158   3.946  0.0646 -0.2647  0.2474
12682W        W28151  16.237   0.035  10.751 -0.2053 -0.1729 -0.1694
12683W        W28152  16.356  10.255   5.729 -0.1784 -0.3000  0.2756
12684W        W28153  10.247  15.156  10.070 -0.1358  0.0356  0.1318
12685W        W28154   5.503   2.765   5.170 -0.1098  0.0185 -0.1870
12686W        W28155   7.692   3.446   0.252 -0.3102 -0.1028  0.0780
12687W        W28156  12.511  10.671   0.297  0.0149  0.4176  0.0739
12688W        W28157   2.314   0.544  15.090 -0.0722 -0.0290 -0.1750
12689W        W28158  16.016  15.418   9.893 -0.1623  0.0008  0.1816
12690W        W28159   5.671  13.162  14.151 -0.0818 -0.3522  0.0043
12691W        W28160   5.770   7.161  13.386  0.3245  0.4570  0.0996
12692W        W28161   6.677  18.341  11.650  0.1765  0.1874  0.2285
12693W        W28162  13.014  13.663  12.936 -0.1302  0.0721 -0.1777
12694W        W28163   3.870   8.592   0.239  0.4296  0.0242  0.4429
12695W        W28164   2.166  11.681   4.707  0.0143 -0.4436 -0.0704
12696W        W28165  18.866  12.165  10.640 -0.1941  0.0742 -0.2921
12697W        W28166  18.633  13.356  10.963 -0.1968  0.4404 -0.3036
12698W        W28167   2.504  15.201  12.796 -0.0157 -0.2619  0.3324
12699W        W28168  13.907   3.615  11.804 -0.0382  0.0209  0.1723
12700W        W28169   9.064   4.664   0.007  0.0121 -0.0653  0.0851
12701W        W28170   5.911  17.550   3.266 -0.2503 -0.0837 -0.0788
12702W        W28171   5.520   6.659  15.154 -0.1157 -0.0556 -0.1344
12703W        W28172  12.889   6.519   0.021  0.3957  0.2344  0.0805
12704W        W28173  11.387   6.906   1.965 -0.1137  0.0292  0.1374
12705W        W28174   1.448   6.122   4.041 -0.1545 -0.2997  0.1726
12706W        W28175  13.685  14.680  11.075 -0.0138 -0.1076  0.1447
12707W        W28176  16.944   0.123   3.197  0.0376 -0.0667  0.0999
12708W        W28177  13.299  12.645  10.732  0.2290  0.0699 -0.2217
12709W        W28178   6.613  11.381   3.841  0.2743  0.0197 -0.2160
12710W        W28179  11.090  10.034   1.988  0.0907  0.0388  0.1159
12711W        W28180  12.364  17.921  15.204 -0.3016 -0.0881 -0.1635
12712W        W28181   0.281   5.884   0.404 -0.1436 -0.0102  0.1082
12713W        W28182   9.897   2.619   2.683 -0.1808 -0.0660  0.2714
12714W        W28183   2.662  16.852  14.278 -0.0845  0.1626 -0.0146
12715W        W28184  16.764   4.747  14.406  0.1175 -0.0584  0.1224
12716W        W28185   6.905  12.699  14.172  0.3791  0.1602 -0.3109
12717W        W28186   7.425   8.730   2.741  0.4264 -0.0184 -0.2629
12718W        W28187   3.848   4.100   3.732  0.0832  0.0559  0.3639
12719W        W28188   8.116   2.359   2.798  0.1666 -0.1835  0.3002
12720W        W28189   2.342   4.259  15.268 -0.1547 -0.2066 -0.0611
12721W        W28190   3.988  17.690   0.954 -0.2209 -0.1806  0.1307
12722W        W28191  10.824   3.987  15.225  0.3682 -0.1825  0.1018
12723W        W28192  11.084  13.801  11.119 -0.0784  0.0094 -0.0303
12724W        W28193   2.193  18.721  15.208  0.3075 -0.0860 -0.1163
12725W        W28194   3.440   4.042  10.052  0.0304  0.1751  0.2434
12726W        W28195  14.249   5.496   3.179  0.1375  0.0227 -0.1192
12727W        W28196   5.426  16.429  15.129  0.1829  0.0985  0.0241
12728W        W28197   3.560  13.431   2.511 -0.2320  0.0954  0.1258
12729W        W28198   2.445   9.945  14.075  0.1611 -0.1670 -0.3169
12730W        W28199  12.755  15.720   2.631 -0.0825 -0.2614  0.1118
12731W        W28200   7.379   1.826  12.422  0.0887  0.2658 -0.1549
12732W        W28201  15.519   0.796  10.360  0.2272  0.0807 -0.0466
12733W        W28202   3.271  17.630   1.744 -0.2128 -0.3660  0.2553
12734W        W28203   9.063  17.701   1.230 -0.0323  0.0352 -0.4402
12735W        W28204   0.470  16.625  13.494 -0.0318 -0.0683  0.0213
12736W        W28205   9.761  18.286  11.172 -0.0690  0.0564 -0.0377
12737W        W28206   4.998   1.378  13.786 -0.2071  0.1647 -0.0113
12738W        W28207   4.507   9.041  12.625 -0.3081  0.2720  0.0026
12739W        W28208  14.989  12.344  13.915  0.0338 -0.3502 -0.0159
12740W        W28209  13.709  14.342  12.835 -0.0761  0.2876 -0.2552
12741W        W28210  12.150  12.734   4.007 -0.1169 -0.0486 -0.0024
12742W        W28211   7.880  16.488  13.793  0.0421 -0.1910  0.2227
12743W        W28212  14.099  18.221   2.162  0.0154 -0.2420  0.2787
12744W        W28213  13.636   7.037  13.472 -0.1722 -0.1062 -0.2653
12745W        W28214  14.999   0.004  11.197 -0.1196 -0.1897  0.0023
12746W        W28215   8.999  17.762   4.877 -0.0001  0.1024  0.2679
12747W        W28216  15.819  15.760   1.739  0.2392  0.1082  0.0228
12748W        W28217   0.421  12.939  13.440 -0.3099  0.0230  0.1419
12749W        W28218   9.639   5.739  10.598 -0.0498 -0.4126  0.1165
12750W        W28219   1.409   8.662   4.644 -0.4545  0.2590  0.2432
12751W        W28220  13.821  13.349   5.822 -0.1113  0.1674  0.0743
12752W        W28221   3.591  11.667   4.431 -0.2963 -0.0148 -0.0277
12753W        W28222   6.032   8.160   2.086  0.2819  0.1376  0.2917
12754W        W28223  17.793   4.077   3.310  0.2740 -0.0529 -0.0426
12755W        W28224  16.120   8.744  14.202  0.0375 -0.0963  0.2124
12756W        W28225  10.663  10.523  14.753  0.1285  0.1273  0.2080
12757W        W28226  10.378  14.255  10.591 -0.2205  0.2016  0.0796
12758W        W28227  15.201   0.340   1.925 -0.0789 -0.1327 -0.1252
12759W        W28228   0.947   6.564  13.406  0.0870 -0.0823  0.2528
12760W        W28229  14.848  12.475   0.384  0.0299 -0.1606  0.2513
12761W        W28230   8.818   1.717  10.016 -0.1624 -0.1402 -0.2264
12762W        W28231   7.524   9.142  12.216 -0.1262  0.1345  0.2001
12763W        W28232   0.588  17.099  13.307  0.1041 -0.2810  0.2457
12764W        W28233  17.781   6.718  15.118  0.0021  0.0926 -0.1140
12765W        W28234   9.733   8.811   5.064 -0.1008 -0.3171  0.3018
12766W        W28235   9.283   8.707   3.819  0.2079 -0.1369 -0.1079
12767W        W28236  14.705   5.995   1.902  0.1158  0.2887  0.2492
12768W        W28237  16.319   8.770  11.325 -0.1841 -0.0116  0.1859
12769W        W28238   6.673   8.191  12.344  0.1541  0.0708  0.0450
12770W        W28239  14.389  14.599  11.228 -0.0080 -0.0949  0.0061
12771W        W28240  13.402   9.707  14.832  0.1712 -0.2573  0.2807
12772W        W28241  12.630  10.224   0.129  0.3518 -0.2434  0.0114
12773W        W28242  12.370  18.101   5.499 -0.0678 -0.0007 -0.1416
12774W        W28243  17.761   9.281  12.047 -0.1507 -0.2631 -0.0830
12775W        W28244  10.116   2.050   3.402 -0.2614 -0.0540  0.0724
12776W        W28245   5.236  15.157  15.241 -0.3686  0.0398  0.1460
12777W        W28246   0.476  12.482   1.669 -0.2069  0.2834 -0.1087
12778W        W28247   6.640   8.118   3.386 -0.1804  0.0563  0.3168
12779W        W28248   3.358  13.699  13.863 -0.0016  0.2544  0.0069
12780W        W28249  17.846   9.351  15.314  0.1904 -0.0241  0.1033
12781W        W28250   6.301  12.474  13.048 -0.1092 -0.3435 -0.2331
12782W        W28251  15.334  12.261   3.746  0.2689  0.0206 -0.0929
12783W        W28252  13.305  15.979   2.698  0.0219 -0.1059  0.3266
12784W        W28253  10.151   0.837   5.555 -0.1154 -0.1489 -0.0263
12785W        W28254   4.208   9.312   5.043  0.1644 -0.0521  0.2099
12786W        W28255  12.421   4.682  11.638 -0.2331  0.3511 -0.1329
12787W        W28256  12.500  10.889  15.343 -0.1226 -0.0248 -0.0785
12788W        W28257   6.146   0.894  12.866 -0.3172 -0.1143  0.2576
12789W        W28258   2.360  13.780  14.268  0.3238  0.3129  0.3821
12790W        W28259   5.922   1.427  11.048  0.1772  0.2126 -0.3185
12791W        W28260  11.820  10.823   0.288  0.3801  0.0319 -0.2102
12792W        W28261   0.587   4.762  12.359 -0.2701  0.0600  0.0374
12793W        W28262   9.927   0.193  13.938 -0.0905  0.2250 -0.0612
12794W        W28263  12.482   9.298   0.278 -0.0432  0.4642 -0.3197
12795W        W28264  13.168   0.069  13.247  0.2366 -0.0664 -0.3257
12796W        W28265   6.009  18.750  14.645 -0.2618  0.2401  0.3252
12797W        W28266   4.834   2.489   2.301 -0.1153  0.4288  0.0412
12798W        W28267  11.325   3.186   0.987 -0.1170  0.0590  0.0428
12799W        W28268  15.429   1.785  11.978 -0.0870 -0.1247  0.6103
12800W        W28269  13.394  16.266  12.497 -0.2998  0.0981 -0.2873
12801W        W28270  11.685  14.203   3.803 -0.0796 -0.3244 -0.3051
12802W        W28271  10.699  14.859   4.018 -0.1312 -0.0838  0.1699
12803W        W28272   3.944   7.325  11.031 -0.0399 -0.1444  0.0518
12804W        W28273  16.455   5.961  14.079 -0.0362  0.0579 -0.0659
12805W        W28274   6.113   8.913  10.696 -0.0427 -0.1082 -0.1538
12806W        W28275  12.131  11.618   9.421  0.3121 -0.4732 -0.0800
12807W        W28276  16.439   5.218  13.550 -0.4009 -0.0881 -0.1158
12808W        W28277   1.697   8.237   0.175  0.0214 -0.2242 -0.2149
12809W        W28278   8.756  18.338   4.201 -0.0901 -0.0083 -0.4760
12810W        W28279   5.342  15.589   3.489 -0.0439  0.0354  0.0786
12811W        W28280   3.205   2.486   0.219  0.1249  0.0397 -0.2057
12812W        W28281   8.703   5.298  12.571  0.1303 -0.0722 -0.0127
12813W        W28282   7.475  12.209   5.251 -0.2628 -0.3541 -0.0014
12814W        W28283   5.890  15.341   4.687  0.1129  0.3629  0.3130
12815W        W28284  15.966   8.468  15.496 -0.1138  0.0698 -0.2612
12816W        W28285   7.483   5.176   0.660  0.0281  0.1526 -0.0220
12817W        W28286   2.029   8.525  14.973  0.1678  0.0601 -0.2691
12818W        W28287   5.971   8.561  12.433  0.3322 -0.0214  0.0271
12819W        W28288   5.035  18.678  13.200  0.1429 -0.3896 -0.1065
12820W        W28289  18.688  18.564   2.375  0.0878  0.3855 -0.2171
12821W        W28290   0.339  12.408  11.295 -0.0846 -0.0291 -0.1850
12822W        W28291   5.713  14.660   0.900 -0.0667 -0.1036 -0.0540
12823W        W28292   2.929  16.214   5.825  0.2206 -0.1077 -0.1449
12824W        W28293   5.802   7.583  10.451 -0.1631 -0.0065  0.0328
12825W        W28294   1.266   6.511   4.849 -0.2242  0.1521  0.0379
12826W        W28295   2.614   1.454  10.996 -0.2290  0.0510  0.1197
12827W        W28296   3.271   0.400   0.839 -0.0433  0.0414  0.2820
12828W        W28297  10.885  18.472  12.873  0.0910 -0.1207  0.2704
12829W        W28298  16.797   9.782   3.103  0.5130 -0.1550  0.2024
12830W        W28299  18.180   4.548   4.150  0.0561  0.2142 -0.0065
12831W        W28300  14.218   3.366  13.319 -0.0109  0.1590 -0.3063
12832W        W28301  15.949   2.953   2.848 -0.2524 -0.0489  0.2363
12833W        W28302   8.161  15.686  14.884 -0.2495  0.0173 -0.2517
12834W        W28303  17.227  15.620   1.939  0.2247 -0.2404 -0.3358
12835W        W28304   7.684   4.371   1.678  0.0560  0.0917  0.2603
12836W        W28305   3.167   3.928   4.078  0.2116  0.1541  0.0212
12837W        W28306   1.141   1.175   4.169  0.2721 -0.2649 -0.0123
12838W        W28307  15.894  11.181  12.617 -0.0863 -0.1743 -0.0210
12839W        W28308   1.159  10.282   1.140  0.1179  0.1022  0.1640
12840W        W28309  17.794  16.870  10.373  0.3719 -0.0095  0.2452
12841W        W28310   5.728   5.888  10.876  0.2679 -0.2713  0.2306
12842W        W28311  16.011   8.400   3.121 -0.1025  0.1037  0.0122
12843W        W28312  18.481  17.896  11.985 -0.1293  0.1160 -0.0019
12844W        W28313   9.749   2.394  12.292  0.4433 -0.2852  0.0898
12845W        W28314  13.511   8.775   4.914  0.1442  0.1745 -0.0629
12846W        W28315   7.165   4.874   4.731  0.1034 -0.2880 -0.3305
12847W        W28316  11.333  11.754   2.713 -0.0384 -0.1657  0.1382
12848W        W28317  14.409  16.874   4.981 -0.0272 -0.0426 -0.0923
12849W        W28318   9.329  13.450   0.471  0.1935  0.1465  0.0018
12850W        W28319  18.738  17.017  13.796  0.1823  0.1128 -0.0411
12851W        W28320  13.224   5.602  14.995  0.1120 -0.3515  0.0002
12852W        W28321   1.729   2.687   1.656 -0.1010  0.0471 -0.2358
12853W        W28322   5.412  11.903   2.586 -0.1442 -0.1008 -0.1899
12854W        W28323   3.457   4.517  11.342 -0.0455 -0.0138  0.1448
12855W        W28324  11.545   7.176   4.193  0.0887 -0.0901  0.0316
12856W        W28325   0.880   1.212  11.343  0.4713  0.2945 -0.0694
12857W        W28326   7.299   4.764   3.685  0.1839  0.0346 -0.0540
12858W        W28327  18.192   0.365  11.880  0.2633 -0.1537  0.3205
12859W        W28328   6.366   9.275  14.231 -0.0155 -0.0752  0.1641
12860W        W28329   0.255   9.616   1.364  0.1850  0.1740  0.0066
12861W        W28330   6.140   0.686   1.419 -0.0858 -0.2538  0.5110
12862W        W28331   6.138  17.011  12.136 -0.0970  0.0214  0.2631
12863W        W28332  12.721   4.718   4.936 -0.0153 -0.1816  0.0007
12864W        W28333  15.249   3.329  11.159 -0.2986 -0.3102  0.0432
12865W        W28334   9.508  15.260   5.519  0.0005 -0.1288  0.2180
12866W        W28335  16.746  15.849   1.943  0.0183  0.0068  0.0891
12867W        W28336  17.903  12.690  12.395 -0.4083  0.1890  0.1179
12868W        W28337  11.021  18.577  15.011 -0.0556  0.0453  0.4424
12869W        W28338   4.794  18.612   0.903 -0.1664 -0.1829 -0.0765
12870W        W28339  10.297   2.025  14.365 -0.1357  0.3371 -0.0370
12871W        W28340   6.935   4.956   3.940 -0.1673 -0.0472  0.1992
12872W        W28341   6.447  12.505   2.997 -0.2963  0.1543  0.0980
12873W        W28342   4.694  10.188   0.452  0.0562 -0.1672  0.1350
12874W        W28343   2.901  13.701  14.276 -0.0412  0.1155  0.0682
12875W        W28344  12.144   5.039   2.203 -0.1547  0.2291  0.1932
12876W        W28345  10.268  17.122   0.898  0.1407 -0.3544  0.0777
12877W        W28346   7.462  18.680   1.509  0.3166  0.3825 -0.1341
12878W        W28347  12.652  11.758   0.451 -0.1581  0.1789  0.0387
12879W        W28348   4.241   8.835  13.643 -0.0939  0.1141  0.2156
12880W        W28349   4.188  15.827   4.717  0.0287  0.1370 -0.2923
12881W        W28350   7.154   8.779   2.163  0.0284  0.1314 -0.1276
12882W        W28351  13.606  17.897  12.997 -0.0385  0.1249  0.0358
12883W        W28352   9.576   9.257   1.240 -0.1942 -0.0203 -0.0833
12884W        W28353   1.044   4.715   4.494 -0.2934 -0.0068  0.0690
12885W        W28354  11.180   8.095   4.407 -0.0327  0.0484 -0.0055
12886W        W28355   1.005   4.818   3.146 -0.0426  0.1089 -0.0012
12887W        W28356  11.489   8.639  10.390  0.3208  0.0670  0.3453
12888W        W28357   3.518   1.602  12.983 -0.2209  0.0359  0.2164
12889W        W28358   1.499  14.332  14.195 -0.3203  0.0166  0.0310
12890W        W28359   2.971   1.885  14.978  0.0007 -0.0125  0.0145
12891W        W28360  18.344   1.889  12.428 -0.0462  0.2540 -0.0838
12892W        W28361   3.599   6.425  12.025 -0.1585 -0.1108  0.1434
12893W        W28362   4.246  16.560  13.389  0.2825 -0.1226 -0.1336
12894W        W28363  12.039   7.436   1.368 -0.1045  0.2046  0.0795
12895W        W28364   9.170  15.624   1.670 -0.1770  0.0883 -0.0460
12896W        W28365   7.794   9.181   4.468 -0.1649 -0.2891 -0.3863
12897W        W28366   8.537   5.424  11.572 -0.1849 -0.2190 -0.0588
12898W        W28367   2.644  14.656  11.511 -0.4247  0.0128  0.2523
12899W        W28368  12.431  16.551   2.852 -0.0655 -0.1518  0.1585
12900W        W28369   7.728   9.175  14.331 -0.1128 -0.2382 -0.1716
12901W        W28370  16.730  13.265  12.256  0.2316 -0.2463  0.1642
12902W        W28371  13.197  17.149  12.584 -0.2299 -0.1636 -0.0165
12903W        W28372   8.991   2.719   4.058 -0.1002  0.2738  0.3332
12904W        W28373  18.830  18.802   1.345  0.0231 -0.0396  0.0806
12905W        W28374   4.900   3.913  14.268 -0.0256 -0.1132  0.0546
12906W        W28375   8.463  16.059   5.289  0.2366  0.1793 -0.0673
12907W        W28376   2.086  16.411  11.848  0.0830 -0.0257 -0.2006
12908W        W28377   0.040  12.587  13.323 -0.0502 -0.1401 -0.2216
12909W        W28378  17.741   2.586   3.940 -0.1581 -0.1216 -0.0669
12910W        W28379   3.832   7.348   3.153 -0.0967 -0.1290  0.0179
12911W        W28380   7.339   2.462  10.728 -0.1199  0.1266  0.0310
12912W        W28381  10.665   0.026  15.288  0.1288  0.0636  0.0355
12913W        W28382   9.374   8.131   1.431  0.1114 -0.1551  0.1066
12914W        W28383   3.275   3.007   0.964  0.1222 -0.1370 -0.1214
12915W        W28384  12.956  10.854  15.277  0.1193 -0.1135 -0.0401
12916W        W28385   3.803   1.794  12.241  0.2528  0.0071  0.3910
12917W        W28386  13.876  11.044  12.031  0.0162  0.0085  0.1602
12918W        W28387   8.039  13.209  15.276 -0.2647 -0.3008  0.1292
12919W        W28388   0.344  15.845   1.091 -0.0834  0.3555 -0.1092
12920W        W28389  16.949  11.151  11.186  0.4008 -0.0323 -0.3079
12921W        W28390  18.890   6.988  11.748 -0.1475 -0.4416 -0.1598
12922W        W28391  18.311   2.325  13.383 -0.1302  0.2432 -0.0987
12923W        W28392   3.253  13.031   4.129 -0.0988  0.3211 -0.1695
12924W        W28393  12.650  17.628   1.314 -0.0151  0.1112  0.3105
12925W        W28394   8.659  11.582  14.137  0.2225  0.4409  0.0794
12926W        W28395   2.034   0.597  14.646  0.2533 -0.1258 -0.0559
12927W        W28396  15.488  18.523   4.605 -0.1998 -0.0946  0.0281
12928W        W28397  11.958   8.936   1.499  0.2130  0.0979  0.0576
12929W        W28398   4.995   3.559   2.275  0.0195  0.1046  0.1762
12930W        W28399  17.722  18.106   1.233 -0.0108 -0.1253  0.1835
12931W        W28400   9.670  14.523  14.300 -0.2928  0.2879  0.2217
12932W        W28401   4.422  18.528  11.516  0.1306  0.2060 -0.4373
12933W        W28402   1.728  12.186  10.539 -0.0342 -0.0084  0.1271
12934W        W28403   7.214   3.117   0.927 -0.2003 -0.0248 -0.0029
12935W        W28404   4.744  18.910  14.516 -0.0147  0.3827 -0.0347
12936W        W28405   6.853   1.985  15.475 -0.0142 -0.1733  0.0691
12937W        W28406  14.189  17.920  11.764 -0.2926  0.4285  0.2613
12938W        W28407  13.272  16.294   3.211  0.1265  0.2049  0.2505
12939W        W28408   9.296  15.454  10.545 -0.0260 -0.2147  0.1027
12940W        W28409   2.684  10.612   5.389 -0.1661 -0.3558 -0.0669
12941W        W28410  14.024   2.614   0.636  0.0317 -0.0554  0.2262
12942W        W28411  13.623  12.369   2.879  0.0423 -0.1949  0.2249
12943W        W28412   1.478   4.859  10.683 -0.1416  0.0685  0.2325
12944W        W28413  13.583   6.476   1.595  0.0488 -0.0647  0.1674
12945W        W28414  14.294  10.893   0.277 -0.1363  0.3892  0.1748
12946W        W28415   2.605  11.259   4.135 -0.1635 -0.0460 -0.4596
12947W        W28416  10.018  14.873  11.204 -0.0404 -0.1188 -0.2171
12948W        W28417   1.121   0.432   3.898 -0.0877  0.0809  0.2734
12949W        W28418   3.215  15.722  12.335  0.0689 -0.1840  0.2555
12950W        W28419  12.295   4.399   5.655  0.1439 -0.1525 -0.0177
12951W        W28420   7.971   2.853   2.886  0.3723  0.0875  0.1675
12952W        W28421   1.392  18.342   3.229 -0.0534  0.1835 -0.2879
12953W        W28422  17.247  15.459  13.762 -0.1409 -0.2565 -0.2173
12954W        W28423  18.457   7.475   2.970  0.0023  0.0320 -0.0591
12955W        W28424  10.256   2.354   0.547 -0.1170 -0.0166 -0.0525
12956W        W28425  14.612   9.680  15.431  0.0261 -0.0685 -0.1474
12957W        W28426   3.797  17.826   1.964  0.0203  0.0293  0.1518
12958W        W28427  14.224  17.046  12.840 -0.0854  0.1675 -0.0683
12959W        W28428   7.622  12.506  12.054  0.3249 -0.0437  0.0352
12960W        W28429  17.411  15.763  12.950 -0.0489  0.1133 -0.0360
12961W        W28430  12.933  17.111  10.679  0.1187 -0.0890  0.2038
12962W        W28431   3.574  17.338   2.779 -0.0956 -0.1584 -0.1426
12963W        W28432  12.435  10.523   2.904 -0.4132  0.0380 -0.1495
12964W        W28433  14.765   4.649   2.654  0.0846 -0.4011 -0.3975
12965W        W28434  18.519  17.936  14.549  0.0772 -0.3638 -0.0397
12966W        W28435   4.663   8.608  12.189 -0.0835 -0.1005  0.0060
12967W        W28436   8.462  10.520  14.885  0.1305 -0.0967  0.0433
12968W        W28437   1.371   1.688   0.266  0.0604  0.1363 -0.2896
12969W        W28438   5.020   9.001   1.109  0.2112  0.0338  0.0901
12970W        W28439   3.022   8.879   2.332  0.3223  0.1522  0.0761
12971W        W28440  15.504  16.843  13.428 -0.1001 -0.0426 -0.2040
12972W        W28441  12.897   5.728  13.907 -0.1117  0.2547 -0.0121
12973W        W28442  14.960  13.590   3.771  0.0695  0.1844 -0.2462
12974W        W28443   1.014   5.124  13.449  0.0360 -0.1425 -0.0740
12975W        W28444   4.523  17.177   2.380  0.3335 -0.1927 -0.2013
12976W        W28445   6.267  18.415   3.286 -0.1358 -0.5258 -0.3260
12977W        W28446  16.230  17.534   2.010  0.0903 -0.0733 -0.3031
12978W        W28447  15.017   1.804  13.897 -0.1574  0.0299  0.0016
12979W        W28448   2.638   1.438   0.649  0.0955  0.3160 -0.0052
12980W        W28449  18.327   1.400  10.841 -0.1383  0.2206  0.2263
12981W        W28450  17.683   9.145   4.225  0.0153  0.0549  0.1366
12982W        W28451  17.669   0.305  12.183  0.0597  0.1681 -0.0025
12983W        W28452   1.120  10.387   4.228  0.1036  0.2357  0.0571
12984W        W28453  18.640   5.284  10.846 -0.0078 -0.2046  0.3285
12985W        W28454  13.512   4.372   1.992 -0.0879 -0.2343 -0.0941
12986W        W28455  17.823  13.160  10.320 -0.0285 -0.0540 -0.0474
12987W        W28456   8.392  15.153  13.194  0.0461  0.1676  0.1125
12988W        W28457   8.328  15.734   9.895 -0.1010  0.1076  0.0858
12989W        W28458   3.987  17.060  13.318 -0.1541  0.0984 -0.0219
12990W        W28459  14.684   6.283  10.066  0.2997  0.0899 -0.1310
12991W        W28460   9.867  14.454   1.542 -0.0994  0.1573  0.1801
12992W        W28461  18.806  13.002   2.553  0.2189  0.1601  0.1242
12993W        W28462  10.225   4.242  13.756 -0.4560 -0.2607  0.1818
12994W        W28463   1.245  16.732  10.876  0.3503 -0.0796 -0.1713
12995W        W28464   5.293  10.458  11.217  0.2018 -0.2606 -0.0051
12996W        W28465   3.057   7.553   3.624  0.3536  0.2869 -0.0854
12997W        W28466  15.543   4.882   1.086 -0.2442  0.4294  0.0740
12998W        W28467   5.229   1.301   0.719  0.0313 -0.4133  0.2197
12999W        W28468  15.616  17.848  11.277  0.1122  0.2066 -0.0798
13000W        W28469   2.075   1.199  13.800  0.1073  0.1918 -0.0921
13001W        W28470   1.276  13.177   2.201 -0.2001 -0.1476  0.1827
13002W        W28471  14.797  15.039   2.724 -0.2760  0.0506  0.0119
13003W        W28472   5.186  11.584  12.967 -0.0507  0.0909  0.2320
13004W        W28473  12.456   0.346  12.322 -0.3782 -0.2157  0.2277
13005W        W28474  13.476  17.052   1.174 -0.2506 -0.2027 -0.1992
13006W        W28475  13.241  14.377   4.102  0.2075 -0.1644 -0.0299
13007W        W28476   9.016   6.481  15.192  0.3155  0.2673  0.1349
13008W        W28477   1.203   3.388   1.758  0.0087 -0.1074 -0.1180
13009W        W28478   5.739   6.931  11.332  0.0167 -0.0400 -0.0068
13010W        W28479   7.304   7.922   1.363 -0.0394 -0.3624 -0.0337
13011W        W28480   5.644  11.833   5.433  0.1712 -0.0243 -0.0973
13012W        W28481  15.682   4.497  11.973 -0.2960 -0.1288  0.1181
13013W        W28482  10.622   0.172  11.409  0.0543 -0.2938  0.3390
13014W        W28483  18.492  13.538  11.417 -0.2277 -0.2388  0.5556
13015W        W28484  16.878   3.336  10.585 -0.3784 -0.0464  0.0062
13016W        W28485   8.947   9.423  12.145  0.1847 -0.2364  0.2709
13017W        W28486   3.737  10.018  11.658 -0.1657 -0.1733  0.1125
13018W        W28487  13.763  17.524   0.222  0.1072  0.2567  0.2492
13019W        W28488  10.322  14.218  14.461  0.1204 -0.1437  0.2484
13020W        W28489   3.373   6.027  13.912 -0.0053  0.0847  0.3422
13021W        W28490   4.700   5.345   4.053 -0.1673 -0.2879  0.4110
13022W        W28491   8.187  15.516   2.475  0.1925  0.1689  0.0724
13023W        W28492   6.525  11.649   5.479  0.0142 -0.0570 -0.1016
13024W        W28493   0.857   0.754  10.300 -0.4289  0.0713 -0.1431
13025W        W28494  18.286  12.767   5.372 -0.3506  0.1960 -0.1471
13026W        W28495   1.313  14.132   2.075  0.0209 -0.1186 -0.0437
13027W        W28496   0.961   8.107   4.107 -0.2342  0.1186 -0.2468
13028W        W28497   7.825  10.017  13.250 -0.0582  0.1212 -0.0059
13029W        W28498  10.484  10.190   4.269 -0.0772 -0.0772 -0.0321
13030W        W28499   3.081   8.366   2.031 -0.1968 -0.3056 -0.0388
13031W        W28500  11.016  11.457   3.426 -0.3846 -0.3021  0.0110
13032W        W28501   3.454  10.060  12.668 -0.2303 -0.2412  0.0950
13033W        W28502   8.983  12.115  13.408  0.0489 -0.3784 -0.0048
13034W        W28503   0.612   9.246  10.371 -0.0344 -0.2960  0.6032
13035W        W28504   5.179   3.363   2.696 -0.1236 -0.2238  0.0717
13036W        W28505   7.384   5.911  12.619  0.0973  0.2023 -0.1413
13037W        W28506   8.297  17.138  13.302  0.0705  0.0795 -0.1305
13038W        W28507  10.339  12.628   0.992  0.1600  0.0553 -0.0331
13039W        W28508   4.489   1.185   2.555  0.2967 -0.1592  0.0645
13040W        W28509   8.164  12.338   2.785  0.2791  0.0610  0.1999
13041W        W28510  12.152   6.340   2.391  0.2288 -0.1082 -0.0425
13042W        W28511  12.508   6.983   1.328 -0.4500  0.0940 -0.0634
13043W        W28512   6.930   4.056  15.419 -0.3545  0.1113  0.0548
13044W        W28513  10.646   5.114   4.713  0.2082 -0.0539  0.1858
13045W        W28514   7.656   7.807  15.257  0.2563  0.0590 -0.0277
13046W        W28515   0.868   4.494  12.876 -0.1548 -0.0629  0.3075
13047W        W28516  13.035  10.223  10.925 -0.2383  0.0224  0.0134
13048W        W28517   5.618   6.931   3.582  0.1371 -0.0660  0.1629
13049W        W28518  16.417   8.074   3.295  0.1247 -0.2899  0.1195
13050W        W28519  18.302   1.881  11.718 -0.2406  0.1476  0.0887
13051W        W28520   3.289   8.462   0.921 -0.3719  0.4059  0.1089
13052W        W28521  10.205   7.949   1.620 -0.0451  0.2811 -0.1087
13053W        W28522  16.861   3.491   3.645  0.0036 -0.4124  0.2338
13054W        W28523   6.110   7.923  10.350 -0.1121  0.0438  0.0828
13055W        W28524   8.920  11.946  11.507  0.3969 -0.2263  0.0678
13056W        W28525   8.629   1.617   0.060  0.0694 -0.2078 -0.2539
13057W        W28526   7.851  14.585   5.548  0.0414 -0.0479  0.3226
13058W        W28527   8.437   6.733  10.940 -0.0446 -0.2606 -0.0275
13059W        W28528  18.559   0.755  10.949  0.2282  0.0324 -0.1013
13060W        W28529  12.713  14.635  11.086 -0.4162 -0.0691  0.1456
13061W        W28530   4.304   7.537   5.226  0.0027  0.3230  0.0240
13062W        W28531  12.993   1.985   2.132 -0.1052 -0.2147 -0.0944
13063W        W28532   3.289  17.319  11.534  0.0752 -0.0154 -0.0220
13064W        W28533   2.347  11.985  12.730 -0.1928  0.1270  0.1896
13065W        W28534   3.744  12.388  13.010  0.2290  0.1257 -0.1805
13066W        W28535   4.816  17.907  13.744  0.2553 -0.0491  0.1000
13067W        W28536  11.909  11.109   1.120 -0.0702  0.2521  0.1890
13068W        W28537  17.273  13.435  14.326 -0.0837  0.1774  0.0194
13069W        W28538  12.035   8.871   5.028 -0.1304 -0.1442  0.0182
13070W        W28539   1.554   3.816  12.479 -0.3209 -0.0114  0.2227
13071W        W28540  15.458   6.323  11.775 -0.1912 -0.1041  0.2115
13072W        W28541  10.514  13.276   0.174 -0.3888  0.2737 -0.0347
13073W        W28542  13.306   8.420  13.351 -0.0344  0.0346  0.3186
13074W        W28543   5.213  17.049  12.794 -0.3755 -0.4364  0.3278
13075W        W28544   8.152  16.143  12.318 -0.0967  0.0000 -0.2994
13076W        W28545  16.339  13.610  13.266  0.0444 -0.2212  0.0497
13077W        W28546   9.793  10.318  12.291 -0.0497 -0.0541  0.3328
13078W        W28547   4.859   7.685  10.650 -0.0744  0.1769  0.3272
13079W        W28548  17.714   0.078   4.493 -0.0736 -0.3101  0.2507
13080W        W28549   9.343  17.306   1.202  0.3331  0.0959 -0.4453
13081W        W28550   7.301   5.791   3.622  0.0943  0.2602  0.1116
13082W        W28551  17.532   6.628   1.649  0.1428 -0.1294 -0.0673
13083W        W28552   6.274   6.286  13.386 -0.1480 -0.0885 -0.0261
13084W        W28553   4.787  11.820   3.452  0.0336 -0.1013  0.0158
13085W        W28554   4.686  17.498  11.638 -0.2561 -0.0461 -0.1847
13086W        W28555   4.166   0.474   3.009  0.0601  0.1013  0.0519
13087W        W28556  15.797  18.462   0.361  0.1989 -0.1506  0.2606
13088W        W28557  16.349   7.269   2.142  0.0489  0.1455  0.2178
13089W        W28558   5.426  10.352  14.047  0.1640 -0.3909  0.3517
13090W        W28559   8.593  18.764  12.193 -0.0815 -0.1506  0.0899
13091W        W28560   4.850  11.472   3.041  0.4380  0.1216 -0.4670
13092W        W28561  16.195   7.507   1.314  0.2223 -0.0320 -0.1764
13093W        W28562   3.888  17.216   9.781  0.5048 -0.0864 -0.1896
13094W        W28563   5.730  11.399  10.797 -0.0157 -0.0202  0.0633
13095W        W28564  17.473  13.042  14.906 -0.1918  0.0240 -0.3627
13096W        W28565  14.545   4.911  13.614 -0.1975  0.0236 -0.1246
13097W        W28566  16.120  14.412   1.054 -0.2375  0.1429  0.0909
13098W        W28567   4.761  11.456  15.254  0.2608  0.2090 -0.0577
13099W        W28568   2.977  13.520   2.548 -0.0700 -0.3415  0.0302
13100W        W28569   0.836   9.904   5.017 -0.1866 -0.2431 -0.2775
13101W        W28570   2.856   4.339  13.501  0.1721 -0.0255  0.0752
13102W        W28571  15.023   6.125   1.519  0.1379 -0.5355  0.0648
13103W        W28572   3.196   6.713  11.251 -0.2131 -0.0946 -0.4988
13104W        W28573  10.052  18.060  11.588 -0.2481 -0.3420 -0.0895
13105W        W28574   3.287  18.840  12.708 -0.1356 -0.1509 -0.1893
13106W        W28575   2.358   7.431  12.932 -0.0965  0.2166 -0.0067
13107W        W28576   7.652   1.760   4.895  0.0725 -0.0238 -0.0238
13108W        W28577  13.046   8.977   1.638 -0.0262 -0.0320 -0.0845
13109W        W28578  13.096  10.280   3.844  0.0352  0.0390  0.2359
13110W        W28579   1.177  11.984   0.651  0.0626 -0.3168 -0.1658
13111W        W28580   2.867   4.863  14.868 -0.0453  0.0742 -0.0922
13112W        W28581  15.900  12.340   4.941 -0.2331 -0.1631 -0.1256
13113W        W28582  12.015  14.001  11.465  0.1386 -0.0111  0.0910
13114W        W28583  15.485  16.862  11.929  0.0610  0.1342  0.1103
13115W        W28584  16.379   2.524   1.368  0.0328  0.0726  0.0212
13116W        W28585  16.187  10.232   4.243  0.0058 -0.0430 -0.1772
13117W        W28586   6.196  10.661  13.713 -0.1356 -0.1650  0.1308
13118W        W28587   9.909   6.885  15.014 -0.0243  0.4379  0.0969
13119W        W28588   8.792   2.095  10.339  0.1097 -0.0897 -0.0971
13120W        W28589   9.050  13.076  10.825 -0.2841 -0.1172 -0.2748
13121W        W28590  13.583  10.280   3.512  0.0179 -0.0411 -0.2937
13122W        W28591   7.578   2.491   3.451 -0.0238  0.0971 -0.0771
13123W        W28592  10.477  12.215   2.784  0.1412  0.1297 -0.2390
13124W        W28593   2.894  18.412   0.690  0.0579 -0.1015  0.0192
13125W        W28594  11.049  13.064  10.102  0.1786  0.2396  0.0074
13126W        W28595  17.292  18.765  14.748  0.2238 -0.0076  0.0582
13127W        W28596  12.168   9.473   3.351 -0.0149 -0.1160 -0.3554
13128W        W28597  15.447   3.849  12.977 -0.2132  0.3318 -0.1928
13129W        W28598  12.311  14.711   4.225  0.0345  0.0070  0.1615
13130W        W28599   4.675  10.462  15.046 -0.0073 -0.1497  0.3569
13131W        W28600  16.673  18.756  12.663  0.1063  0.0085  0.0247
13132W        W28601   6.014  12.804   4.864 -0.3082 -0.1305 -0.2840
13133W        W28602  15.167   9.376  13.223 -0.3223  0.2448 -0.2416
13134W        W28603  14.261  11.405   3.764  0.3780  0.2103  0.2492
13135W        W28604   6.108   4.561  10.643 -0.1213  0.3843  0.1012
13136W        W28605   4.909   3.359   1.138  0.1904  0.1831 -0.0581
13137W        W28606  15.604  10.169   3.921  0.0058  0.0063 -0.2836
13138W        W28607   0.128   2.906   3.489 -0.3496  0.0098 -0.2096
13139W        W28608   7.024   9.655  14.668 -0.0280 -0.0321 -0.2256
13140W        W28609   9.166   1.800  12.904 -0.3542  0.2002 -0.0388
13141W        W28610  18.474  13.481  14.156 -0.0460  0.1703  0.1025
13142W        W28611  16.964   1.044  13.229 -0.2416 -0.0047 -0.1704
13143W        W28612   8.707  18.573  14.161 -0.1422 -0.1154  0.1729
13144W        W28613  16.163  16.417   0.812 -0.0531  0.2026 -0.4493
13145W        W28614   3.322   2.131  13.640  0.0291 -0.2963  0.1763
13146W        W28615  13.041   1.305   3.349  0.1088  0.0393 -0.0400
13147W        W28616  16.076  11.467   3.172 -0.3094 -0.0309 -0.2405
13148W        W28617  14.194  13.215   0.020  0.0344 -0.3988 -0.1343
13149W        W28618  11.771   5.357   4.512 -0.4827 -0.1334  0.1340
13150W        W28619  17.763   2.574   0.089 -0.3022 -0.0269  0.0778
13151W        W28620   9.872  16.756   3.633  0.3448  0.0922  0.1612
13152W        W28621   5.800  11.044   0.375  0.0081 -0.3015  0.1959
13153W        W28622   4.745   8.771   5.559 -0.1554 -0.1614  0.2835
13154W        W28623   5.750  12.649  14.163 -0.0256 -0.5942 -0.1663
13155W        W28624  18.083  12.245  13.642 -0.1315  0.0774  0.0270
13156W        W28625   4.765   3.187   2.051  0.0531  0.0144 -0.2901
13157W        W28626  14.485  18.429  12.821 -0.1952 -0.1002 -0.0587
13158W        W28627   1.626  14.789  14.108  0.0720 -0.0679 -0.1985
13159W        W28628  16.000   4.314  12.410  0.2177 -0.1888 -0.1675
13160W        W28629   5.384  12.271   1.684 -0.3119 -0.1064 -0.0917
13161W        W28630  10.791   8.500   5.051 -0.0945 -0.2773 -0.2574
13162W        W28631   6.796   4.009   4.318 -0.1173 -0.2207  0.0352
13163W        W28632   5.499  11.779  11.093 -0.1725  0.0295  0.2130
13164W        W28633  12.679  15.535   3.170  0.0956 -0.2415  0.3663
13165W        W28634   0.909   6.816   1.859 -0.0417 -0.3400 -0.4079
13166W        W28635   3.158   8.581  12.487  0.2616 -0.0024  0.1042
13167W        W28636   3.694  11.382   1.246 -0.0142  0.0382  0.3603
13168W        W28637   6.946   8.582  13.288 -0.0086 -0.1672 -0.1578
13169W        W28638   6.011   5.406  11.414  0.0559 -0.2548 -0.3277
13170W        W28639   2.026  10.069   0.955 -0.1840 -0.2177  0.0134
13171W        W28640  14.472  16.758   3.657 -0.2557 -0.3988  0.0839
13172W        W28641   7.463  12.222  13.572  0.4259 -0.2155  0.2471
13173W        W28642   4.697   1.603  12.090 -0.3581 -0.2545 -0.0677
13174W        W28643  11.874   5.014   9.484  0.3998  0.1505  0.1916
13175W        W28644  18.376   4.535  11.157 -0.2143  0.2243 -0.2258
13176W        W28645   3.193  18.840   0.369 -0.0531 -0.1842 -0.0299
13177W        W28646   1.264  13.817   4.398 -0.2162 -0.0232 -0.1291
13178W        W28647   9.864  18.164   2.965  0.0493 -0.1567 -0.2818
13179W        W28648   8.096   6.512   2.045 -0.2723  0.2747  0.0888
13180W        W28649   6.789  11.561   5.887  0.0940  0.2849 -0.1379
13181W        W28650  12.770   3.813   0.196  0.2350  0.3563 -0.2355
13182W        W28651  15.632  14.001  14.342  0.0750  0.0393 -0.3428
13183W        W28652   5.457  16.699   5.105  0.0227 -0.1028  0.1512
13184W        W28653  17.709  11.364  11.088 -0.1230  0.1009 -0.3220
13185W        W28654  14.632   4.323  11.802  0.1234  0.0106 -0.0367
13186W        W28655  17.008  17.567  14.585  0.2691  0.0486  0.2605
13187W        W28656   8.526   9.606  15.347  0.0366  0.2263 -0.0207
13188W        W28657   9.093   9.227   3.869 -0.2916 -0.0335  0.0157
13189W        W28658  16.782   4.424  13.561 -0.0665 -0.0809 -0.2890
13190W        W28659   3.546   7.547   4.680  0.1952  0.2398  0.2221
13191W        W28660   3.057  15.145   5.048 -0.0356 -0.0565 -0.1615
13192W        W28661   4.860  11.823  13.307 -0.3031 -0.4011  0.0186
13193W        W28662  15.464   7.969  10.570  0.1007 -0.2469  0.0232
13194W        W28663  13.953  10.687  11.735  0.0989 -0.1855 -0.3828
13195W        W28664  17.111   2.508   2.542  0.1292 -0.0295 -0.0312
13196W        W28665  10.381  11.326   4.762  0.1140  0.0613 -0.1195
13197W        W28666  14.252   6.290   2.654  0.0346  0.0978 -0.0877
13198W        W28667   0.341   8.475  11.900 -0.0438  0.0838  0.1934
13199W        W28668   4.011  10.598  13.410  0.0580  0.1577 -0.1065
13200W        W28669   3.698   2.816  12.337  0.2187  0.1335 -0.2176
13201W        W28670  14.216  12.029   2.179 -0.1545 -0.2070  0.0398
13202W        W28671  16.205   8.410  10.841  0.2326  0.0245  0.0540
13203W        W28672   2.226   6.771   2.108 -0.0374 -0.2718 -0.1465
13204W        W28673  12.324   4.149   1.605  0.2515  0.2142  0.2521
13205W        W28674  13.493  16.601  12.118 -0.3106 -0.0341  0.0185
13206W        W28675  18.362  15.488  14.022 -0.0503  0.1764 -0.2016
13207W        W28676   3.429  16.041   2.839  0.1746  0.0114 -0.3857
13208W        W28677  16.339   4.874  10.953 -0.1639  0.2756  0.1560
13209W        W28678  11.285   3.569  11.835  0.2582  0.3610 -0.1680
13210W        W28679   9.939  18.784   4.993 -0.1679 -0.1089 -0.1662
13211W        W28680   4.774   6.378   2.511  0.0719 -0.2171  0.1651
13212W        W28681   5.273  13.380  15.362  0.0496  0.1872  0.1172
13213W        W28682  18.706   2.212  11.390  0.2349  0.2210 -0.0380
13214W        W28683  14.278   6.679  10.326  0.3199  0.1392 -0.1524
13215W        W28684   2.149   7.902   0.586  0.0629  0.1666  0.0541
13216W        W28685  13.511  18.717  10.618  0.0175  0.1635 -0.1017
13217W        W28686   4.967   0.407   4.241 -0.2153 -0.2634  0.0982
13218W        W28687   9.187  18.745   0.633 -0.0973  0.0196 -0.0582
13219W        W28688  12.973  14.988  11.402 -0.1209 -0.1350 -0.1305
13220W        W28689  15.593  16.686   1.739  0.2969 -0.1276 -0.3001
13221W        W28690   6.462   8.256   1.067  0.4140  0.2682  0.1423
13222W        W28691  16.366  18.307  15.207 -0.3339 -0.0332  0.1730
13223W        W28692   8.726   3.396   2.655 -0.1889 -0.1006  0.1744
13224W        W28693  18.752  12.770   0.121  0.2357  0.1714  0.2270
13225W        W28694  15.146  13.088  15.303 -0.1275 -0.1356  0.2835
13226W        W28695  17.082  11.163  14.943  0.1130  0.0291 -0.2472
13227W        W28696  18.507   0.093   4.701  0.0244 -0.3872 -0.2687
13228W        W28697   4.746   9.598   3.102 -0.3257  0.0613  0.0811
13229W        W28698  12.103   5.676  10.392 -0.0723 -0.0871 -0.1498
13230W        W28699  11.359  12.440  14.342  0.1816 -0.3211  0.3111
13231W        W28700  14.825   7.711   1.268  0.2755  0.2177 -0.0932
13232W        W28701  17.112   8.316   4.018 -0.0526  0.0096 -0.2758
13233W        W28702   0.513  17.701   1.763  0.1271  0.1634 -0.0960
13234W        W28703   2.011  15.239   1.923  0.0624 -0.3645  0.1524
13235W        W28704   9.988  17.549  13.085 -0.3511 -0.2428  0.2161
13236W        W28705  15.160  13.967   5.088 -0.0807 -0.0826  0.0940
13237W        W28706   2.287   6.797   4.904 -0.1216  0.0193 -0.1943
13238W        W28707  16.255  12.161   5.395 -0.1384 -0.0678 -0.1846
13239W        W28708   5.424   0.946   5.412  0.2742  0.1074  0.4479
13240W        W28709   3.623   1.242  15.304  0.1851  0.1045 -0.0056
13241W        W28710   1.949  16.809  11.491  0.0039 -0.2412  0.2460
13242W        W28711   1.254  11.618   4.899  0.1898 -0.0140  0.0275
13243W        W28712  17.635  17.436   5.173  0.2228 -0.0568  0.4458
13244W        W28713   9.227   8.948   0.856 -0.3946  0.2654 -0.2122
13245W        W28714  14.731  13.382   4.173  0.2957  0.1048  0.1277
13246W        W28715  15.486   8.423   4.639 -0.1953 -0.3626  0.4320
13247W        W28716  17.346   0.897   2.727  0.1257  0.1404 -0.2249
13248W        W28717   5.793   0.802  10.523  0.0393 -0.3627 -0.1102
13249W        W28718   2.801   0.293   2.426  0.2020 -0.2609  0.3858
13250W        W28719  11.922  14.516   0.852  0.0232 -0.0678  0.1102
13251W        W28720   9.129  13.408   3.195 -0.2699 -0.2146 -0.5595
13252W        W28721   3.253   8.324  10.504 -0.0203  0.0125  0.0721
13253W        W28722  16.199   7.765  15.242 -0.2149 -0.1511  0.2560
13254W        W28723   1.109  15.326  14.979 -0.1415  0.1246  0.2089
13255W        W28724   5.893  12.050  14.715 -0.1342  0.0085 -0.1625
13256W        W28725   4.243   5.293   0.354 -0.1864 -0.0373  0.1999
13257W        W28726   5.511   9.342   5.149  0.3346 -0.1333  0.0259
13258W        W28727  10.066   9.424  12.520 -0.3530  0.0120 -0.2368
13259W        W28728  16.933  17.412  11.003 -0.1365  0.0694  0.1775
13260W        W28729   8.582   7.063   9.702 -0.1749  0.2516  0.5743
13261W        W28730   3.170   7.795   5.095 -0.0249  0.2981  0.1701
13262W        W28731  18.567  18.178   3.808 -0.3213  0.2682  0.0762
13263W        W28732   4.544  14.673  13.597  0.1532 -0.0343 -0.1585
13264W        W28733   4.183  14.182   3.834  0.0671  0.0167 -0.0752
13265W        W28734   3.616  16.533   5.060  0.0837  0.1144 -0.2273
13266W        W28735  10.986  17.345   3.867 -0.2010  0.0387 -0.1723
13267W        W28736   1.951   0.080   4.926  0.1350  0.4938 -0.2218
13268W        W28737   1.315   7.437  13.052  0.1804 -0.1537  0.3303
13269W        W28738   0.264   6.831  13.574 -0.2416 -0.0087 -0.0892
13270W        W28739   4.575  16.275   5.273 -0.0309  0.0815 -0.1095
13271W        W28740   4.258   7.557  14.086  0.2182  0.2745  0.0838
13272W        W28741  12.482   6.691  11.609  0.0535  0.0863  0.0662
13273W        W28742   9.034  16.563   2.963  0.1094 -0.0845  0.0111
13274W        W28743   7.407  14.624  11.837 -0.2319  0.1354  0.0030
13275W        W28744  10.673   2.846  11.665 -0.0086 -0.3685  0.0778
13276W        W28745  15.357   7.792  14.743 -0.1822 -0.0602  0.0341
13277W        W28746   5.285   7.792  12.361 -0.0438 -0.2523 -0.3482
13278W        W28747   7.884   2.388   0.130  0.0894 -0.3048 -0.2223
13279W        W28748   5.153   0.795   5.850 -0.0998  0.2061  0.1440
13280W        W28749   3.546  13.284  12.718 -0.2667 -0.2284 -0.0730
13281W        W28750   2.971   3.299  12.954 -0.3732  0.1365 -0.1648
13282W        W28751   0.643  18.906  13.469 -0.0444  0.0214  0.1416
13283W        W28752  12.067   7.382  14.580 -0.0876 -0.0371  0.3859
13284W        W28753   9.434  17.041  14.015  0.0793 -0.2770 -0.4789
13285W        W28754  14.172  17.784  14.607 -0.1348 -0.0827  0.0462
13286W        W28755   8.262  14.345  12.115  0.1878 -0.0403  0.1633
13287W        W28756   8.297   9.896  14.582 -0.1268 -0.1121  0.0820
13288W        W28757  10.362  11.674  11.240 -0.1255 -0.1140  0.2811
13289W        W28758  15.542  12.945  13.312 -0.0196  0.3423 -0.0125
13290W        W28759  16.745  17.667   5.110 -0.0343 -0.0713  0.1025
13291W        W28760  17.695  10.358   3.031 -0.1538  0.4825 -0.1340
13292W        W28761   0.220  14.020  12.179  0.0994  0.2066  0.0428
13293W        W28762  14.835   0.682  11.613 -0.0023  0.1712  0.2712
13294W        W28763   2.297   4.020   1.171  0.0964 -0.0771  0.0279
13295W        W28764  16.873   6.324   1.400  0.0965  0.1222 -0.0258
13296W        W28765  14.599   9.602   0.440  0.1626 -0.0654 -0.0460
13297W        W28766   8.047   4.100   1.512 -0.2087 -0.2000 -0.0467
13298W        W28767   0.537  10.125   3.576  0.0529 -0.0321  0.2267
13299W        W28768   9.432   9.823  15.020 -0.1515  0.1044  0.3682
13300W        W28769   7.825   3.702   5.090  0.4489  0.1020 -0.1279
13301W        W28770   1.669   1.863  14.526 -0.4498  0.0511  0.2576
13302W        W28771   9.039  15.880   5.268  0.2821  0.1093  0.0817
13303W        W28772   3.345  16.096   0.565 -0.0114  0.0387  0.1815
13304W        W28773  10.671  10.649  10.778  0.2687  0.2059  0.2110
13305W        W28774   1.989  14.359  14.138  0.1689  0.1459 -0.1379
13306W        W28775  16.949  14.166  12.745 -0.1570 -0.2179  0.1738
13307W        W28776  10.162  13.439  15.386 -0.1830  0.1370 -0.1251
13308W        W28777   7.682  17.479   4.947 -0.1348  0.2627  0.0392
13309W        W28778   7.547  13.855   3.334 -0.0650  0.1112  0.4007
13310W        W28779  11.691  13.310  12.238  0.2833  0.1758 -0.1173
13311W        W28780  11.860   7.300   1.879 -0.0694 -0.1667 -0.0243
13312W        W28781  16.734   1.626  10.129 -0.0989  0.1349 -0.1773
13313W        W28782   1.708   8.024   4.836  0.1689  0.1096 -0.0349
13314W        W28783  15.941  18.922   0.475 -0.0481 -0.3055  0.2069
13315W        W28784   6.946   7.153  11.521  0.3474 -0.2671 -0.0541
13316W        W28785   7.100  15.273   0.717  0.0585 -0.4253  0.2266
13317W        W28786   8.389  12.967  14.885  0.0727 -0.5520  0.2321
13318W        W28787  16.462   9.215  10.787  0.0453  0.1556  0.2300
13319W        W28788   3.477  17.950   3.411  0.2647 -0.1201 -0.0066
13320W        W28789   5.441  14.343  12.155  0.1514 -0.2602  0.0112
13321W        W28790   0.664  11.618   3.489 -0.4223  0.0431 -0.2481
13322W        W28791  18.852  18.705   0.704  0.0417  0.0612 -0.0997
13323W        W28792   8.517   6.310   0.558 -0.0777 -0.2874  0.0977
13324W        W28793  14.727   2.338   4.616 -0.1742 -0.1388 -0.1367
13325W        W28794  13.758   7.584  13.368  0.2516  0.0342 -0.0097
13326W        W28795   8.662   2.487   3.172  0.1214 -0.1640  0.3120
13327W        W28796   3.318   6.370  13.309  0.0512 -0.2171 -0.3671
13328W        W28797  14.841   6.911   1.979  0.1698  0.0699  0.2529
13329W        W28798  16.177  12.323   3.125  0.2774  0.2137 -0.1170
13330W        W28799   8.753   2.607   5.618 -0.2296  0.1473 -0.1202
13331W        W28800  15.525  11.008   5.166  0.2207 -0.2163  0.0428
13332W        W28801   6.927   0.890   0.526 -0.3155 -0.1436  0.0043
13333W        W28802  11.134   0.060  13.406  0.0141 -0.2312 -0.1498
13334W        W28803  14.037  13.313  12.902 -0.2645 -0.2001 -0.4496
13335W        W28804  17.621   2.311   2.751  0.0953 -0.0070  0.0988
13336W        W28805   5.097  12.496  14.162 -0.0311  0.1558 -0.1939
13337W        W28806   4.582  14.894  11.693  0.0826  0.0253 -0.0169
13338W        W28807   6.226  15.480  15.181  0.3397  0.1863 -0.1519
13339W        W28808  16.033   0.805  15.467  0.0464  0.0264  0.1005
13340W        W28809  16.918  18.424   4.004  0.0852 -0.1749  0.1728
13341W        W28810   4.764   2.541   4.230  0.2170 -0.1503 -0.1115
13342W        W28811   5.057  17.198   4.282  0.2082  0.0282 -0.0651
13343W        W28812   3.514   4.602  10.739  0.1167 -0.0266 -0.1843
13344W        W28813   6.224   4.681   5.232 -0.1935  0.2422 -0.0311
13345W        W28814  14.819  10.575  15.293  0.0214  0.1162 -0.1233
13346W        W28815   7.656  14.053  13.620 -0.0832  0.1293 -0.0667
13347W        W28816   3.402   6.022  11.794  0.4078 -0.0196 -0.0784
13348W        W28817   8.627  14.977   1.574  0.2244  0.0555 -0.0650
13349W        W28818  11.447   9.329   1.997 -0.0986 -0.0764  0.0124
13350W        W28819   6.090   8.744   1.570 -0.0194 -0.2285  0.3221
13351W        W28820  18.725   6.187  14.043 -0.1146 -0.2191 -0.0200
13352W        W28821  15.217  10.412  11.643  0.2194  0.0840  0.2297
13353W        W28822   6.734   8.984  14.344 -0.1104  0.0073  0.2528
13354W        W28823   2.347  15.754  14.792 -0.1451 -0.2244  0.0827
13355W        W28824  18.396  17.828   2.762  0.0013 -0.0309  0.2039
13356W        W28825  14.640  11.999   4.235 -0.3680 -0.1507 -0.0522
13357W        W28826  15.539  17.529  15.140 -0.2081  0.0345 -0.0429
13358W        W28827   3.347   9.881  13.540 -0.2302  0.0285  0.0904
13359W        W28828   1.007  12.658   5.653  0.2473  0.4293  0.0421
13360W        W28829  14.604  15.279  13.497  0.3532  0.0877  0.1582
13361W        W28830   9.630   2.293   2.179  0.2173  0.4467  0.1207
13362W        W28831   4.440   0.523  12.091 -0.1544 -0.1223 -0.3133
13363W        W28832  16.275   8.020   0.165 -0.2398 -0.0982 -0.2119
13364W        W28833  11.506  11.287   4.296 -0.3424  0.1062 -0.0290
13365W        W28834   7.866  13.075   3.533 -0.2191 -0.0923  0.0790
13366W        W28835  15.062  11.183   4.800 -0.1404  0.2407 -0.0522
13367W        W28836   8.582  17.555  14.704 -0.0868  0.2431 -0.2073
13368W        W28837   5.222  13.172   3.597  0.0405 -0.1490 -0.0835
13369W        W28838   5.195   4.618  15.102 -0.0852 -0.1498  0.0917
13370W        W28839  15.550  11.866   5.277  0.0328 -0.1479 -0.3437
13371W        W28840   6.555   8.405  11.351  0.1660  0.0272 -0.1117
13372W        W28841  13.105   9.689  12.982 -0.0340 -0.0236  0.0315
13373W        W28842   5.102   0.227  10.850 -0.0148 -0.0325 -0.2837
13374W        W28843   9.103   0.093   4.576  0.4034  0.1265 -0.0699
13375W        W28844   0.209   6.650   5.339 -0.2725 -0.0980 -0.3112
13376W        W28845   1.534   4.864   1.831 -0.2070  0.3605 -0.0704
13377W        W28846  18.023  11.105  13.436  0.0155  0.1244  0.3435
13378W        W28847  16.805  15.089  13.000 -0.1213 -0.2987 -0.0584
13379W        W28848   3.333  10.521   0.072  0.0194  0.1382 -0.2411
13380W        W28849  14.969  12.285  14.921  0.3266 -0.3546 -0.4279
13381W        W28850  14.792   1.182   1.803  0.0917  0.0936 -0.0390
13382W        W28851   2.153   0.556   0.228 -0.1802 -0.3564  0.0475
13383W        W28852   1.293   5.343   9.678  0.1128  0.1952  0.1933
13384W        W28853   5.453   2.933   4.065  0.3617  0.4104  0.2119
13385W        W28854   6.231   1.437  12.946  0.0293  0.0807  0.2548
13386W        W28855   6.347   8.448   3.082 -0.0335  0.0531 -0.0621
13387W        W28856  13.134   5.423  14.401 -0.0619  0.1534  0.3860
13388W        W28857  14.703   4.859  10.540  0.0306  0.1570 -0.0519
13389W        W28858   8.783  11.715  14.712  0.2468  0.0369 -0.2905
13390W        W28859   5.257   4.039   2.139 -0.1032 -0.1383  0.2603
13391W        W28860   8.995  16.914   1.251  0.2158  0.1634  0.1883
13392W        W28861   8.022   7.082   4.509 -0.0268  0.1947  0.0175
13393W        W28862  12.552   7.228  14.540 -0.1895  0.1577  0.2776
13394W        W28863   6.901   1.725  10.901 -0.2256  0.1461 -0.2546
13395W        W28864   2.527  17.213  13.857 -0.2598 -0.3476  0.0008
13396W        W28865   7.112  12.834   5.688 -0.4131  0.0349 -0.2526
13397W        W28866   4.569  10.798   2.797 -0.3762 -0.0109 -0.3359
13398W        W28867  15.000  18.112  14.542 -0.2178  0.0758 -0.1429
13399W        W28868   0.797   1.104  13.486 -0.0164 -0.3733 -0.0218
13400W        W28869  14.879  15.884   2.151  0.0541  0.0767 -0.0738
13401W        W28870   4.135   3.211  12.843  0.2627  0.0710  0.3145
13402W        W28871  13.297   4.354  12.625 -0.3019 -0.0122  0.3549
13403W        W28872  12.759   9.631   3.303 -0.1121 -0.0816 -0.0553
13404W        W28873   4.737   2.209  12.065  0.0563 -0.2948 -0.1086
13405W        W28874  13.218  16.798  13.548 -0.0720  0.2615 -0.1457
13406W        W28875  12.757  15.706  13.224 -0.0649 -0.0985  0.2021
13407W        W28876   5.408  17.268   2.356 -0.1531  0.0555 -0.1344
13408W        W28877  13.489   7.548   5.573 -0.1439  0.0800 -0.0882
13409W        W28878   3.513  17.324  12.167  0.0715  0.2576  0.0139
13410W        W28879  10.820   8.217   2.168  0.3570  0.0273 -0.2143
13411W        W28880  14.531  18.394   0.752  0.2647 -0.0495  0.2231
13412W        W28881  15.777   5.304  14.830  0.1585  0.1458 -0.1172
13413W        W28882   5.791  18.254  12.114  0.1192  0.1753  0.3602
13414W        W28883   7.688  11.228   5.452 -0.0883 -0.0566  0.0060
13415W        W28884  18.562   8.940  12.018  0.0749  0.1527  0.1910
13416W        W28885   5.600   2.212  14.242  0.1800  0.0667  0.0508
13417W        W28886  18.028  11.893   5.053 -0.1358  0.1221 -0.1252
13418W        W28887  10.338  18.598   0.245  0.4111 -0.0694  0.1705
13419W        W28888  16.546   7.185  12.933 -0.1744 -0.0270  0.1077
13420W        W28889  13.500   7.101  14.161  0.2588  0.1358 -0.1036
13421W        W28890   5.490  11.843   0.045 -0.0747  0.2822 -0.0878
13422W        W28891   7.963   1.608   5.217 -0.3454 -0.0286 -0.1380
13423W        W28892   0.934  11.252   3.654  0.2974 -0.1554 -0.1777
13424W        W28893   9.530  10.984   5.802  0.0399  0.0070 -0.0917
13425W        W28894  11.487   3.475   5.367  0.2141 -0.0915  0.0991
13426W        W28895  18.752   3.853   0.387  0.0951  0.0577  0.1066
13427W        W28896  18.452  16.676   5.920 -0.0753  0.2097 -0.0019
13428W        W28897   0.401  11.079   3.765 -0.3513  0.0384 -0.0682
13429W        W28898  12.759   2.782   2.847 -0.1464  0.2853  0.0347
13430W        W28899   5.166   5.529   1.220  0.2719  0.1667  0.2046
13431W        W28900  17.314   7.445   3.657  0.2699  0.0216 -0.2512
13432W        W28901  14.857  13.048   4.780 -0.0588 -0.1595 -0.0909
13433W        W28902   4.206   9.550   2.100 -0.1243 -0.3635 -0.0215
13434W        W28903  14.238  10.456   4.175  0.1756  0.1095 -0.1256
13435W        W28904  12.838   7.308   1.537  0.0160 -0.1872  0.0575
13436W        W28905  10.160  12.130   4.818  0.0454 -0.1552  0.0064
13437W        W28906   3.985  17.112  11.083  0.1277 -0.1955 -0.0794
13438W        W28907   0.568   7.755  13.885 -0.2903 -0.2216 -0.1313
13439W        W28908  12.281   6.991  15.004 -0.0593 -0.0545 -0.2550
13440W        W28909  10.558   5.372   9.090  0.0580  0.3052  0.1284
13441W        W28910  18.904  16.215  14.419  0.1714 -0.0162  0.0968
13442W        W28911   9.976  12.245  12.121  0.6038  0.0866  0.2184
13443W        W28912   9.824  18.166   3.621  0.1672  0.0747 -0.0655
13444W        W28913   8.752   0.105   0.942  0.3911  0.0898 -0.0086
13445W        W28914  15.154  15.314  11.596  0.4104  0.0987 -0.1129
13446W        W28915   1.670  14.510   4.765 -0.0891 -0.2464 -0.1915
13447W        W28916   5.768   2.111   3.443 -0.0825  0.3354 -0.1621
13448W        W28917   9.500  17.646  12.907 -0.1944  0.0141 -0.1631
13449W        W28918  16.540   6.702  11.113 -0.3947 -0.3240  0.2314
13450W        W28919   2.042   9.052  15.131  0.1282 -0.0252  0.1087
13451W        W28920   3.390  16.316  11.766 -0.0541 -0.0988 -0.0392
13452W        W28921  10.502   9.382   1.527  0.2593 -0.0360  0.0417
13453W        W28922   3.292  16.089  10.347  0.1638  0.3474  0.0047
13454W        W28923   4.826   7.412   3.711  0.5385  0.2433 -0.2837
13455W        W28924   5.231  17.282   3.430 -0.2107  0.1259  0.1418
13456W        W28925  15.894  14.110   3.156 -0.0682 -0.2544 -0.3548
13457W        W28926  10.472   3.126   5.562 -0.1148  0.0374 -0.2528
13458W        W28927  16.901   6.498  14.095 -0.0744  0.1386 -0.5114
13459W        W28928   1.379   7.017  10.415 -0.3633  0.2119  0.2529
13460W        W28929   5.487  15.961  14.936  0.2263 -0.1840 -0.6411
13461W        W28930   9.016  17.559   4.397  0.0530 -0.2170 -0.1842
13462W        W28931  11.805  11.947   5.362 -0.0046  0.1355  0.1105
13463W        W28932   3.973  15.316   0.907  0.1350  0.2554 -0.0771
13464W        W28933  11.320  17.688   2.907 -0.0212  0.0231  0.1723
13465W        W28934  14.687   6.059   2.898  0.2180 -0.1603 -0.1122
13466W        W28935   7.635   1.680   3.339 -0.0914 -0.4462  0.0864
13467W        W28936  14.260   2.821   3.790 -0.1275  0.1057  0.1508
13468W        W28937   8.254  15.371   5.836  0.1931 -0.0422  0.0277
13469W        W28938   9.560   6.503  15.087  0.0988  0.3960  0.2700
13470W        W28939  12.456  13.905  11.337  0.1064  0.2230 -0.0745
13471W        W28940  18.752  17.004   0.161  0.1601  0.2282  0.0204
13472W        W28941  17.030  13.312   0.096  0.1209 -0.2879  0.2778
13473W        W28942  13.012  16.189  13.328 -0.0931  0.2440  0.1029
13474W        W28943  16.252   3.482   4.042  0.1707 -0.0601 -0.2270
13475W        W28944  17.007  14.756   2.575 -0.1974  0.0333  0.0953
13476W        W28945  18.289  13.135  12.851  0.0337  0.2296  0.0398
13477W        W28946  18.020   9.214   2.058 -0.1167  0.1832 -0.2979
13478W        W28947  18.099   9.529   3.319  0.0114  0.3369  0.1195
13479W        W28948  11.000  12.388   5.187  0.1480  0.0095  0.1418
13480W        W28949   8.839  17.907   3.467 -0.3470  0.0001  0.0757
13481W        W28950   3.472   5.491  10.175  0.1376 -0.2315  0.3220
13482W        W28951  11.243  12.584   1.442  0.0599 -0.2456  0.1920
13483W        W28952   9.795   6.522   1.150  0.1599  0.0748  0.0090
13484W        W28953  13.876   7.848  14.340 -0.2248 -0.2887 -0.0321
13485W        W28954  11.066   3.822  11.357  0.0823  0.2947 -0.3628
13486W        W28955   7.714   8.723   3.790  0.2623 -0.0604 -0.0177
13487W        W28956  11.325  14.732  13.351  0.4058 -0.2375 -0.0808
13488W        W28957   6.442  18.185   0.451  0.2871  0.3705  0.1127
13489W        W28958  12.538  17.191  15.426  0.1289 -0.0092 -0.0780
13490W        W28959  10.249   4.648  14.060 -0.1703  0.1737  0.1554
13491W        W28960  12.053  13.120  10.446  0.1382 -0.0696 -0.1878
13492W        W28961  12.660   3.809  12.329 -0.1106  0.1725  0.0306
13493W        W28962  16.798   9.477   4.763  0.4746  0.1256 -0.1427
13494W        W28963  15.522   8.720  15.467  0.0090 -0.2214  0.2352
13495W        W28964   9.016   9.933  14.163  0.0525 -0.1848  0.1736
13496W        W28965   5.365   5.190  13.721  0.1470 -0.0067 -0.2528
13497W        W28966   7.799   6.069   3.928 -0.1943 -0.0083 -0.2671
13498W        W28967  15.979  14.054  11.373  0.1191  0.3086  0.1189
13499W        W28968   5.279   7.532  11.790 -0.0453  0.1336  0.1293
13500W        W28969   4.928   9.595   9.652  0.0107 -0.0377 -0.0312
13501W        W28970   3.136  12.667  14.146  0.0880 -0.1776  0.1938
13502W        W28971   8.608   6.124   1.257 -0.1392  0.0269  0.0817
13503W        W28972   0.676   1.149   0.860 -0.1414  0.1318 -0.2003
13504W        W28973  15.542   0.269   3.640 -0.2865 -0.1395 -0.1918
13505W        W28974  18.665  16.694  12.582  0.2103  0.0316 -0.1247
13506W        W28975  11.424   8.927  14.753 -0.2156  0.0790  0.1411
13507W        W28976   7.943   6.719  11.003 -0.0878  0.3610  0.3548
13508W        W28977  18.290   6.981  11.132  0.2024 -0.1021 -0.2360
13509W        W28978  16.069  14.997  15.041  0.1974  0.0366  0.3738
13510W        W28979  18.205   4.037  15.124 -0.0023  0.1151 -0.1064
13511W        W28980   7.115  12.911   1.310  0.2571 -0.1344  0.0337
13512W        W28981   0.337   4.778  13.675 -0.0274  0.3121 -0.2233
13513W        W28982  10.712   8.121   3.694 -0.0318  0.4815  0.4064
13514W        W28983  15.938   2.299  13.207 -0.0585 -0.2501 -0.4753
13515W        W28984  17.060  15.823  11.691 -0.0232 -0.0662  0.1091
13516W        W28985   3.731  11.740   2.318  0.0526 -0.2644  0.0478
13517W        W28986  11.065   9.806  12.463  0.3674  0.0983 -0.1394
13518W        W28987  15.519   3.414   1.417 -0.3453  0.0986 -0.0060
13519W        W28988  14.250   9.653  14.257  0.0598  0.1811  0.0024
13520W        W28989   4.839  17.432   9.774 -0.0429  0.1196  0.0766
13521W        W28990  12.422   5.105  14.845  0.2560 -0.0336  0.1547
13522W        W28991  10.670  18.345   5.405  0.0344  0.0120 -0.0649
13523W        W28992   1.922   5.854  14.736 -0.0428 -0.3366  0.1998
13524W        W28993  15.373  11.993  12.581  0.0758 -0.3601  0.1542
13525W        W28994   6.157  15.170   3.304 -0.2357  0.2320 -0.0425
13526W        W28995   6.736  16.326   9.759  0.4576  0.1672  0.1835
13527W        W28996  17.053  11.687   0.642 -0.0633 -0.0311 -0.0045
13528W        W28997   0.964  15.017   0.998  0.4124  0.2977 -0.0649
13529W        W28998   4.879  17.739  12.560  0.0174 -0.1913  0.0072
13530W        W28999  15.616  18.637   0.800  0.1972 -0.1676  0.1895
13531W        W29000  12.155  13.177   0.546 -0.0746 -0.2551  0.2439
13532W        W29001  13.090  18.219  14.654  0.1908  0.2527  0.2413
13533W        W29002  17.724   7.149   2.387 -0.0296  0.2105 -0.1985
13534W        W29003  13.836   9.636   3.493 -0.1053 -0.1663 -0.1326
13535W        W29004   1.359  15.372   1.209 -0.1323 -0.0986 -0.0294
13536W        W29005   6.006   6.949   5.292  0.2093 -0.4384  0.0297
13537W        W29006  13.204  16.109   4.356 -0.1499  0.0439 -0.2431
13538W        W29007   2.794  12.922  13.819  0.3223  0.0556  0.2131
13539W        W29008  11.786  14.630   3.236  0.4420 -0.1866  0.3572
13540W        W29009  15.134   3.895  14.890  0.3187 -0.2485  0.0410
13541W        W29010   3.406  12.365   3.100 -0.1899 -0.0704  0.1288
13542W        W29011   6.853  12.612  10.686 -0.0915  0.0487 -0.0098
13543W        W29012  16.429  10.168   2.411  0.1453  0.2152  0.1896
13544W        W29013  10.532   7.868  13.533  0.0351  0.1454  0.0740
13545W        W29014   7.610   6.714  15.191 -0.6576 -0.0081  0.0284
13546W        W29015   0.273   4.764  11.422 -0.3590 -0.1727  0.1177
13547W        W29016  14.321   4.722   2.965  0.1743  0.0823 -0.0532
13548W        W29017  18.246   9.977   2.033 -0.0256 -0.2251  0.0411
13549W        W29018   5.576  12.010   4.959 -0.0271 -0.0027 -0.1085
13550W        W29019  11.467  17.169   4.103 -0.1231  0.0688  0.1189
13551W        W29020  18.019   1.197  13.333  0.4191 -0.1120  0.0909
13552W        W29021   7.953  14.872  12.387 -0.3070  0.1118  0.2694
13553W        W29022   8.800  10.725  11.885  0.0592 -0.2387 -0.2076
13554W        W29023  16.308  10.970   2.361 -0.1797  0.4215 -0.0800
13555W        W29024   9.409  13.966  14.556  0.0311  0.0477 -0.1565
13556W        W29025   7.142  13.393  11.014  0.0212  0.2157 -0.0708
13557W        W29026   3.518  17.094   0.561  0.0897 -0.0116 -0.0071
13558W        W29027  13.473   5.324   0.977  0.0125  0.1429 -0.1580
13559W        W29028  10.456   1.816   2.538  0.1568 -0.0357 -0.1972
13560W        W29029   8.136  13.405   4.231 -0.0521  0.1846  0.0100
13561W        W29030   2.511  11.360   4.998  0.0681 -0.1103 -0.4614
13562W        W29031  10.054   1.830  14.967 -0.2232  0.2840 -0.0987
13563W        W29032   2.642   9.819   0.434 -0.2079  0.3018  0.1659
13564W        W29033  12.334  14.728  13.789  0.0216  0.1573 -0.0971
13565W        W29034   8.894  15.712  14.534 -0.1611 -0.3490 -0.2607
13566W        W29035  18.808   5.060   3.954  0.1263 -0.0834  0.1204
13567W        W29036  18.564  11.247  15.271  0.0565  0.0606 -0.0053
13568W        W29037   5.723   6.837   0.804  0.1442  0.0060  0.3810
13569W        W29038  15.911   1.767   3.571  0.6822 -0.1147 -0.0622
13570W        W29039  11.519   9.572  12.670  0.0483  0.2971  0.3470
13571W        W29040  16.832   9.107  13.622 -0.3897  0.1459 -0.0561
13572W        W29041  16.783   3.923   1.624  0.0398  0.1989  0.2428
13573W        W29042   3.036   4.016  14.823 -0.0220 -0.2038 -0.0192
13574W        W29043  13.679  13.810   5.518  0.2840  0.3369 -0.2206
13575W        W29044   7.408  10.694  10.635  0.0927 -0.4036 -0.0929
13576W        W29045   0.149  14.825  13.734 -0.0430  0.0845 -0.1155
13577W        W29046  12.604   5.294  12.715 -0.0789  0.0275 -0.0101
13578W        W29047  12.813   8.305  14.473  0.1936  0.2438 -0.0121
13579W        W29048   8.169  18.869  13.040  0.0432 -0.0287  0.0692
13580W        W29049  14.703  12.074   6.111  0.2587  0.1869  0.4728
13581W        W29050  10.258   2.046   4.741  0.0104  0.0082  0.0228
13582W        W29051   1.248  14.169  15.457 -0.0771  0.1109  0.1977
13583W        W29052  13.735  14.375  11.455 -0.0312 -0.2813 -0.0480
13584W        W29053   3.394   7.313  12.687  0.0742 -0.0992 -0.1686
13585W        W29054  10.491   0.307   1.208 -0.0521  0.0833  0.1698
13586W        W29055   5.742   8.146  13.289  0.3453 -0.0068  0.0419
13587W        W29056   0.603  14.897  10.825 -0.1999  0.1046  0.0939
13588W        W29057  10.296  10.379  11.041  0.1049  0.1759 -0.0168
13589W        W29058   3.932   3.767  10.190  0.0562  0.0607  0.0339
13590W        W29059   7.301  17.674   1.181  0.0918  0.0493 -0.1132
13591W        W29060  12.399  16.583  12.791 -0.0002  0.0964 -0.0155
13592W        W29061   2.248   5.257  12.041 -0.1432  0.1156  0.2144
13593W        W29062  11.498   9.921  10.400  0.1469  0.1876 -0.3475
13594W        W29063  18.402   9.731   1.562  0.1697 -0.0482 -0.1578
13595W        W29064   6.802   8.847   0.258  0.3665 -0.1831  0.1202
13596W        W29065  18.941  18.839   4.660 -0.0698 -0.5401  0.1051
13597W        W29066  13.358   2.977  12.829  0.0040 -0.2801  0.0443
13598W        W29067   6.016  16.187  14.340  0.1098 -0.0127  0.3570
13599W        W29068   5.843  12.503   3.995  0.0943  0.3209  0.2347
13600W        W29069  17.157  16.330   1.700 -0.1385 -0.0611  0.1508
13601W        W29070   5.270  10.646  14.388 -0.1511 -0.4729  0.1971
13602W        W29071   1.788   9.076   4.751  0.1342 -0.0135 -0.1647
13603W        W29072  12.033   7.722  13.722  0.0955 -0.2087 -0.0432
13604W        W29073   1.019  10.910  12.359  0.0031 -0.1501 -0.0404
13605W        W29074  17.703   9.794   2.718 -0.1923  0.1153 -0.0167
13606W        W29075  13.218  12.047  11.516 -0.3344  0.0375  0.1476
13607W        W29076  15.527  13.214   0.058 -0.0520  0.0536 -0.1783
13608W        W29077   5.374  11.006   3.119 -0.1916  0.1143 -0.0714
13609W        W29078   5.532   0.604   3.355  0.0744  0.3173  0.1947
13610W        W29079   9.793   3.721  10.459  0.0119 -0.0366 -0.0135
13611W        W29080   9.658   1.055   2.706  0.2530  0.1207  0.1102
13612W        W29081  18.904   7.788  11.449  0.0158  0.0179 -0.1655
13613W        W29082   7.460   4.215  15.339  0.1537 -0.0971  0.1248
13614W        W29083   0.986  10.778   1.265 -0.2290 -0.0004  0.0582
13615W        W29084   8.365  18.315   5.924 -0.3442 -0.1159 -0.0516
13616W        W29085   6.320   4.457  11.193  0.0869  0.0398  0.1387
13617W        W29086  18.715   2.468   5.367  0.2029 -0.3362 -0.0423
13618W        W29087   2.938   2.677   0.594 -0.2081  0.0425  0.3402
13619W        W29088   0.144  15.459   2.813 -0.2440  0.0947  0.0130
13620W        W29089  16.455   0.153   5.602 -0.1483  0.0194  0.1250
13621W        W29090  14.995   9.672   4.965  0.0387  0.2326  0.0135
13622W        W29091  17.038  14.380   0.801 -0.3337 -0.0960  0.1432
13623W        W29092  18.204  13.175   0.852  0.2056 -0.1051  0.3053
13624W        W29093  12.051   7.382  13.345 -0.3369 -0.0188  0.0735
13625W        W29094  11.991   6.462  14.375 -0.3165  0.2264 -0.0960
13626W        W29095   2.769   8.813  14.397 -0.0480 -0.0539 -0.1081
13627W        W29096  12.461   4.825  13.019 -0.0328 -0.0089 -0.2114
13628W        W29097   0.106  15.522  14.624 -0.3641  0.3465  0.0655
13629W        W29098   9.700  11.192   2.113 -0.0322  0.2906  0.5315
13630W        W29099  18.108  13.659   4.904 -0.0930 -0.0763  0.1359
13631W        W29100  11.659  17.623  12.154 -0.1032 -0.2374 -0.0333
13632W        W29101  13.517   3.963  15.219  0.2993  0.0359  0.3522
13633W        W29102   4.989   0.664   3.806 -0.2282  0.2324  0.2071
13634W        W29103   8.362  13.855   4.632 -0.3375 -0.2146 -0.0413
13635W        W29104   6.100   2.550   3.882 -0.2238 -0.2167 -0.0234
13636W        W29105  18.478   4.171   4.166  0.2143  0.2404  0.1118
13637W        W29106   0.838   4.853  13.801  0.1853  0.1001 -0.2090
13638W        W29107   7.009   8.425  11.662  0.0961 -0.1960  0.2267
13639W        W29108  11.650  16.299  11.670  0.1451 -0.0547 -0.0250
13640W        W29109  16.045   3.867   4.427  0.1299  0.4088  0.0291
13641W        W29110  15.910  12.124  13.529 -0.0225  0.2219 -0.0824
13642W        W29111   0.719   5.084   1.086 -0.3151  0.0040  0.1852
13643W        W29112  14.789   7.436   1.704 -0.1149 -0.0746  0.2248
13644W        W29113   6.539   6.009  11.139 -0.0214  0.6566  0.2976
13645W        W29114  11.968  16.371   1.955  0.2438 -0.3008  0.1767
13646W        W29115  14.217  11.439  13.119 -0.2057 -0.2132 -0.0694
13647W        W29116  17.542   3.466   1.013  0.1994  0.2805 -0.2088
13648W        W29117   8.335   4.751  13.685 -0.2279  0.2216  0.1284
13649W        W29118   1.354   0.260  11.683 -0.2402 -0.2418 -0.1627
13650W        W29119   4.240  15.911   4.195 -0.2252  0.0692 -0.1669
13651W        W29120   5.497   2.044  12.694 -0.0921 -0.0626 -0.0711
13652W        W29121   2.419  15.794  12.485 -0.2030  0.0365  0.0009
13653W        W29122  18.309  14.818   1.882 -0.2636  0.0957 -0.2035
13654W        W29123  10.764   6.747   4.868 -0.2137 -0.1559 -0.1569
13655W        W29124   1.042   7.527   2.090  0.1784 -0.0812  0.0278
13656W        W29125  16.816  12.066  11.791 -0.1533  0.0220 -0.0459
13657W        W29126  15.205  18.419   3.339 -0.4384 -0.1683  0.1516
13658W        W29127  17.677   5.993  14.510  0.2505  0.1751 -0.1738
13659W        W29128  15.991  14.878  12.404  0.0477 -0.1618  0.2789
13660W        W29129  11.737  16.254   0.250  0.2010 -0.1665 -0.1651
13661W        W29130   5.611   6.539   2.675  0.1713 -0.1422 -0.2602
13662W        W29131   8.456  10.865  11.388 -0.1735  0.0186  0.1124
13663W        W29132  12.746  16.937  12.722  0.0217 -0.0142  0.4039
13664W        W29133   9.230  15.644  13.125 -0.0354 -0.1852  0.0857
13665W        W29134   9.353  18.112   3.237 -0.0632 -0.0676 -0.2070
13666W        W29135   6.386  17.208  11.722 -0.2254 -0.1760  0.1918
13667W        W29136  16.361   5.723   1.957 -0.0928 -0.1324 -0.3448
13668W        W29137   5.773  15.021  10.221 -0.1658 -0.0230 -0.0247
13669W        W29138   8.900  18.428   4.829 -0.0566  0.1515 -0.1720
13670W        W29139   2.152   6.891   1.013  0.0427 -0.0241 -0.0276
13671W        W29140   1.690  12.970   4.563  0.1158 -0.0201 -0.1149
13672W        W29141  17.698   7.508  14.236 -0.1122 -0.1850 -0.1955
13673W        W29142   6.553   3.896  11.624 -0.0665 -0.0607  0.2017
13674W        W29143   7.284   5.870  11.665 -0.0353 -0.0511 -0.0130
13675W        W29144  16.662  13.124   9.744 -0.1140  0.2008  0.1557
13676W        W29145  13.751   8.573  11.954 -0.0668  0.0354 -0.2708
13677W        W29146   7.970  12.863  11.424  0.0255  0.0764  0.1457
13678W        W29147  10.321  12.496  15.429  0.1040  0.1348 -0.2875
13679W        W29148   3.047  15.970  12.886  0.3150 -0.2364  0.1426
13680W        W29149  15.304   1.587   0.033  0.1974 -0.0112 -0.0796
13681W        W29150  11.988   0.312  11.696 -0.2204  0.0456 -0.1572
13682W        W29151  11.311  15.660  11.169 -0.2840  0.0083  0.1959
13683W        W29152  11.101   5.850  13.637 -0.0565  0.1516  0.2250
13684W        W29153  16.945   7.796   1.327 -0.0204  0.1918 -0.0916
13685W        W29154  18.327  10.779   0.448 -0.0872 -0.0796 -0.0184
13686W        W29155  12.260  13.427  12.105  0.1584  0.2337  0.1955
13687W        W29156  18.011   0.945   0.818 -0.1011  0.1097  0.1027
13688W        W29157  17.455  18.147   4.907 -0.2637 -0.1474  0.2147
13689W        W29158   7.702   6.492   3.086 -0.3467 -0.0268 -0.0051
13690W        W29159  11.625  13.166  11.766  0.1920  0.0200  0.1556
13691W        W29160  10.514  10.836   1.557 -0.0829 -0.0791 -0.0091
13692W        W29161  14.968  18.389   2.347 -0.3604 -0.0751 -0.0297
13693W        W29162   0.903   3.308  15.212 -0.4846 -0.0009  0.0681
13694W        W29163   9.338   4.354   1.717 -0.2738 -0.0902  0.3183
13695W        W29164  17.002   7.455  14.954  0.1539  0.1911 -0.0959
13696W        W29165   1.824  14.786   2.773 -0.0076  0.0293  0.1418
13697W        W29166   2.858  10.598  15.413 -0.0986  0.1779 -0.0894
13698W        W29167   2.327  17.805  12.815  0.1076 -0.0340  0.0610
13699W        W29168   7.312  10.615  11.290  0.0954 -0.0936  0.1685
13700W        W29169   7.021  17.639   3.176  0.0424  0.0455 -0.1323
13701W        W29170   3.877   6.023  14.353 -0.0323  0.0889 -0.0933
13702W        W29171  10.191  11.281  14.321  0.0560 -0.0036  0.0722
13703W        W29172   0.841   2.015  12.266  0.2874 -0.3254  0.2546
13704W        W29173   4.484   3.111   5.623  0.0604 -0.2744 -0.1080
13705W        W29174   6.142   7.275   3.546 -0.0404  0.0153  0.2893
13706W        W29175  10.923   1.008  13.673  0.1056 -0.1381 -0.1260
13707W        W29176  15.965  16.956  11.627  0.0977 -0.1317  0.0154
13708W        W29177   6.305  14.463   1.692  0.0814  0.2179  0.2339
13709W        W29178   3.831   2.126   2.566 -0.0050  0.0810  0.0681
13710W        W29179   8.361  16.914   3.853 -0.2569  0.1462  0.0627
13711W        W29180   4.727  18.103  14.288 -0.0699 -0.3750 -0.1148
13712W        W29181  17.311  11.058  12.124 -0.0182 -0.1238 -0.0593
13713W        W29182   7.991   6.921  12.580 -0.1940 -0.2259 -0.0657
13714W        W29183  10.414   8.734  15.384  0.0797  0.1667 -0.2541
13715W        W29184  13.163   4.717   2.697 -0.2920  0.1244 -0.0355
13716W        W29185   4.824  12.244   3.148 -0.2039 -0.4064  0.1730
13717W        W29186   2.423  13.405  14.617 -0.2955  0.3375 -0.0974
13718W        W29187   3.072  17.666  15.436  0.3248  0.0021 -0.1962
13719W        W29188   0.428  10.168   2.614  0.1064  0.2347 -0.2782
13720W        W29189  18.050  16.483   4.570 -0.2334  0.2684 -0.2906
13721W        W29190  15.361   7.723  12.336 -0.1621 -0.0739 -0.0999
13722W        W29191   4.274   8.621  11.871  0.0059 -0.2329  0.1383
13723W        W29192   1.936   2.844   3.983  0.2122  0.1224 -0.0579
13724W        W29193   5.763  11.068   5.418  0.1269 -0.1502 -0.0262
13725W        W29194   3.383   5.339  15.283 -0.0586  0.0667  0.2281
13726W        W29195   3.710   5.707   5.707  0.1534  0.3242  0.0975
13727W        W29196  14.417   6.752   4.990  0.0348  0.3495  0.3440
13728W        W29197   7.251   0.391   2.291 -0.3261 -0.3332  0.1415
13729W        W29198   1.375   4.494   3.368  0.0223  0.3902 -0.1641
13730W        W29199   9.502  14.955  11.296 -0.0567 -0.1429  0.2589
13731W        W29200  16.780  13.306   1.761  0.4798 -0.3449 -0.3181
13732W        W29201  18.938   4.618  13.036 -0.1840 -0.4857  0.0141
13733W        W29202  12.012   1.690  13.597 -0.1185 -0.2387 -0.0527
13734W        W29203  18.473  12.909  10.960  0.3022  0.1790 -0.1377
13735W        W29204  10.777  12.470  10.810 -0.1150 -0.0465 -0.0834
13736W        W29205   1.065   3.763  12.612  0.2744  0.1742  0.0442
13737W        W29206  18.331   5.050  12.490  0.0582  0.0066  0.3992
13738W        W29207   6.174  14.206   5.343  0.1619 -0.2469  0.0549
13739W        W29208   0.636  13.055  10.857  0.0701  0.0485 -0.0356
13740W        W29209  17.677  11.974   2.344 -0.1787  0.2301  0.2090
13741W        W29210  12.578  15.143   4.221 -0.3487 -0.0196 -0.3085
13742W        W29211  11.880   3.016  14.977 -0.0399  0.3413  0.2173
13743W        W29212   0.590  11.445  11.744  0.0509  0.1630  0.5864
13744W        W29213  17.702  17.641  14.012 -0.1435 -0.0021 -0.3018
13745W        W29214  11.745  18.404  13.008  0.3071  0.0544  0.1302
13746W        W29215  15.709  15.387  14.933 -0.0781 -0.1490 -0.0719
13747W        W29216   3.979  17.561   2.382  0.0192 -0.0235  0.1118
13748W        W29217   0.193  18.356  12.093 -0.1289 -0.0110 -0.0229
13749W        W29218   3.198   2.302  14.096  0.1021 -0.2454  0.2966
13750W        W29219  17.939  14.705  12.097 -0.0335  0.1622 -0.2392
13751W        W29220  17.444   8.548  13.998  0.1754  0.2945 -0.0503
13752W        W29221   9.581  10.866   0.106  0.1733  0.1677 -0.0289
13753W        W29222  18.031   8.495   2.196 -0.0147 -0.2402 -0.0761
13754W        W29223  13.622   1.923  11.838 -0.0173 -0.0436 -0.1196
13755W        W29224  18.614  18.181   5.364 -0.3508 -0.1115 -0.5114
13756W        W29225   2.215   5.256  10.995 -0.0824 -0.0541 -0.4211
13757W        W29226   6.343  16.153   0.192 -0.0742  0.1233 -0.2979
13758W        W29227  17.852   4.758   1.012  0.0561 -0.0342 -0.0844
13759W        W29228   7.196  17.644  11.384 -0.0833 -0.0830  0.0980
13760W        W29229   3.251   8.988   2.976 -0.0422  0.1575 -0.1488
13761W        W29230  13.321   3.562   1.741 -0.0317 -0.4059 -0.0306
13762W        W29231  18.716   6.816  12.168 -0.2871 -0.0641  0.2048
13763W        W29232  13.544   9.429  10.896  0.0215 -0.0884 -0.1649
13764W        W29233   7.217   4.233   5.499 -0.0542  0.3771  0.0201
13765W        W29234  13.364   6.636  12.976 -0.0248  0.0781 -0.0332
13766W        W29235  13.363  13.931  14.935 -0.1207  0.2875 -0.1385
13767W        W29236   6.069  17.132  14.818  0.2261 -0.0046 -0.1257
13768W        W29237  15.418   9.532  11.998 -0.0205  0.0614  0.0233
13769W        W29238  14.373  17.951  12.835 -0.1560 -0.1624  0.1739
13770W        W29239   0.891   4.089  11.487  0.2490  0.1043 -0.2892
13771W        W29240  18.568   0.255   1.518 -0.0036 -0.1972  0.0685
13772W        W29241  12.910  13.346   1.133  0.0533  0.2705 -0.0596
13773W        W29242   0.013  16.477   1.051  0.2146 -0.4947  0.3149
13774W        W29243   7.280  14.765  14.515  0.1830 -0.2503  0.2073
13775W        W29244   7.576   6.027  10.670 -0.1590 -0.0239  0.2164
13776W        W29245   1.004   7.353   4.773 -0.0901 -0.2630  0.0731
13777W        W29246   9.825  10.306   1.886 -0.0723 -0.0162 -0.1079
13778W        W29247   5.592   5.247  14.303  0.1144  0.3131  0.0607
13779W        W29248  16.903  17.250   2.296 -0.2041  0.3320  0.1685
13780W        W29249   1.283  13.735   9.604 -0.1785 -0.0516 -0.0884
13781W        W29250  16.017   9.281  13.161  0.7661 -0.1229 -0.1999
13782W        W29251  15.863  18.832  14.590 -0.0461  0.0632 -0.2395
13783W        W29252   6.842  10.529   1.820  0.1101  0.0187  0.1227
13784W        W29253   1.647   0.250   5.894 -0.3558  0.2875 -0.3742
13785W        W29254   9.216  18.072  11.068 -0.0660 -0.0293 -0.0866
13786W        W29255  16.121   9.110   1.238  0.0847  0.1808  0.4841
13787W        W29256  14.081   3.229  11.622 -0.1315 -0.0405 -0.1483
13788W        W29257  13.542   8.404  15.049 -0.0127  0.2043  0.1661
13789W        W29258   0.008  12.433   2.422  0.4033 -0.0456 -0.1295
13790W        W29259   5.809   6.397  11.073  0.3372 -0.0553 -0.1497
13791W        W29260   2.875  12.260   0.473 -0.3885 -0.3139  0.1369
13792W        W29261  10.177   6.682  11.611  0.3475  0.0530  0.1639
13793W        W29262   6.787  17.659   4.594  0.1802 -0.0332 -0.0351
13794W        W29263  12.777  17.888  15.504 -0.0284  0.1054  0.0030
13795W        W29264  11.127  18.663   1.257 -0.1968  0.1096  0.0740
13796W        W29265  10.368   1.322   3.756 -0.0631  0.3515 -0.1463
13797W        W29266   5.526   1.330  11.909  0.0031 -0.0818  0.0391
13798W        W29267   6.879  16.137   1.456  0.0014  0.0414 -0.0692
13799W        W29268  18.533  10.383  15.236 -0.0571  0.1699  0.0423
13800W        W29269  11.267   5.074   3.641 -0.2162 -0.0263  0.0500
13801W        W29270   7.633   4.170  11.997 -0.1078 -0.4265  0.2183
13802W        W29271  17.421  17.675   1.839  0.3375 -0.3164 -0.0320
13803W        W29272   8.150   9.816  12.469 -0.1257 -0.0621 -0.1905
13804W        W29273   9.571   9.719  10.147 -0.2411 -0.1234 -0.0037
13805W        W29274   8.018   3.163  14.185  0.1335  0.1735 -0.1746
13806W        W29275   3.166   8.115   2.528  0.0731 -0.0656 -0.0194
13807W        W29276  11.838   9.260  10.978  0.4414  0.1518  0.0927
13808W        W29277  15.188  14.381  11.593  0.3675 -0.2613  0.0385
13809W        W29278  12.730   6.466   0.458 -0.2002 -0.1417 -0.3278
13810W        W29279  13.152   0.534   0.964  0.2163  0.0392 -0.2121
13811W        W29280   7.981   9.442  11.278  0.0119 -0.1126 -0.1790
13812W        W29281  18.296   3.494  12.208  0.0889  0.4787  0.0815
13813W        W29282  10.168  11.470   3.338 -0.0525 -0.1024 -0.4440
13814W        W29283  13.195   3.336  13.536 -0.0321  0.1238 -0.1572
13815W        W29284   6.427  18.147   3.781  0.1007  0.0025 -0.0398
13816W        W29285   3.439  10.961  14.632  0.0474 -0.1952  0.1292
13817W        W29286   3.661   8.088  14.599  0.1033  0.0058  0.2725
13818W        W29287  17.541   4.183  11.452 -0.0492  0.2001 -0.0284
13819W        W29288   9.574   6.986  15.347  0.2054 -0.1125  0.2475
13820W        W29289  16.829   2.569   1.013 -0.0497  0.1206  0.1587
13821W        W29290  14.350  12.051   3.788 -0.2208 -0.0282  0.0255
13822W        W29291  18.248  14.476  13.825  0.1286  0.3182 -0.0270
13823W        W29292  10.794  12.625   3.316  0.3630  0.0223 -0.3334
13824W        W29293  18.450   6.032  12.565 -0.0501 -0.2641 -0.1290
13825W        W29294  11.014   7.836  12.720 -0.2912 -0.2537 -0.0262
13826W        W29295  12.020  17.382  13.177  0.3105 -0.0398 -0.0680
13827W        W29296  14.060  12.842  11.493  0.2133  0.1781  0.1560
13828W        W29297  15.610  17.293   1.514  0.0581  0.2123 -0.0084
13829W        W29298   9.533   2.006  11.112  0.2448  0.1261 -0.0800
13830W        W29299   7.761   5.355  14.667 -0.2620  0.0048  0.0217
13831W        W29300   7.518  11.751   3.938 -0.0236 -0.1541  0.0615
13832W        W29301   2.290  10.398   3.813  0.1091 -0.0666 -0.0087
13833W        W29302   0.068  15.990   5.312 -0.0323  0.2444 -0.1638
13834W        W29303  17.387   4.763   0.753 -0.2645  0.0587 -0.2730
13835W        W29304   3.907   8.445  14.886 -0.4081 -0.0309 -0.3746
13836W        W29305  14.791  16.221   4.371 -0.1439  0.2302  0.3018
13837W        W29306  18.042   1.499  10.383  0.0060 -0.0852 -0.2125
13838W        W29307  13.923   7.803   1.482  0.3041 -0.0438  0.1205
13839W        W29308   1.591  16.285  10.858 -0.0901 -0.1281 -0.0189
13840W        W29309  16.042  12.475  10.837  0.2619 -0.2929  0.3437
13841W        W29310   8.241  11.429   2.154 -0.1395  0.0574 -0.0495
13842W        W29311   1.934  10.650  13.781 -0.1665 -0.0340 -0.1626
13843W        W29312  16.731   0.573  13.397  0.1162 -0.1183  0.1917
13844W        W29313  17.237  10.606   5.128  0.0239 -0.0971  0.3673
13845W        W29314  14.886  10.511   2.983  0.2861 -0.0973 -0.0437
13846W        W29315   1.397  18.892  14.130  0.0326  0.1024 -0.3589
13847W        W29316   3.311   4.222  15.338  0.0005 -0.1558 -0.2319
13848W        W29317   5.815  14.966   2.850 -0.1154 -0.2311 -0.0928
13849W        W29318   7.375  12.440  15.218  0.4007 -0.1020  0.1880
13850W        W29319   0.684  13.381  13.508 -0.0844  0.0135  0.1395
13851W        W29320   2.929  17.801  14.970 -0.0785 -0.2846  0.1787
13852W        W29321   7.176   7.781  14.916 -0.1403  0.1433  0.3568
13853W        W29322  12.443   9.165  13.070 -0.1769 -0.0265 -0.0464
13854W        W29323  12.869  15.041   1.798 -0.1785  0.0056 -0.1131
13855W        W29324   6.267   2.849  13.804  0.1851  0.1380  0.2191
13856W        W29325   0.301  11.931   4.945 -0.1082 -0.1130  0.1415
13857W        W29326  12.519   4.571  14.782 -0.0502 -0.0072  0.1010
13858W        W29327  12.326  12.864   1.401  0.1503  0.0446  0.2007
13859W        W29328   6.012   5.953   0.250  0.4508  0.1550 -0.0699
13860W        W29329   5.204   3.949   3.464  0.2130  0.1178 -0.1242
13861W        W29330  14.009  13.512   3.699  0.1996  0.1840 -0.5572
13862W        W29331  15.527   9.897  15.018 -0.1821 -0.1934  0.2046
13863W        W29332   9.165   4.326  14.734  0.0607  0.0254  0.1820
13864W        W29333   0.306  10.795   3.369 -0.0084 -0.3439 -0.0089
13865W        W29334   3.533   4.440   4.042 -0.0012 -0.1403  0.0865
13866W        W29335   8.130  14.213  10.691  0.2103 -0.1169  0.1649
13867W        W29336   4.404   8.944   0.442  0.0651  0.1829  0.0526
13868W        W29337  15.317   6.746   2.818  0.3496  0.3225  0.0700
13869W        W29338  14.816   3.605  11.181  0.0462 -0.0988  0.0999
13870W        W29339  13.456  11.952   4.874  0.4568  0.0593 -0.0908
13871W        W29340   8.680  17.277   2.423  0.0567  0.1146 -0.3325
13872W        W29341   3.143   6.750   2.254  0.0274  0.1676  0.2320
13873W        W29342  10.251  15.950   5.309 -0.1169  0.1780 -0.0689
13874W        W29343   2.834   4.387   0.686  0.3816  0.0116  0.2353
13875W        W29344   3.587  15.564  10.636  0.0902 -0.0281 -0.0991
13876W        W29345   9.339   2.454   3.017  0.1367 -0.1946 -0.0793
13877W        W29346  14.493  16.469  13.209  0.0406 -0.0366  0.0458
13878W        W29347  10.066   6.503   5.515 -0.0001  0.2285 -0.0039
13879W        W29348  13.228   4.313  11.528 -0.2414 -0.0591 -0.1125
13880W        W29349   0.754  17.318  11.809 -0.1235  0.2724 -0.1815
13881W        W29350   8.064  16.443   4.096  0.2502  0.0068  0.3598
13882W        W29351  10.237   4.464   4.012  0.0245  0.5034  0.0208
13883W        W29352   3.929   5.633   0.571 -0.0226 -0.3200 -0.1965
13884W        W29353  13.988   0.031  12.204  0.1363  0.3482 -0.1717
13885W        W29354   9.847   0.583  13.639  0.0066 -0.0788  0.0794
13886W        W29355   9.288   4.261  11.680 -0.2043  0.0336 -0.0179
13887W        W29356   7.499  12.697   3.356  0.3842  0.1039 -0.1097
13888W        W29357  14.862   1.233   9.829  0.0164 -0.1162 -0.0568
13889W        W29358   0.338  14.687   5.505  0.0459 -0.0033  0.3040
13890W        W29359   7.605  18.499   5.251 -0.2577 -0.2885  0.0359
13891W        W29360   4.133   8.127   2.564  0.1005 -0.0115 -0.0862
13892W        W29361   0.641  16.461   2.204  0.0440 -0.1827 -0.1807
13893W        W29362  12.572   6.505   2.813  0.0034 -0.2290 -0.2814
13894W        W29363  18.233   4.142  14.081  0.1871  0.0645 -0.1484
13895W        W29364  14.837  13.860   4.775  0.0645 -0.3047 -0.1188
13896W        W29365  12.458  16.681  11.378  0.3169 -0.0827  0.0466
13897W        W29366  17.310   9.308  12.373  0.2143  0.3125 -0.0253
13898W        W29367   9.609   0.027  14.298  0.2639 -0.2700  0.0359
13899W        W29368  11.414   4.912  11.501  0.3307  0.1785 -0.0416
13900W        W29369   5.503   0.585  12.591  0.1742  0.3958  0.0803
13901W        W29370  16.728  14.639  15.503  0.0429  0.1358 -0.2583
13902W        W29371   9.006   4.026  12.053  0.2775  0.3548  0.0822
13903W        W29372  17.836   6.217   2.865 -0.0150 -0.0092  0.0132
13904W        W29373   2.011  18.435  14.253 -0.1754  0.3067  0.1563
13905W        W29374   0.033   3.460   9.603  0.4207  0.1445 -0.2969
13906W        W29375   7.620  10.483   3.003 -0.0890  0.0034  0.2346
13907W        W29376   6.241  15.655   2.614 -0.2205  0.2724 -0.1074
13908W        W29377  13.711  12.807  14.161 -0.0656  0.1874 -0.2766
13909W        W29378  14.174   4.588   3.779  0.1710  0.0014  0.1378
13910W        W29379  14.842   9.261  13.735  0.3244 -0.0767  0.0145
13911W        W29380  14.161  12.510   4.706  0.0336 -0.1152  0.3480
13912W        W29381   7.205  14.893  10.794  0.1205 -0.1923  0.1291
13913W        W29382  13.289   3.444  10.477  0.1145  0.1105  0.2573
13914W        W29383   8.023  15.009   0.298  0.1098 -0.0757  0.3250
13915W        W29384  14.357   1.611  13.354  0.0709 -0.1783 -0.1931
13916W        W29385   7.142   0.530   0.835  0.2483  0.2627  0.1247
13917W        W29386   3.784  14.516  11.679 -0.0672 -0.1829 -0.0589
13918W        W29387  12.885  10.180  14.658 -0.2336 -0.2444  0.1348
13919W        W29388   0.596   1.245   5.076  0.0331  0.0064 -0.1215
13920W        W29389   5.492   9.136  10.835 -0.2721 -0.1333  0.0628
13921W        W29390   7.921  16.077  14.625  0.0722 -0.1469  0.0950
13922W        W29391   3.675   9.412   3.466 -0.0376  0.2847  0.3449
13923W        W29392   8.547  15.206   6.387  0.2879  0.0256  0.2092
13924W        W29393  18.361   3.337   3.548  0.0678 -0.1433  0.0896
13925W        W29394  17.046   8.217  14.464  0.1889  0.1034  0.1241
13926W        W29395   0.593   5.917  10.989  0.2367  0.1914 -0.0215
13927W        W29396  10.488  11.352   4.266 -0.0238 -0.2476 -0.0855
13928W        W29397   9.058   9.407  14.136 -0.1008  0.2183  0.1200
13929W        W29398   9.741  14.710   3.047  0.4301 -0.2125 -0.0459
13930W        W29399   0.965   0.840  12.502 -0.2266  0.1437 -0.2217
13931W        W29400  10.611  17.175  12.871  0.0436  0.0698  0.0226
13932W        W29401   6.382  12.950  10.988 -0.0044  0.1817  0.2770
13933W        W29402   7.896   9.153   4.003 -0.0087 -0.0003 -0.1082
13934W        W29403   5.540  17.343   2.850 -0.3546 -0.0028  0.3547
13935W        W29404   0.981   3.439  12.986  0.2821 -0.1215 -0.3284
13936W        W29405  10.870   0.155  10.648 -0.0684  0.0413 -0.1139
13937W        W29406  16.314   3.884   1.466 -0.2121 -0.0897  0.0509
13938W        W29407  14.261   8.995  11.286  0.0128 -0.1328 -0.0339
13939W        W29408   4.619  14.980  10.624  0.0243 -0.0636 -0.1326
13940W        W29409  15.069  15.425   2.998 -0.4735 -0.1863 -0.0035
13941W        W29410  11.311  11.734   1.457  0.3858 -0.2698  0.0220
13942W        W29411   1.276   1.664   5.716 -0.3854  0.3757  0.0873
13943W        W29412  15.083   4.428  12.759 -0.2065  0.1391 -0.1156
13944W        W29413   3.658  13.085  14.077  0.1416  0.1510 -0.1945
13945W        W29414   8.733  12.386  12.933  0.1187 -0.0056  0.0779
13946W        W29415  15.927   2.726  13.506  0.0922  0.0663  0.2305
13947W        W29416   4.295  12.535  14.595 -0.0998 -0.0443 -0.0346
13948W        W29417  18.665   9.294   1.491 -0.0551 -0.1529  0.1366
13949W        W29418  15.245   6.209  10.942 -0.1133 -0.3114  0.0579
13950W        W29419  18.064  11.632  13.521 -0.2837  0.0551  0.3331
13951W        W29420   7.634  12.636   1.689 -0.0287  0.0317  0.1469
13952W        W29421   0.949  18.259  13.352 -0.1934  0.2183  0.0805
13953W        W29422   3.939  15.193  13.373  0.2408 -0.1158 -0.0112
13954W        W29423   3.090   0.730  11.159  0.4208 -0.4066  0.4049
13955W        W29424   6.889  11.481  13.385 -0.1861  0.3156  0.1348
13956W        W29425  11.671   2.002  11.412 -0.3606 -0.2468 -0.0250
13957W        W29426   2.353   6.882  14.950  0.0450 -0.2823 -0.0025
13958W        W29427   4.920  16.981   0.334 -0.1075 -0.2365  0.3035
13959W        W29428  18.675   7.062  13.536 -0.1269  0.0602  0.1949
13960W        W29429  15.896  18.330  12.434 -0.0530  0.1907  0.3459
13961W        W29430  12.529  17.033   3.243 -0.3326 -0.2004 -0.0642
13962W        W29431   3.351  12.583  12.006 -0.1904 -0.1785 -0.1007
13963W        W29432   4.270   0.013   4.202 -0.0035  0.2507 -0.0406
13964W        W29433  13.657   4.910  11.333  0.2751 -0.0754 -0.2011
13965W        W29434  13.946   2.018  13.720  0.1119  0.0864  0.1303
13966W        W29435  13.824  13.328   2.408  0.0570  0.3032 -0.4440
13967W        W29436   1.785  16.816  12.507 -0.1564 -0.1089  0.0510
13968W        W29437  11.303   8.701  12.410 -0.1001 -0.1238 -0.0196
13969W        W29438   3.243   3.672   1.115  0.0253  0.1170 -0.0160
13970W        W29439  18.791   2.583  14.153  0.3062  0.0245 -0.3131
13971W        W29440  11.305   2.392  14.936 -0.1788  0.0754  0.2330
13972W        W29441   1.483  15.704  12.885 -0.1956  0.4682 -0.0008
13973W        W29442   6.356  13.216  14.584 -0.2452  0.2485  0.0932
13974W        W29443   9.718  16.854   0.436 -0.1376 -0.1544  0.3120
13975W        W29444   8.842   7.868  11.230 -0.0785  0.0781  0.0363
13976W        W29445  18.772  10.901   2.108 -0.3165 -0.2184 -0.4660
13977W        W29446   9.532   3.798   0.367  0.1954 -0.0522 -0.0069
13978W        W29447  16.111  18.434   1.766  0.0957  0.0257  0.0050
13979W        W29448   1.953   6.500   0.176 -0.2043 -0.2818  0.1314
13980W        W29449  14.375  18.545   1.665 -0.5134 -0.0626  0.0811
13981W        W29450   5.645  12.026   3.126 -0.0303  0.1758  0.3607
13982W        W29451  16.996   8.462   2.840 -0.0578  0.0332  0.0937
13983W        W29452  17.347  18.504   2.464 -0.0781  0.2307 -0.2773
13984W        W29453   6.041   3.820   4.884 -0.1462 -0.4209  0.0173
13985W        W29454   6.461   8.065   0.043 -0.5298 -0.1105  0.1015
13986W        W29455  13.937  13.458   4.785 -0.0603  0.3429  0.1643
13987W        W29456  13.464  14.364   3.477 -0.0440 -0.0461 -0.2713
13988W        W29457   1.366  18.901   2.161  0.0931 -0.2386  0.1660
13989W        W29458   8.862  13.765  10.927  0.0137 -0.1541  0.0850
13990W        W29459  13.207   8.858   2.088 -0.1600 -0.0096  0.1977
13991W        W29460   8.867   3.729   1.400 -0.1852  0.3056  0.1904
13992W        W29461  12.238   8.062  12.281  0.3328  0.0656 -0.1844
13993W        W29462  14.230   3.880   5.460  0.1098  0.2082  0.1318
13994W        W29463  17.610  17.470  12.264  0.1679 -0.2269 -0.0194
13995W        W29464   5.127  11.024   2.655  0.2452  0.1289 -0.2341
13996W        W29465   0.136   2.690  15.054  0.0704 -0.1363  0.2854
13997W        W29466   2.899  14.102   1.264 -0.3332 -0.1983 -0.3316
13998W        W29467  16.105   8.446  13.236 -0.0014  0.1235 -0.1282
13999W        W29468   0.152   4.382   4.679  0.1083  0.2242  0.0597
14000W        W29469  14.560   1.906   2.362  0.1585  0.0653 -0.1650
14001W        W29470  13.346   2.439  14.628 -0.4485  0.1924  0.0067
14002W        W29471   3.674  17.776  14.502 -0.1575 -0.4634  0.1547
14003W        W29472   2.908   5.567   0.128  0.1160  0.3453 -0.0968
14004W        W29473   3.730   4.554   1.324  0.3925 -0.2529  0.3899
14005W        W29474  15.780  18.485  15.020 -0.0953 -0.0358 -0.1580
14006W        W29475   6.569   2.438   3.834  0.1819  0.0505 -0.2351
14007W        W29476   0.131  15.322  11.404 -0.0330  0.1130 -0.1424
14008W        W29477  17.641  10.365  10.502  0.3507 -0.3126  0.0110
14009W        W29478   9.740  14.034   6.442 -0.3343 -0.0628  0.1044
14010W        W29479  15.832   1.096   4.740  0.3119 -0.1317  0.1446
14011W        W29480  11.788   5.233  13.566  0.0048 -0.5141 -0.1497
14012W        W29481  16.643   5.431   2.939 -0.2137 -0.0453  0.1875
14013W        W29482  12.354   2.987  12.059  0.0859  0.1260  0.1573
14014W        W29483   6.732  18.841  12.732 -0.0069  0.0955 -0.1525
14015W        W29484  15.593  16.291   3.694  0.1085  0.1591 -0.2246
14016W        W29485   4.388   8.055   3.945 -0.0949 -0.1239 -0.0121
14017W        W29486  17.205   0.004   1.391 -0.1335 -0.0406  0.0853
14018W        W29487  14.308   9.532   3.595  0.2296 -0.3173  0.0859
14019W        W29488  17.107  15.836  12.442  0.1237 -0.0806 -0.0697
14020W        W29489   5.867  17.035   0.197  0.2848 -0.0908 -0.1526
14021W        W29490  18.100  16.477   1.047  0.0616  0.0327  0.4326
14022W        W29491   7.402   6.710   3.531 -0.2482 -0.1040 -0.0203
14023W        W29492  16.750  16.534  14.506 -0.0274  0.1172 -0.1096
14024W        W29493   0.829   2.206  14.155  0.1456  0.1657 -0.0765
14025W        W29494   0.442  14.795   0.885 -0.3295 -0.0963  0.0320
14026W        W29495  14.042   9.794  12.331 -0.0826  0.0138  0.1480
14027W        W29496  17.878   2.110  11.657  0.1442 -0.2455  0.0797
14028W        W29497   9.686   1.058  12.905 -0.1055 -0.0526  0.3323
14029W        W29498   7.359  18.831  14.302 -0.0873  0.0697  0.0147
14030W        W29499  15.646   2.194  10.208  0.1357  0.2121  0.0971
14031W        W29500  16.089   1.079   2.676  0.2993  0.0267 -0.3789
14032W        W29501   1.660   5.071  15.083 -0.2868  0.2192 -0.0697
14033W        W29502  11.500   5.756  11.270 -0.1814 -0.3190 -0.1476
14034W        W29503  18.856  13.625  13.067  0.1430 -0.0323  0.2961
14035W        W29504   4.203  18.887  10.056 -0.1505 -0.0324  0.2866
14036W        W29505   5.167  13.334   4.522 -0.1152  0.2500  0.0268
14037W        W29506  10.266  16.038   9.999  0.0131 -0.2175  0.0055
14038W        W29507  17.940  18.869  12.164  0.1362 -0.0390 -0.2102
14039W        W29508  18.941   7.107   9.777  0.1818  0.2968 -0.0226
14040W        W29509   7.705   3.035   3.683 -0.0097  0.1689 -0.0120
14041W        W29510  17.463   2.720   1.835 -0.0547 -0.0229  0.0392
14042W        W29511  10.982   1.241   0.365  0.0064  0.1935  0.1690
14043W        W29512  15.257  18.236  11.786 -0.0564 -0.0484  0.2088
14044W        W29513  12.708   8.118  12.255 -0.1584 -0.0756 -0.1311
14045W        W29514   6.340  12.896  11.701  0.0097  0.0026 -0.3012
14046W        W29515  14.230   4.328   1.214  0.2470  0.0324  0.4012
14047W        W29516  13.779  10.422  12.595 -0.2021 -0.1775 -0.0426
14048W        W29517   8.715  16.074   1.299  0.2337 -0.2097  0.2626
14049W        W29518   4.165   7.927  14.853  0.0857  0.0373  0.0391
14050W        W29519   4.283   5.317  10.622 -0.1112  0.2209 -0.0259
14051W        W29520  13.645   4.771  10.134  0.2539  0.1246 -0.1671
14052W        W29521   1.466  16.685   0.427  0.2770  0.1723  0.0328
14053W        W29522  13.304   1.618   4.768  0.3520 -0.1538 -0.0420
14054W        W29523   3.741  18.334  13.826  0.1244 -0.1869  0.3287
14055W        W29524  18.350   8.336   1.830 -0.0532 -0.2329  0.3994
14056W        W29525  14.072  13.614   1.929 -0.1282  0.2149 -0.0940
14057W        W29526  13.375  15.478  11.964  0.1509 -0.0340 -0.2221
14058W        W29527  14.525  11.622   0.080 -0.0415  0.2276 -0.0449
14059W        W29528   4.185   5.009   2.851 -0.1419 -0.0958  0.1052
14060W        W29529  12.696  17.051  11.130 -0.0852  0.0414  0.2667
14061W        W29530   8.040  16.820  14.268 -0.3925 -0.2705  0.2102
14062W        W29531   4.021  11.528   0.716 -0.0198 -0.0658  0.1258
14063W        W29532   0.408  16.303   4.554  0.1871  0.2631 -0.0953
14064W        W29533  12.076  17.040  11.199 -0.0598  0.2228  0.1099
14065W        W29534   7.484   6.197   2.707 -0.0301 -0.1771 -0.0194
14066W        W29535   7.016   6.614   1.943 -0.3108 -0.2687  0.3079
14067W        W29536  12.312  15.494   6.044  0.1420 -0.0072 -0.0848
14068W        W29537   7.088  14.389   0.272  0.0671 -0.0774 -0.1318
14069W        W29538   9.925  13.577  12.052 -0.2221 -0.0472  0.0052
14070W        W29539   4.617   0.770   2.843 -0.0876 -0.0203 -0.2858
14071W        W29540   5.721  16.796  11.175 -0.4587 -0.1051  0.3411
14072W        W29541   5.153   6.021  14.670  0.2329  0.1206 -0.0744
14073W        W29542  10.438  15.475   4.450 -0.3258  0.1160  0.1320
14074W        W29543   4.365  13.224   0.220 -0.1504  0.1029 -0.0697
14075W        W29544  10.849   3.273   1.060  0.1862  0.0455  0.0218
14076W        W29545   4.212   4.780   0.762 -0.1853 -0.1519  0.1864
14077W        W29546   7.278   8.465  14.071 -0.0403  0.0587  0.0189
14078W        W29547  16.643   6.224   2.812 -0.2570  0.0563  0.1104
14079W        W29548  16.824   8.757  11.383 -0.1783 -0.2760  0.0259
14080W        W29549  14.822  11.131  14.369 -0.0918 -0.1280 -0.0430
14081W        W29550  17.146   5.361  13.130  0.0346 -0.2069 -0.0605
14082W        W29551  15.147   7.538   2.496  0.4104 -0.1298  0.1519
14083W        W29552  13.739  17.635  13.369 -0.1632 -0.0504  0.1597
14084W        W29553  18.848   5.635   2.485  0.1452  0.1569  0.0087
14085W        W29554   9.345   1.844   2.108 -0.0133  0.1665 -0.3063
14086W        W29555  14.360  12.953  12.089 -0.1619 -0.1037 -0.0608
14087W        W29556   1.521  17.304   4.344 -0.1592 -0.4459  0.0738
14088W        W29557   8.986   3.562  10.602 -0.3654  0.1076  0.0371
14089W        W29558   9.168   6.079  11.272 -0.2820  0.1847 -0.3070
14090W        W29559  13.645  18.824   0.598 -0.2375 -0.1269  0.2422
14091W        W29560  12.789  18.570   4.319 -0.1402 -0.1245 -0.1177
14092W        W29561  10.845  12.641   4.793  0.1348 -0.3240  0.1013
14093W        W29562   6.881   5.412   1.073 -0.1464  0.1528  0.1061
14094W        W29563   1.511  11.032   2.616 -0.2075  0.2367 -0.1793
14095W        W29564   6.143   0.384  11.219  0.2009 -0.0446  0.4486
14096W        W29565   6.415  11.207   3.344 -0.1016 -0.2269  0.0069
14097W        W29566  16.239  12.418  13.755 -0.1753 -0.0331  0.4370
14098W        W29567  18.573   8.811   5.758 -0.2062 -0.0045 -0.0642
14099W        W29568   7.704  13.237   3.976 -0.1063  0.1176  0.2133
14100W        W29569  15.633  13.171  13.972 -0.2627 -0.1122 -0.0717
14101W        W29570  13.070  10.505   0.306  0.0715 -0.3826 -0.2698
14102W        W29571  15.579   8.120   3.060  0.0077  0.0063 -0.1354
14103W        W29572  14.726   0.911  14.226 -0.3946 -0.0261  0.1619
14104W        W29573   4.203   4.600   1.372  0.0466 -0.0356  0.0435
14105W        W29574  16.225   7.150  14.694  0.1171  0.3247  0.1505
14106W        W29575   5.931  13.674   2.443  0.0936 -0.0358 -0.0054
14107W        W29576  16.375  14.082   3.344  0.5478 -0.1217  0.0883
14108W        W29577  18.000   6.740  14.564 -0.0625  0.3056  0.1969
14109W        W29578  10.727  15.283  11.852 -0.2835 -0.2405  0.0502
14110W        W29579  10.583  17.699   2.432  0.1150  0.3205  0.0986
14111W        W29580   7.970   9.363  12.191 -0.1013  0.0102  0.2504
14112W        W29581   8.093   6.845  12.006 -0.0813  0.0829 -0.1718
14113W        W29582  12.073   1.658  14.107  0.0001 -0.0854  0.1230
14114W        W29583   9.107  11.767  11.890 -0.2806 -0.0144  0.0216
14115W        W29584  13.816   5.537   1.381 -0.1347  0.0249 -0.0843
14116W        W29585  16.534  12.710  12.908 -0.1038  0.2190 -0.0858
14117W        W29586  15.052   6.199  11.431 -0.0130 -0.3084 -0.2888
14118W        W29587   6.412  16.903   4.242  0.1172 -0.0679  0.2397
14119W        W29588   8.408   3.631   0.803 -0.3102  0.0817 -0.2422
14120W        W29589  18.773  11.015   0.451  0.5148  0.2360  0.1930
14121W        W29590  15.246   7.374  14.203  0.0718 -0.0311 -0.0803
14122W        W29591   7.918  18.108   3.627 -0.2022 -0.1146 -0.1233
14123W        W29592   9.188   0.806   3.293  0.0714 -0.2966 -0.0291
14124W        W29593  17.577   8.901  14.318  0.0838  0.1813 -0.0143
14125W        W29594   4.583   7.906   2.670 -0.0594  0.1703 -0.0579
14126W        W29595  15.893   2.383  11.614  0.0945 -0.1051  0.0700
14127W        W29596   6.361  16.523  15.105  0.0922  0.0220  0.0105
14128W        W29597  16.310   3.309   5.508 -0.0535 -0.0396  0.1786
14129W        W29598   5.550  14.193   3.535 -0.0664  0.3719  0.2668
14130W        W29599  13.658   3.902  10.718  0.2147  0.1500 -0.0230
14131W        W29600  18.258  15.283  14.959 -0.2756 -0.0380  0.0570
14132W        W29601   3.974   6.187  11.748  0.1209 -0.0074 -0.0651
14133W        W29602   3.308  17.681  13.082 -0.1739  0.0730 -0.2443
14134W        W29603   0.652   3.843  12.856 -0.0418 -0.0441  0.1075
14135W        W29604   9.459   7.155   2.619  0.3341  0.1477  0.2682
14136W        W29605   9.470  17.479  14.829 -0.1179  0.2397  0.0620
14137W        W29606   2.324   4.409  13.359  0.2251 -0.2300 -0.2552
14138W        W29607  17.189  14.854   0.758  0.0770  0.4148  0.0060
14139W        W29608   1.400   4.695  14.283  0.1803  0.2274 -0.0689
14140W        W29609  12.768  16.205  12.618 -0.1636 -0.4062 -0.0023
14141W        W29610  14.013  13.002   4.545 -0.0056  0.0040  0.0142
14142W        W29611   2.415   3.387   4.674  0.5156  0.2394 -0.3645
14143W        W29612  13.897   5.533   2.372  0.1754  0.0197  0.2285
14144W        W29613  11.965  12.164   2.590 -0.2424  0.1698 -0.0112
14145W        W29614  17.769  10.040   2.210 -0.0391 -0.1383 -0.3022
14146W        W29615  12.986   4.476   3.312 -0.0620  0.0529  0.0426
14147W        W29616   1.749  14.008   1.962 -0.4576 -0.0723  0.0124
14148W        W29617   4.755  11.619   0.242  0.0226  0.2517 -0.0931
14149W        W29618   6.562   9.042   3.372  0.0177  0.0497 -0.3915
14150W        W29619   6.020   0.612  15.066 -0.3158  0.2743  0.1811
14151W        W29620   0.529   5.034  14.150 -0.0373  0.0143 -0.1088
14152W        W29621   5.328   8.167   4.405  0.0555 -0.1937  0.1094
14153W        W29622  12.435  16.074  14.827  0.0375 -0.4059 -0.0349
14154W        W29623   8.909  18.349   0.281 -0.1235 -0.1510 -0.1501
14155W        W29624  17.496   7.925  13.305  0.0809 -0.0408 -0.1039
14156W        W29625   6.508   3.429  11.347 -0.0902 -0.0755 -0.0357
14157W        W29626   9.467  18.352   0.509 -0.1284  0.0596  0.0635
14158W        W29627   9.846   8.271   1.558  0.1369 -0.0755  0.3544
14159W        W29628  16.029   4.744   2.922  0.0452  0.5610  0.0173
14160W        W29629  12.960   1.305  11.070 -0.0845 -0.2494  0.1638
14161W        W29630  15.965  10.729  12.251 -0.1041  0.0428  0.3432
14162W        W29631   6.233  18.124  12.893 -0.2072 -0.1156 -0.0349
14163W        W29632   1.148  15.677   5.477 -0.0549  0.0655 -0.2365
14164W        W29633   2.086  12.765  15.058  0.2110  0.0212 -0.0507
14165W        W29634   2.604   6.641   2.387 -0.1505 -0.3854  0.2242
14166W        W29635   2.222  14.149   5.041 -0.1160  0.0283  0.0277
14167W        W29636   4.507   1.341  11.691 -0.1562  0.1699  0.2290
14168W        W29637  16.635  18.668   3.008  0.2164  0.1241  0.0635
14169W        W29638   5.197   0.252   0.575 -0.0351 -0.0131 -0.2363
14170W        W29639  18.280   6.440   2.987  0.3615 -0.0924 -0.3646
14171W        W29640   8.222  13.846  14.225  0.0026 -0.0419  0.0270
14172W        W29641  10.089   7.781  13.263 -0.0324 -0.0617  0.0072
14173W        W29642  18.517   8.255  13.461 -0.0413  0.0185 -0.1405
14174W        W29643  15.120  16.760  11.456 -0.3046 -0.0057 -0.0958
14175W        W29644  10.924   5.759  12.652 -0.2250 -0.0895 -0.0369
14176W        W29645  16.465   4.010  11.936 -0.1190 -0.0875 -0.2217
14177W        W29646  13.786   5.561   4.648 -0.1454  0.3342 -0.1661
14178W        W29647   6.964   9.818  11.031  0.1761 -0.1398  0.0747
14179W        W29648   0.969  16.246   2.705 -0.1561 -0.1064  0.0589
14180W        W29649   2.766   9.934  12.149 -0.2287  0.0155  0.2538
14181W        W29650   8.731  11.880  12.837 -0.1725 -0.1141  0.2250
14182W        W29651  16.287  13.244  10.798  0.0419 -0.0813  0.0295
14183W        W29652  11.729   4.875   1.062  0.0691 -0.2179 -0.1034
14184W        W29653  12.233   9.363   1.416  0.0432 -0.2012  0.3253
14185W        W29654   2.541  11.670  13.103  0.3815  0.0065  0.2253
14186W        W29655  12.915  17.093   0.307 -0.0539 -0.1385 -0.0657
14187W        W29656  17.430   8.861   5.608 -0.0334 -0.3124 -0.1034
14188W        W29657  10.040   6.032   0.944 -0.1018 -0.3665  0.0983
14189W        W29658   8.655  16.983  11.912  0.3263  0.2154 -0.0856
14190W        W29659   4.935   8.827   1.974 -0.0650  0.1715  0.0304
14191W        W29660  13.550   2.824   2.412  0.1403 -0.2404 -0.0862
14192W        W29661   7.116  14.996   4.157  0.0997  0.2713 -0.3459
14193W        W29662  16.976   4.929  12.871 -0.1391  0.1154  0.1078
14194W        W29663   1.909   0.030   3.944  0.1775  0.0187 -0.0913
14195W        W29664  13.417  10.782  10.633 -0.1817  0.1523  0.4833
14196W        W29665   8.132  14.677   5.142 -0.2261  0.0450 -0.0596
14197W        W29666   1.454   9.275   2.785  0.0998 -0.4544  0.1315
14198W        W29667  16.426  12.100   2.337 -0.1312 -0.1845 -0.0680
14199W        W29668   2.340   9.438  11.690 -0.2194 -0.0911 -0.1676
14200W        W29669  12.020   6.718   0.667  0.1322  0.1838 -0.1184
14201W        W29670   5.892   2.090  11.791 -0.3145 -0.2720 -0.1879
14202W        W29671   7.969  17.556   5.816 -0.1144 -0.0925  0.0797
14203W        W29672   8.502   0.880   3.505 -0.0629 -0.0213  0.1270
14204W        W29673  13.907  17.585   2.966  0.1413 -0.0226 -0.2663
14205W        W29674  10.703  17.208   2.380 -0.3663 -0.0501 -0.1519
14206W        W29675   0.175   4.703   4.153 -0.1854 -0.1851  0.4675
14207W        W29676  14.039   8.742  14.098 -0.4929  0.2004  0.1142
14208W        W29677  12.208  16.841   0.803  0.0636 -0.3261 -0.0552
14209W        W29678   0.479  14.929  14.087  0.1213  0.1058 -0.0357
14210W        W29679   0.086  18.576   5.965  0.1666  0.0580  0.2268
14211W        W29680  15.878   4.989  11.169  0.0268 -0.1125  0.1629
14212W        W29681   4.344   9.711  10.208 -0.1235  0.4391 -0.3100
14213W        W29682   9.751   5.252  11.734  0.1221 -0.0952 -0.2035
14214W        W29683  18.928   4.137  11.754 -0.3652  0.3461 -0.2499
14215W        W29684   3.332   4.981  12.869  0.1572  0.0068  0.3840
14216W        W29685  10.644  16.536   3.198 -0.0511  0.2777 -0.3162
14217W        W29686  14.312  18.613   5.253  0.3026  0.0008 -0.0377
14218W        W29687   6.458   7.003  11.558  0.1790 -0.3082 -0.1478
14219W        W29688   5.575   6.913   4.599 -0.2640 -0.0938  0.0504
14220W        W29689  10.564  13.231   3.655  0.1219  0.0526 -0.0535
14221W        W29690   1.976   7.185   3.041  0.3345 -0.2036 -0.0143
14222W        W29691   6.744  13.957   2.734 -0.1463  0.1772 -0.0931
14223W        W29692   1.625  17.739   0.413 -0.2086 -0.4913  0.0057
14224W        W29693  10.608  12.095   0.048  0.2010 -0.1566  0.0322
14225W        W29694  13.820   7.958  15.102 -0.1024 -0.1491  0.0147
14226W        W29695   1.451   1.734   3.669 -0.3087 -0.0551  0.5228
14227W        W29696  16.861   3.181   2.789  0.2873  0.1916  0.0039
14228W        W29697  10.892   3.150   4.258 -0.0089  0.0811  0.1648
14229W        W29698  17.845  14.692   0.428 -0.0588  0.2470 -0.0250
14230W        W29699  16.124   4.548  13.884 -0.0183  0.1879  0.0697
14231W        W29700   0.653  10.181  11.862  0.2445  0.0380 -0.1231
14232W        W29701  14.034  16.389   2.348 -0.1155 -0.1681 -0.1824
14233W        W29702  12.299  11.542  13.251 -0.1697 -0.1077 -0.2802
14234W        W29703   0.713   4.603   1.306 -0.0248 -0.4260 -0.2530
14235W        W29704   3.756  18.591   0.782  0.2919 -0.0523 -0.0168
14236W        W29705   9.457   4.221  12.191 -0.2190 -0.0992  0.0501
14237W        W29706   3.664   4.484   4.552  0.1271  0.1750 -0.2165
14238W        W29707  16.657  18.425   4.439  0.1802  0.2130  0.1237
14239W        W29708  14.817   2.698  12.885 -0.2148 -0.0510 -0.1263
14240W        W29709   4.435   8.414  13.958 -0.0922  0.0984 -0.0071
14241W        W29710   9.923  16.684  11.933 -0.5315 -0.2078  0.1528
14242W        W29711   8.809  11.257  12.094 -0.0755 -0.2722  0.4878
14243W        W29712  17.948   0.647  13.234 -0.1797  0.2301  0.0081
14244W        W29713   4.829   2.438   3.258  0.0314  0.1297  0.1623
14245W        W29714   7.142   4.503   4.278 -0.0403 -0.0447  0.4202
14246W        W29715   8.687  12.397  11.174  0.1564 -0.0525 -0.2224
14247W        W29716  12.670  11.204   1.305 -0.0742  0.2157  0.1404
14248W        W29717   0.803  11.119  11.458  0.1745 -0.0174 -0.3398
14249W        W29718  16.241   5.410   0.508  0.0572  0.1360  0.0760
14250W        W29719  13.563   1.248   4.572 -0.1487  0.0829  0.0854
14251W        W29720   6.285   5.888   5.331  0.0536  0.1861  0.1407
14252W        W29721  12.871  18.068  11.726  0.3125  0.0297 -0.2144
14253W        W29722  14.807   7.683  10.011 -0.3495  0.1167 -0.0902
14254W        W29723   4.155   4.528  14.540 -0.3879 -0.4945 -0.0921
14255W        W29724  13.981  12.428  12.979  0.0922  0.2831  0.1148
14256W        W29725  15.414   9.408   3.693  0.1425  0.1240 -0.0848
14257W        W29726   2.914  12.990  13.327  0.0560  0.2860  0.2808
14258W        W29727  13.590   8.941   1.789 -0.1354 -0.0353  0.1377
14259W        W29728   7.140  10.553  14.293  0.1234 -0.3174 -0.0888
14260W        W29729  10.232  16.182   1.185 -0.1756 -0.3296 -0.0745
14261W        W29730   5.859   9.561  12.186 -0.0445  0.0285  0.2649
14262W        W29731   3.138  18.892  11.136  0.0699  0.1862  0.3543
14263W        W29732  15.774  14.592   0.776 -0.0029 -0.0731  0.0118
14264W        W29733   0.841   7.321   1.654 -0.1209  0.1656 -0.1053
14265W        W29734   4.341  11.887  13.463  0.0083  0.0345 -0.0848
14266W        W29735   1.408   9.702  12.825  0.0750 -0.1468 -0.0518
14267W        W29736   5.451  17.214  10.564 -0.2422 -0.0574  0.1106
14268W        W29737   0.322   8.487   0.334 -0.1196  0.0708  0.2279
14269W        W29738   6.796   3.871   1.366 -0.0493 -0.1786 -0.0504
14270W        W29739   9.411   4.493  12.637  0.1454  0.1010 -0.3287
14271W        W29740   6.482   1.213  11.664 -0.0603  0.0907 -0.1911
14272W        W29741  11.475   4.220   0.730  0.1116 -0.0659  0.2574
14273W        W29742   5.298   2.699  14.978 -0.1265 -0.0508  0.1387
14274W        W29743   8.776  10.766  15.316 -0.0525 -0.2724  0.1747
14275W        W29744   2.635   1.616   3.511  0.0152 -0.0674 -0.0099
14276W        W29745  10.761  14.592  15.167  0.1177 -0.4781  0.4780
14277W        W29746   9.534  12.207  14.391 -0.2536  0.0095  0.1272
14278W        W29747   2.538  15.189  13.309  0.0202 -0.5024 -0.2223
14279W        W29748  12.833   1.416   0.306 -0.3186 -0.0586 -0.1025
14280W        W29749  17.149   9.098   4.490 -0.3008  0.1631 -0.2419
14281W        W29750   3.262   8.956   1.188 -0.1060 -0.4517  0.1721
14282W        W29751  18.507  18.567   1.054  0.1163 -0.0823  0.1618
14283W        W29752  17.284   5.473  13.607 -0.0906 -0.0515  0.1048
14284W        W29753  15.520  17.137  13.042 -0.3097 -0.0853  0.1936
14285W        W29754   2.701  18.475  11.908 -0.0184 -0.1903  0.2243
14286W        W29755   0.377   1.037  14.333 -0.1480 -0.1405 -0.3914
14287W        W29756   6.479  15.633  11.892 -0.1563  0.1010 -0.1742
14288W        W29757  10.759   0.446  14.569  0.2452 -0.1171 -0.2380
14289W        W29758  15.311   1.265   3.869  0.1870 -0.3180 -0.0692
14290W        W29759   9.586  14.805   1.634  0.1412 -0.0486  0.1004
14291W        W29760  15.583  10.634  10.785 -0.1056  0.0394 -0.2127
14292W        W29761   2.665   8.291   3.295  0.0777 -0.0057 -0.0202
14293W        W29762  13.635   4.168   0.516  0.2266  0.2337 -0.4541
14294W        W29763   9.233  13.640   2.572  0.2218  0.1090 -0.0613
14295W        W29764   4.110  14.159   1.001  0.1062 -0.1473 -0.2483
14296W        W29765  18.822  10.930   2.590 -0.3968 -0.0790 -0.0252
14297W        W29766   8.845  16.367  10.441 -0.2461 -0.3543  0.2110
14298W        W29767   5.169  13.664   0.279  0.0514 -0.1028 -0.0877
14299W        W29768  13.759   0.777   4.123  0.0905  0.2604  0.1885
14300W        W29769   8.503   6.835  12.371  0.0216  0.0420  0.1831
14301W        W29770   8.189  17.386   0.640 -0.0844 -0.0520 -0.0568
14302W        W29771   6.197  10.627   2.738  0.0190  0.2603 -0.2169
14303W        W29772  14.904  18.285   0.006  0.0274  0.2130 -0.0783
14304W        W29773   2.636  14.807  12.300  0.0911 -0.1512  0.0654
14305W        W29774   2.583   6.966  15.445  0.0761  0.0228 -0.0810
14306W        W29775   9.874   4.449   0.344 -0.3451  0.1485  0.1581
14307W        W29776  17.127  17.657   1.343 -0.1211 -0.4815 -0.0456
14308W        W29777  16.957   4.304  14.602 -0.1287 -0.0746  0.3525
14309W        W29778  17.928   8.536   0.215 -0.0289 -0.1699  0.0534
14310W        W29779   5.752  11.570   1.321  0.1996  0.0257  0.4323
14311W        W29780  10.508   9.192   0.084  0.4724 -0.1259  0.1956
14312W        W29781  17.079   4.311  11.266 -0.1831  0.0125 -0.0101
14313W        W29782   9.986   9.513   3.572 -0.1603 -0.0828  0.1217
14314W        W29783  11.235  13.667  15.033 -0.2685 -0.0208  0.1828
14315W        W29784  17.540   5.840  15.500 -0.0321  0.0121  0.1519
14316W        W29785  18.072  12.127   3.612  0.0272 -0.0977 -0.1425
14317W        W29786  17.073   1.734  12.655  0.1494 -0.2398  0.1203
14318W        W29787  16.134   2.172   2.056 -0.3178 -0.2076 -0.0412
14319W        W29788   4.621  17.489   0.099  0.1446 -0.1548 -0.0803
14320W        W29789   3.928  11.412   2.632  0.2016  0.2259 -0.1688
14321W        W29790   5.340  16.340  13.382 -0.1140  0.0290 -0.0900
14322W        W29791  17.594   9.455   3.111  0.4787 -0.1052  0.1429
14323W        W29792  15.440   2.682   4.104  0.1940  0.3695  0.1641
14324W        W29793   1.629   0.943  14.088 -0.0323  0.0735 -0.1241
14325W        W29794  18.880   4.392   2.723  0.1423 -0.1605 -0.0898
14326W        W29795   7.148   4.048   1.720  0.3097  0.0917  0.2974
14327W        W29796  10.988  16.986   0.915 -0.1453 -0.3002  0.1563
14328W        W29797   1.858  17.371   3.885 -0.3186  0.1762 -0.2066
14329W        W29798  16.109  11.036   3.635 -0.1446 -0.0189 -0.0611
14330W        W29799  11.475  17.413  13.789  0.0980 -0.2278  0.1097
14331W        W29800  15.916  14.101   0.160 -0.1090 -0.0063 -0.1561
14332W        W29801  14.115  12.969   0.656  0.1356 -0.2413 -0.1421
14333W        W29802  17.521   1.468   2.562  0.3086  0.0455  0.0699
14334W        W29803   7.851  13.112  11.007 -0.2309  0.2055  0.0974
14335W        W29804  12.069   3.037  13.215 -0.0467 -0.0598 -0.1925
14336W        W29805   5.826   5.667  15.035 -0.0633  0.2406  0.1573
14337W        W29806  18.602   1.633  11.203 -0.3176 -0.1762  0.0705
14338W        W29807  12.766   1.271  13.181  0.2225 -0.3820 -0.0143
14339W        W29808  17.009   1.041   1.976  0.1368  0.3619 -0.4535
14340W        W29809  17.508  10.843   1.298 -0.1206  0.1070  0.0372
14341W        W29810  14.930  11.454   3.071  0.2088 -0.0741  0.0663
14342W        W29811  17.016  16.475   0.715  0.2474  0.0725 -0.0721
14343W        W29812  18.008   8.187   3.825  0.1747 -0.1995 -0.0571
14344W        W29813  17.724   1.228   5.124  0.2976 -0.1921  0.1992
14345W        W29814   7.883  10.363   4.808 -0.1287 -0.0603  0.1014
14346W        W29815  15.299   4.253  11.256  0.0642 -0.1084  0.2483
14347W        W29816   7.356  11.900  11.277 -0.1878 -0.0441 -0.5162
14348W        W29817   2.377   3.519  11.186  0.1097 -0.0182  0.0516
14349W        W29818  13.117   7.190   5.418  0.1137  0.1069  0.3109
14350W        W29819   9.624  11.405   1.087 -0.2740  0.0948 -0.0779
14351W        W29820  10.988   5.996  13.127  0.2095 -0.0995  0.2994
14352W        W29821   9.391  14.241   1.692 -0.0028 -0.4016  0.4408
14353W        W29822   0.903  16.500   1.719  0.1920 -0.1524  0.0348
14354W        W29823   6.732  14.388   3.897  0.1125  0.5852  0.0091
14355W        W29824  11.552   5.435   2.940  0.1360  0.0142 -0.3040
14356W        W29825  11.277  14.275  13.613  0.4339  0.0740 -0.3624
14357W        W29826  12.996   3.345   4.136  0.0560  0.0277  0.2408
14358W        W29827  14.520   3.963   1.519  0.2332 -0.0589  0.2879
14359W        W29828  16.979  13.948  14.189 -0.1170 -0.2326 -0.1774
14360W        W29829  16.837   2.698   4.391  0.1943 -0.0769 -0.1566
14361W        W29830   7.401  16.062   1.504 -0.0591  0.4791  0.3149
14362W        W29831   0.830  13.049   1.889 -0.0295  0.1323 -0.1997
14363W        W29832  10.646   6.480  13.820 -0.0220 -0.2103 -0.0476
14364W        W29833   1.935   8.992  13.173 -0.3042  0.0662 -0.3479
14365W        W29834  13.770   1.417  14.575 -0.2262  0.3084 -0.1167
14366W        W29835  15.381   4.016  14.489 -0.0005  0.5562 -0.1392
14367W        W29836   1.613  13.997  12.557  0.0319  0.1616 -0.0541
14368W        W29837   8.998  14.804   0.972 -0.1362  0.0652  0.1738
14369W        W29838   9.160  14.342  11.263  0.2016 -0.3953  0.1217
14370W        W29839  11.723   3.598  14.526  0.0425 -0.1350  0.0713
14371W        W29840   6.602   5.717  15.056  0.0537  0.1092 -0.1769
14372W        W29841   2.389   7.474   3.215  0.3648 -0.1717 -0.1766
14373W        W29842  18.041   4.630  13.229  0.1958 -0.0043 -0.3195
14374W        W29843   3.021  16.174   4.419  0.0687 -0.1630 -0.0604
14375W        W29844   5.402  16.594  14.288 -0.0387  0.0294  0.0778
14376W        W29845   2.204  18.331  11.916 -0.4815 -0.2722 -0.0269
14377W        W29846   6.758   6.801  11.163  0.2715  0.2228 -0.1882
14378W        W29847   9.208   6.534   3.557 -0.2118 -0.1573 -0.0123
14379W        W29848   9.700   3.592  14.721  0.0527  0.3078  0.2678
14380W        W29849   1.585  18.289   2.105  0.0617 -0.0983 -0.1661
14381W        W29850   5.163   0.874   4.311 -0.0223  0.0623 -0.0455
14382W        W29851   8.182   5.370   0.511  0.1577  0.1216  0.0320
14383W        W29852   0.671  15.393  12.561 -0.2334  0.0638  0.0169
14384W        W29853   9.673  10.172   3.062  0.0659 -0.1478 -0.2699
14385W        W29854  17.422  17.536  10.986 -0.1800  0.1839  0.0073
14386W        W29855   5.596  16.699   3.690  0.6491  0.0510 -0.0900
14387W        W29856   3.092  12.033   3.178  0.0638 -0.4762  0.2232
14388W        W29857   3.960  14.731   9.979  0.4927  0.1644  0.2028
14389W        W29858  17.337  11.690   2.680  0.0148 -0.0496 -0.3865
14390W        W29859   1.997  14.703  12.160  0.1397 -0.0642  0.2748
14391W        W29860  16.771  12.482  15.424 -0.1600  0.1989 -0.0375
14392W        W29861  11.757  16.912   1.943 -0.1741 -0.0257 -0.1127
14393W        W29862   5.604   5.719  11.796  0.4344  0.0662 -0.2209
14394W        W29863  14.186   5.160  13.848  0.1793 -0.0670  0.2627
14395W        W29864   5.650   8.468   3.416 -0.1321 -0.2048 -0.2521
14396W        W29865  17.954   2.378   2.358  0.3533 -0.0739  0.2479
14397W        W29866   0.921   9.602  11.360  0.1534 -0.1233  0.3949
14398W        W29867  12.915   5.701  12.492  0.4290 -0.0035  0.0122
14399W        W29868  12.130  11.831  15.372  0.1886 -0.1206 -0.1331
14400W        W29869  12.133  18.513   2.323 -0.0281 -0.2174  0.1433
14401W        W29870  15.568   9.033  11.816  0.0271 -0.0379 -0.5880
14402W        W29871   1.077   8.874  11.889  0.0462 -0.0502  0.2412
14403W        W29872   2.719   2.390   0.031  0.0244  0.3163  0.0527
14404W        W29873  17.359  14.756  14.809 -0.0461 -0.0672  0.0787
14405W        W29874   5.976  17.078   3.108  0.0694 -0.0576  0.1865
14406W        W29875  12.628   4.341  13.003  0.1805  0.2125 -0.2991
14407W        W29876  10.229  15.902  11.973 -0.2674 -0.0676 -0.0056
14408W        W29877  11.626  15.042   4.561 -0.0274  0.3234 -0.1594
14409W        W29878  18.183  18.719   0.200  0.1625 -0.1249  0.2158
14410W        W29879  10.043   4.977  12.975 -0.2290 -0.1071 -0.0425
14411W        W29880   6.868  11.230   4.377 -0.1190  0.1084 -0.5928
14412W        W29881  17.433  12.579   4.849  0.2409 -0.0812  0.1363
14413W        W29882  14.097   4.150  13.108  0.1153 -0.0255 -0.2440
14414W        W29883   7.853   6.799   1.556  0.1457  0.4203 -0.0125
14415W        W29884   2.643   9.232   4.156 -0.2354  0.0427 -0.0686
14416W        W29885   2.554   7.874   5.492 -0.0586  0.4487 -0.0419
14417W        W29886  16.534   9.821  15.448  0.0028  0.3155 -0.2905
14418W        W29887   5.526   2.495   3.828 -0.1306 -0.4019  0.2227
14419W        W29888   9.127  11.727  10.655 -0.2524  0.3146  0.1674
14420W        W29889   8.524  11.136  10.903 -0.3419  0.0484 -0.1487
14421W        W29890  15.369   8.632   4.189  0.2858  0.1097  0.0798
14422W        W29891   4.189   6.534  15.156 -0.3151 -0.1785  0.2531
14423W        W29892  12.203   9.517  10.741 -0.0671  0.0309  0.0015
14424W        W29893  10.451   2.511   3.375  0.1330 -0.0400  0.2223
14425W        W29894   3.518   2.336   5.531  0.0847  0.2291  0.3451
14426W        W29895   8.642  12.470  13.428  0.1108 -0.2681  0.0585
14427W        W29896   3.034   4.013  12.014  0.1593  0.0382  0.1880
14428W        W29897   9.149  15.694  11.387 -0.3306 -0.3055 -0.0363
14429W        W29898   8.790  14.890  15.312 -0.2538 -0.3967  0.0213
14430W        W29899  12.024  15.072   3.945  0.0649  0.5002  0.3128
14431W        W29900  10.728  11.148   1.194 -0.1766  0.2009  0.0399
14432W        W29901  17.544  11.980  14.317  0.1704  0.0228 -0.0606
14433W        W29902  18.670   3.113  15.291 -0.0008  0.0355  0.1306
14434W        W29903   8.706  13.947   5.058 -0.1611  0.3544  0.4381
14435W        W29904  12.150   7.603   2.154  0.3644 -0.0425  0.2861
14436W        W29905   5.698   9.801  13.798 -0.0027  0.1178 -0.3088
14437W        W29906   7.639   7.327   0.096  0.1472  0.1197 -0.1006
14438W        W29907   1.180  13.836  12.780 -0.0887 -0.1058 -0.2006
14439W        W29908   8.525   9.111  15.174  0.1351 -0.1889 -0.1044
14440W        W29909  14.239  13.578  15.133 -0.0571  0.1064  0.3005
14441W        W29910  13.504  11.550   1.733 -0.0096 -0.1073  0.3479
14442W        W29911   5.479   3.647   2.437 -0.1045  0.1228 -0.1000
14443W        W29912   8.293   8.053   2.213 -0.3419 -0.1453 -0.1138
14444W        W29913  13.998  17.912   0.370 -0.3166  0.2240  0.0060
14445W        W29914  12.093   1.745  11.537 -0.1545  0.2592 -0.3129
14446W        W29915   4.651  15.747   5.535  0.2816 -0.2528  0.3158
14447W        W29916  14.089  14.868   1.597 -0.1085  0.0436  0.1273
14448W        W29917  10.987  10.670  14.408 -0.1605  0.0349  0.2794
14449W        W29918  12.979  16.844  13.964  0.0738  0.2432  0.2254
14450W        W29919  12.685   1.899  15.473  0.1414  0.1255 -0.2564
14451W        W29920   9.741   0.916   3.561 -0.0392 -0.2743 -0.0607
14452W        W29921   7.945  17.201   3.689 -0.0234  0.1320 -0.3314
14453W        W29922   0.185  17.023   3.828  0.1630 -0.0359 -0.1477
14454W        W29923   1.556   0.669   4.170  0.1936  0.0185 -0.1326
14455W        W29924   6.197  10.774  12.638  0.0735  0.0513  0.1437
14456W        W29925   7.052  10.943  15.434  0.3490  0.0428  0.1967
14457W        W29926   1.089   3.188   3.420 -0.0592 -0.0442  0.0993
14458W        W29927  11.546  15.298   1.346 -0.0607  0.1412 -0.2090
14459W        W29928  16.271  16.269   4.921  0.1570  0.1358  0.1602
14460W        W29929  16.459  15.294   3.628  0.0493 -0.2331 -0.0075
14461W        W29930   8.969   1.713  13.823 -0.0365  0.0925 -0.0511
14462W        W29931  14.562  14.400  10.743  0.1691 -0.0191 -0.1493
14463W        W29932  16.523  11.897   4.405  0.2700  0.3424 -0.2111
14464W        W29933   8.388   8.172  12.565 -0.1948  0.1906  0.1861
14465W        W29934  17.398   1.214  11.968 -0.0576 -0.2948 -0.1760
14466W        W29935  13.598   4.416  11.002  0.0300  0.0351  0.0217
14467W        W29936   0.648   0.884   4.241  0.0327 -0.4039  0.1344
14468W        W29937  16.960   5.485  12.723 -0.1100 -0.1496 -0.0473
14469W        W29938   6.077   9.908  10.861  0.1967 -0.1054  0.3996
14470W        W29939   6.584   4.281   3.104  0.0179  0.1458 -0.0908
14471W        W29940  14.486   6.732  10.761 -0.1926  0.3635  0.0550
14472W        W29941  12.296   0.332   1.636  0.2627 -0.1111  0.2389
14473W        W29942   1.951  11.716   5.718 -0.0839  0.1288 -0.1249
14474W        W29943   0.320  13.623  12.690  0.1776  0.1843  0.1335
14475W        W29944   3.160   2.421   3.834 -0.0560  0.2229  0.2633
14476W        W29945   1.449  11.761   5.804 -0.1159 -0.3143 -0.1301
14477W        W29946   7.025   0.037   4.179 -0.1016  0.1467 -0.2445
14478W        W29947  16.669  12.780  12.375 -0.1800 -0.2706  0.1717
14479W        W29948  15.542  18.212   1.268 -0.1100 -0.0910  0.0669
14480W        W29949   4.068  16.214  14.666 -0.0017  0.0640 -0.3235
14481W        W29950  16.063  13.787   0.737 -0.2813  0.0643  0.1224
14482W        W29951   9.125  14.408  15.438  0.4959  0.0527  0.0516
14483W        W29952  13.029   3.084   1.900 -0.1947  0.0297  0.0100
14484W        W29953  14.726   1.658   1.200 -0.0684 -0.4359 -0.1685
14485W        W29954  13.033   3.504  11.247 -0.2225  0.1494  0.1647
14486W        W29955   6.403   2.205  13.096 -0.2990 -0.3431 -0.0279
14487W        W29956   5.251   7.748   3.633 -0.0979 -0.0899  0.0710
14488W        W29957   5.919   0.455  11.793 -0.5406  0.3072  0.3257
14489W        W29958   2.426   2.507  10.181  0.3873 -0.0783 -0.1299
14490W        W29959   4.766  18.833  12.367 -0.3183 -0.1016 -0.2898
14491W        W29960   8.083   4.521  11.174  0.1446  0.0322  0.3338
14492W        W29961  12.157   0.599  12.055 -0.3502 -0.3473 -0.0552
14493W        W29962   1.350  15.546  13.927  0.0773 -0.1888  0.0593
14494W        W29963   6.071  16.081   3.287  0.0430 -0.1663  0.0239
14495W        W29964   1.385  17.025   0.863  0.0023  0.3927 -0.0274
14496W        W29965  11.116   1.684  13.817  0.2003  0.1200 -0.1642
14497W        W29966   9.542  16.414   0.178 -0.1653  0.1382  0.2233
14498W        W29967   6.322  10.449  11.098 -0.0114 -0.3699  0.1766
14499W        W29968   4.157  14.854  10.865  0.2160  0.1872 -0.1990
14500W        W29969  15.823   3.389  13.483 -0.3380  0.2903  0.1131
14501W        W29970   5.842  15.298   0.819 -0.1717  0.1839 -0.1116
14502W        W29971   2.295   4.663   2.919 -0.3103 -0.2163  0.2344
14503W        W29972   6.949  14.760   2.239  0.0058  0.2019  0.1838
14504W        W29973  15.172   5.925  11.864 -0.1413  0.0308 -0.2295
14505W        W29974   9.661   6.056  12.996 -0.0074 -0.1006  0.2806
14506W        W29975   9.857  11.558   0.219 -0.1588  0.3631 -0.0063
14507W        W29976   5.857  10.937   0.858 -0.1793 -0.0974  0.0625
14508W        W29977  12.149   5.355  10.806  0.2752 -0.2307 -0.0936
14509W        W29978   3.697   7.783   2.505 -0.1364 -0.3469 -0.1401
14510W        W29979   6.307  15.776  14.375 -0.1758  0.4766  0.0839
14511W        W29980  11.180   7.883  14.323  0.0699 -0.1419 -0.0012
14512W        W29981   3.846   1.859   4.251 -0.0335 -0.2044 -0.0700
14513W        W29982  10.652  12.163  11.176 -0.0622 -0.3268  0.1018
14514W        W29983  16.504   4.808  13.794 -0.1241  0.3084 -0.0336
14515W        W29984  17.553  10.104  12.291 -0.2651  0.2682  0.1567
14516W        W29985   1.529   1.287   5.948 -0.0522  0.0326  0.3743
14517W        W29986   4.943   9.510  10.265  0.1667 -0.1229 -0.2064
14518W        W29987   3.772   8.881  13.804  0.2583  0.1580 -0.2579
14519W        W29988   0.758   3.459  13.412  0.1250 -0.1095  0.0843
14520W        W29989  17.424   4.591  12.169 -0.4726 -0.0702  0.1337
14521W        W29990   1.229   6.190  10.856 -0.0470  0.2921 -0.2358
14522W        W29991   1.992  18.155   3.455 -0.1829  0.0987 -0.1841
14523W        W29992  11.555  15.739   4.116  0.2371  0.1280  0.1961
14524W        W29993   7.327  18.512   0.279  0.0515 -0.0037 -0.2557
14525W        W29994  17.672  14.488   4.405  0.0885 -0.1054  0.0552
14526W        W29995  17.111   9.643   0.608  0.4271 -0.1061 -0.3800
14527W        W29996  15.664   0.660  12.132 -0.0617  0.2069  0.0456
14528W        W29997   5.313   3.403  10.357  0.0315 -0.2510 -0.2195
14529W        W29998   5.183  13.404   2.030  0.2030 -0.0523  0.0508
14530W        W29999  13.443  18.431   3.206 -0.0584 -0.2442  0.3991
14531W        W30000  16.963  10.323   1.378 -0.2136 -0.0398  0.0002
14532W        W30001  11.911  16.699   0.431 -0.1281 -0.0340 -0.0931
14533W        W30002  18.708   6.286  10.933  0.1007  0.1888 -0.0835
14534W        W30003  17.851   5.193   1.300  0.1026 -0.1148 -0.0981
14535W        W30004   2.764  17.741   0.328 -0.2136  0.0755 -0.0726
14536W        W30005   2.414  10.842   0.619  0.0526  0.2104 -0.0644
14537W        W30006  11.200   9.087   3.627  0.0570 -0.0773  0.0201
14538W        W30007   4.059  17.786   0.275  0.0048  0.0503  0.1798
14539W        W30008   1.761  18.450  11.759 -0.0809  0.2335  0.0023
14540W        W30009   5.172  11.459  15.488 -0.0605  0.3062 -0.1418
14541W        W30010  14.573  12.591  14.689  0.2534 -0.0041 -0.2059
14542W        W30011   7.905  15.660  12.328  0.2652  0.0182  0.2426
14543W        W30012   8.946  12.244   2.204  0.0338  0.2923  0.2145
14544W        W30013  10.751  16.080   4.460  0.0779  0.2587  0.0565
14545W        W30014  14.906  15.742  13.069 -0.1956 -0.2287 -0.1627
14546W        W30015  11.792   8.066   2.847 -0.0512  0.1751  0.2123
14547W        W30016   0.062   2.898   3.011 -0.1464  0.0467 -0.1527
14548W        W30017  16.190   4.023  10.812 -0.0581  0.0135  0.0836
14549W        W30018  11.805   1.666   1.716 -0.1121  0.1728 -0.0153
14550W        W30019  12.411   0.721  11.586 -0.0727  0.2074  0.1085
14551W        W30020   5.168   4.552   0.584  0.1430 -0.1058 -0.1833
14552W        W30021  15.871   2.694   4.781 -0.0629  0.0759  0.0207
14553W        W30022   2.125   9.133  12.393  0.0924  0.0597  0.2118
14554W        W30023  15.941  15.996  14.145 -0.1339  0.1321 -0.2622
14555W        W30024  17.994  17.397   0.599 -0.3170 -0.1644  0.0740
14556W        W30025  12.626  11.358  12.983  0.3635  0.1191  0.2906
14557W        W30026  18.404   5.739   4.450  0.0795 -0.0612  0.4741
14558W        W30027  17.237  15.785  14.187 -0.0094 -0.2087 -0.1175
14559W        W30028   3.234  12.331  12.834  0.1703  0.5073  0.0460
14560W        W30029  13.661  15.148   1.810  0.0817  0.0143  0.3455
14561W        W30030   0.265   0.938   1.195  0.1752 -0.0502 -0.3521
14562W        W30031   3.287  18.226   3.010 -0.0473  0.1415 -0.2170
14563W        W30032   2.880   7.509  13.404  0.0913 -0.0987  0.2945
14564W        W30033   6.060   4.017   3.792  0.0686 -0.1679  0.3875
14565W        W30034  11.249  12.826  13.091 -0.0956 -0.0528  0.2889
14566W        W30035  15.399   4.872  12.079  0.2265 -0.3175 -0.2420
14567W        W30036   6.719  13.088   0.218  0.1913  0.1171 -0.2189
14568W        W30037  17.228  14.505  15.334 -0.0140  0.0699  0.0157
14569W        W30038  11.183   2.734   0.812 -0.0954  0.2190 -0.0581
14570W        W30039   3.100  10.387   2.231  0.0265  0.0458 -0.0014
14571W        W30040  17.995   2.933  11.604  0.1176 -0.0157  0.2491
14572W        W30041   6.890  16.796   4.152  0.1248 -0.0094 -0.0819
14573W        W30042   2.729   4.196   3.984 -0.3034 -0.4493  0.1396
14574W        W30043  13.619  17.665  12.413 -0.3826  0.0537 -0.1106
14575W        W30044   6.046   3.605  13.736 -0.1777 -0.0797  0.2557
14576W        W30045  10.032  10.463   1.105  0.2633 -0.1118  0.1745
14577W        W30046   2.249  16.256   0.576  0.2215  0.1154  0.2415
14578W        W30047  13.401   7.649   0.820  0.4445 -0.0407  0.2448
14579W        W30048  17.529   0.831  12.351  0.3023 -0.1662 -0.1168
14580W        W30049  10.000  14.014  15.275  0.0808 -0.0276 -0.3157
14581W        W30050   8.555   4.664  15.354  0.0379  0.1428 -0.0714
14582W        W30051  15.257   0.950  14.363 -0.1367  0.1076 -0.1117
14583W        W30052   8.506   8.840  10.332  0.2255 -0.0252  0.1915
14584W        W30053  10.890   2.269  15.116  0.0087 -0.3900  0.0557
14585W        W30054  15.090   2.839   3.314  0.1395 -0.1155 -0.3348
14586W        W30055   2.293   7.385  14.769  0.0391 -0.3261 -0.3252
14587W        W30056  10.984  15.009  14.054  0.3016  0.0200 -0.1352
14588W        W30057   7.377   7.420   1.446  0.0557  0.1654 -0.0351
14589W        W30058   1.405  14.046   2.589  0.2314  0.1195  0.0734
14590W        W30059  15.668   5.246  12.344 -0.3033  0.1578  0.0312
14591W        W30060  16.117   1.241  10.935  0.0404  0.0226  0.1608
14592W        W30061  17.125  18.317   5.332  0.1235  0.1058 -0.0943
14593W        W30062  18.676   2.813  11.773 -0.0329 -0.2563 -0.1179
14594W        W30063  14.231  17.792  11.273  0.0415 -0.2796  0.1992
14595W        W30064  18.811  16.686   4.562  0.0782 -0.1415  0.0275
14596W        W30065   0.682  11.469   0.902 -0.0668 -0.0512 -0.2363
14597W        W30066  17.001  10.556   3.616  0.2608 -0.2432 -0.1784
14598W        W30067  11.574   3.252  11.580 -0.0617 -0.1125  0.2812
14599W        W30068   2.832   7.192   1.375 -0.1091 -0.3128 -0.2022
14600W        W30069  12.116   6.622   3.659 -0.1792 -0.0191 -0.0424
14601W        W30070   5.294   1.372  13.285  0.4681  0.2235 -0.0392
14602W        W30071   3.396   6.092  14.463 -0.3017  0.0056  0.1307
14603W        W30072  12.601   4.931   2.013  0.1397 -0.0202  0.0684
14604W        W30073  15.134   3.830   1.616 -0.1051 -0.0647 -0.1982
14605W        W30074   7.568   1.971  14.994  0.4414  0.1330  0.0541
14606W        W30075  17.043   5.611  11.000 -0.1917  0.4997  0.1250
14607W        W30076   2.869  11.484   1.275  0.1644 -0.2702 -0.0825
14608W        W30077  14.749   1.920  13.292 -0.0171  0.0091 -0.1410
14609W        W30078  13.900  11.726   2.008  0.2413 -0.1130  0.5292
14610W        W30079  14.232   3.587   0.562  0.0822  0.0449  0.0620
14611W        W30080  14.276  13.185   5.201 -0.0108 -0.0607 -0.1561
14612W        W30081  14.274   5.868  15.255 -0.0299  0.2172 -0.2566
14613W        W30082  16.653  11.003   1.728  0.0909 -0.1230 -0.1596
14614W        W30083   4.213  14.861   2.319 -0.1232  0.1226  0.0498
14615W        W30084  12.615   9.577   1.145 -0.0683 -0.0654 -0.2170
14616W        W30085   1.368   3.616   5.681  0.0131 -0.0234 -0.2830
14617W        W30086   2.270  18.659   0.187  0.0544 -0.1580 -0.0111
14618W        W30087   8.369   5.793   2.477 -0.4484 -0.0726  0.1291
14619W        W30088   0.204  11.199   2.305  0.3537 -0.0236  0.1094
14620W        W30089  17.362   7.770  14.754  0.1702  0.0308  0.0078
14621W        W30090   9.508   2.997   0.634 -0.1682 -0.5012  0.3867
14622W        W30091  17.852   7.064  11.439  0.0243 -0.0464 -0.0120
14623W        W30092  16.405   8.834   4.349 -0.0857  0.4107 -0.1004
14624W        W30093  18.761  11.615   3.997  0.1683  0.2337 -0.1223
14625W        W30094   0.304  16.688   4.198 -0.0559  0.1430 -0.0251
14626W        W30095   0.216  17.554  14.582 -0.4884  0.5082  0.0814
14627W        W30096  18.316   0.417  10.608  0.0967 -0.0779 -0.1447
14628W        W30097   8.350  16.454  13.638 -0.0989 -0.0601 -0.4979
14629W        W30098   6.314  17.814   2.746  0.1336  0.1645 -0.3353
14630W        W30099   7.679   3.902   1.842 -0.1528  0.1834 -0.0321
14631W        W30100  16.672  14.707  11.928  0.2303 -0.2306  0.1979
14632W        W30101   5.913  15.439  10.627  0.0196 -0.0262  0.3121
14633W        W30102  14.500  17.409  12.659  0.6998 -0.1901 -0.0158
14634W        W30103   8.291  12.041  13.013  0.1385  0.3121  0.1807
14635W        W30104   0.450   7.107  11.802 -0.1430  0.2430 -0.0142
14636W        W30105  13.788   9.160  11.279 -0.2824  0.0153 -0.0709
14637W        W30106  14.621  12.517   2.546 -0.0391  0.2865  0.2716
14638W        W30107   7.284  16.679  14.012 -0.1307  0.1609 -0.1157
14639W        W30108  15.834   9.160  13.920  0.1741 -0.1586 -0.2374
14640W        W30109  12.040  14.189   3.331 -0.2827 -0.1138  0.1908
14641W        W30110   6.982  16.595  10.666  0.1942 -0.3959  0.2139
14642W        W30111  15.054   3.157  12.200  0.1079  0.2699  0.1551
14643W        W30112  17.078   0.910  13.701 -0.1539 -0.0298 -0.0791
14644W        W30113  13.403  14.169  12.463 -0.2826 -0.1462  0.1227
14645W        W30114  10.948   7.384   4.105  0.2896  0.2149 -0.0314
14646W        W30115  12.616   0.604  11.106 -0.1229 -0.1768  0.1065
14647W        W30116   0.313   6.487   3.611 -0.2367 -0.2024  0.3141
14648W        W30117   3.975  11.998   4.601 -0.0480 -0.1231 -0.2423
14649W        W30118  17.067  18.894  14.300 -0.3379 -0.0085 -0.0169
14650W        W30119   5.828   3.552  13.273 -0.3275 -0.1202  0.1887
14651W        W30120  10.175   8.624  10.689 -0.3132  0.1731 -0.4736
14652W        W30121   9.162   4.816  13.313 -0.0230  0.1994 -0.0199
14653W        W30122   1.023  12.325  11.481  0.0542  0.3936  0.5390
14654W        W30123   6.504   8.829  10.228 -0.2636  0.2463 -0.0670
14655W        W30124   6.749  14.872   3.192 -0.2717  0.0870  0.1247
14656W        W30125   7.269   3.446   5.855  0.3072 -0.0102  0.1603
14657W        W30126  14.943   1.851   0.753 -0.1232 -0.0306  0.1779
14658W        W30127   1.708  16.406  12.169  0.3367 -0.2305 -0.1231
14659W        W30128  15.797   8.912  13.408  0.2731 -0.0449 -0.0613
14660W        W30129  10.700   8.429   1.216 -0.2039  0.3556 -0.4632
14661W        W30130   4.162   9.101   0.851 -0.0931 -0.0698 -0.2785
14662W        W30131  16.162   2.599   0.586  0.0418 -0.0422 -0.1096
14663W        W30132  11.194  11.796   5.405 -0.2344  0.0317 -0.0409
14664W        W30133   7.947   5.571   3.327 -0.2053 -0.0407  0.4089
14665W        W30134  10.618  17.095   0.022  0.0484 -0.1097 -0.1284
14666W        W30135   6.116  16.707   2.806  0.3839 -0.2988 -0.1716
14667W        W30136   4.073  11.687  13.913 -0.2201 -0.5547 -0.2441
14668W        W30137   4.760   0.954  14.976  0.2312  0.0009 -0.2911
14669W        W30138  14.342   1.281  11.154 -0.1548  0.1613  0.2161
14670W        W30139   1.312  14.350  12.776 -0.0179 -0.0324  0.0811
14671W        W30140  13.153  12.852   1.209  0.0985 -0.2029  0.4636
14672W        W30141   8.444   5.527   3.478 -0.2020 -0.1211 -0.1896
14673W        W30142   9.557  12.745   1.570  0.0574 -0.1811  0.2400
14674W        W30143   9.873  11.225  10.612 -0.1690 -0.4910  0.2567
14675W        W30144  14.063  14.103  13.738  0.0628  0.0815  0.1751
14676W        W30145  13.259   7.762   2.758 -0.0723 -0.3674  0.1986
14677W        W30146  10.908   5.508   3.471 -0.1315  0.1722  0.5230
14678W        W30147   9.700   4.218  14.471  0.1162 -0.1032 -0.0834
14679W        W30148   3.696   2.939  11.100 -0.0278 -0.1451  0.2441
14680W        W30149  11.512   6.037  13.380 -0.1920 -0.1886 -0.1466
14681W        W30150  12.803  16.188   3.386  0.1957  0.1027 -0.1857
14682W        W30151  13.170   8.285   3.014  0.2138  0.1232 -0.3151
14683W        W30152   7.683  16.773   5.414  0.1896 -0.2021  0.1404
14684W        W30153   9.801   9.090   4.481 -0.1642 -0.0638  0.1387
14685W        W30154  14.494   2.404   5.076 -0.0981  0.2350  0.0026
14686W        W30155  11.107  12.082  10.559 -0.0905  0.0329  0.2332
14687W        W30156  14.325   4.304  10.566  0.0542  0.0537  0.1089
14688W        W30157   9.970   8.306  13.336 -0.5028 -0.3218 -0.1089
14689W        W30158  18.666  14.769  14.428 -0.1134 -0.0869  0.0663
14690W        W30159   0.190   2.910  12.024  0.0508  0.0882  0.0197
14691W        W30160   2.043   9.705  12.554  0.0117  0.1324 -0.2734
14692W        W30161  13.367   0.064   4.576 -0.2421 -0.2292  0.4325
14693W        W30162   8.690   8.103   0.548  0.3430  0.0100  0.1511
14694W        W30163  11.446  10.892  13.409  0.2555 -0.1140 -0.1018
14695W        W30164   5.572   4.432   4.569 -0.1280  0.2702 -0.1833
14696W        W30165  11.938   3.820   2.937  0.1753 -0.1414 -0.1731
14697W        W30166   9.697  17.409  13.465  0.0141 -0.0395 -0.0725
14698W        W30167  18.137   0.764   2.278 -0.1360 -0.0245  0.0268
14699W        W30168   7.353   3.031  11.750  0.0936 -0.0581  0.0768
14700W        W30169  18.611   1.182   1.715  0.0873 -0.0730  0.2228
14701W        W30170   1.021   0.200  13.150 -0.1722 -0.0873  0.1795
14702W        W30171   6.362  16.488   3.201 -0.0041  0.0216  0.0103
14703W        W30172   4.349  15.164   2.790 -0.2502 -0.0677 -0.0050
14704W        W30173   2.324   6.793   1.593  0.0349  0.0747  0.0448
14705W        W30174  12.327   0.617   4.434 -0.0378  0.0379 -0.3041
14706W        W30175   5.086  12.466  15.237  0.0938  0.1464  0.1693
14707W        W30176   4.624   9.228  13.515  0.2523  0.0243  0.3135
14708W        W30177   8.860  11.572   3.628  0.1072 -0.1362  0.2236
14709W        W30178  18.306  10.278   1.617  0.0728 -0.1234  0.0183
14710W        W30179  17.293  14.835  11.571 -0.1292 -0.4969 -0.0863
14711W        W30180  14.616   3.786  11.737 -0.0413  0.0671 -0.2695
14712W        W30181  15.804   7.686   1.179 -0.1282 -0.0174  0.0974
14713W        W30182  11.787   6.823  14.147  0.1802 -0.0966 -0.3666
14714W        W30183   0.452   0.903   0.153 -0.1445 -0.0834 -0.1386
14715W        W30184  17.970   3.216   1.711 -0.0752  0.1393 -0.1172
14716W        W30185   5.481   1.330   1.465 -0.0828  0.2513 -0.0084
14717W        W30186  12.514   6.758   0.844  0.1456  0.3259  0.1599
14718W        W30187   3.126   9.118   4.001  0.2497 -0.1049 -0.0024
14719W        W30188  10.075  14.258   6.138 -0.0569 -0.0368 -0.1487
14720W        W30189  18.459  18.442   0.565 -0.1996 -0.1088  0.5821
14721W        W30190  11.087   9.921  13.964 -0.0993 -0.3447  0.1220
14722W        W30191  12.639  18.528   1.738  0.0935  0.1341  0.2698
14723W        W30192   2.906  15.391   0.357  0.0818 -0.0714 -0.3634
14724W        W30193  15.090  13.418   4.537  0.3053  0.1005  0.0869
14725W        W30194   6.909  18.825  10.832  0.0080  0.0098 -0.0385
14726W        W30195  15.234  11.985   3.292  0.0792 -0.2210  0.2770
14727W        W30196  14.129  15.204  14.999  0.2461  0.1162  0.1346
14728W        W30197  10.074   8.149  12.838  0.0350  0.0485 -0.3331
14729W        W30198   0.295   6.636  11.489  0.3186 -0.3620 -0.0905
14730W        W30199   4.606   2.057   4.285 -0.0229  0.0438 -0.1495
14731W        W30200   1.421  10.471  15.368 -0.1550  0.0394  0.2536
14732W        W30201  13.116  16.195   1.343  0.1982 -0.1306 -0.2472
14733W        W30202   7.335   9.947   1.500 -0.1475 -0.2370 -0.0841
14734W        W30203  16.714   5.604  11.413  0.0430 -0.0731 -0.1976
14735W        W30204   3.505   9.551   4.810  0.1179  0.0900 -0.2261
14736W        W30205   7.389  12.929  10.797  0.1071  0.1748  0.0405
14737W        W30206  11.155  12.195  11.009 -0.1954  0.6377 -0.1248
14738W        W30207  11.362   3.640   3.017  0.2244  0.0773  0.1793
14739W        W30208   8.621  15.877  11.244  0.4442 -0.1663 -0.0117
14740W        W30209   5.391  11.203   4.344 -0.0601 -0.3508  0.1002
14741W        W30210   9.610  17.991   1.024  0.1413  0.1665 -0.1065
14742W        W30211  16.774   6.985  14.955 -0.0638 -0.1588 -0.1446
14743W        W30212  15.745  16.801   3.776  0.3766  0.0327  0.1826
14744W        W30213   8.928   8.822   2.310  0.2934 -0.0653  0.0192
14745W        W30214   3.949   0.471  12.311 -0.0408  0.0696 -0.0715
14746W        W30215   2.215  13.774  11.454 -0.0690  0.1882 -0.0280
14747W        W30216   9.079  14.061  13.289  0.3560 -0.3083 -0.1663
14748W        W30217  14.864   0.601  13.282  0.0780 -0.0953  0.0610
14749W        W30218  14.148   4.843   1.403 -0.1999 -0.0778 -0.1993
14750W        W30219   6.699   1.873   9.550 -0.1165  0.2334 -0.0767
14751W        W30220   9.946  15.456   0.991  0.1866  0.2926 -0.0711
14752W        W30221   5.562  15.525   5.283  0.2978  0.2371  0.0517
14753W        W30222  16.363   1.379   0.057 -0.2532 -0.1022 -0.1059
14754W        W30223   6.210   5.487   0.502 -0.1661 -0.0995 -0.2765
14755W        W30224   6.888   3.817   0.888 -0.0366  0.1944 -0.1668
14756W        W30225  18.076  12.459   3.148  0.0249  0.0545  0.2132
14757W        W30226   8.545  17.585  13.156 -0.0561  0.0054  0.0173
14758W        W30227   6.479   0.724   4.344  0.2660  0.1465  0.1478
14759W        W30228  15.408  16.222   1.776  0.1692 -0.0028 -0.0644
14760W        W30229   2.912  15.149  15.373  0.1009 -0.1382 -0.0979
14761W        W30230  14.020   9.649   4.518 -0.0116 -0.0317 -0.0735
14762W        W30231  13.229  11.894  12.840 -0.0577  0.0562 -0.2958
14763W        W30232   0.646  11.645  10.809 -0.0201 -0.3792 -0.3715
14764W        W30233   9.615  14.226   3.012  0.2081 -0.1951 -0.2664
14765W        W30234   1.328   6.268  12.662 -0.1652  0.0789  0.2915
14766W        W30235   8.431  14.773   4.742 -0.1636 -0.5490  0.1507
14767W        W30236   0.050  14.405   2.828  0.1093 -0.0008 -0.3357
14768W        W30237  10.285  14.737   1.389 -0.2760  0.1253  0.2730
14769W        W30238   2.993  14.290  11.172  0.1998 -0.0741 -0.0400
14770W        W30239  13.833  13.759  14.479 -0.0490 -0.0846 -0.0012
14771W        W30240   5.726  16.489   4.149 -0.0701  0.1557  0.0478
14772W        W30241   8.853   9.742   0.740  0.1962  0.1388 -0.0623
14773W        W30242  15.406   7.131  11.772  0.0094 -0.0303 -0.2082
14774W        W30243  15.520   5.729  12.336  0.0510  0.1869 -0.0241
14775W        W30244   3.042  14.512   1.852 -0.0670  0.0249 -0.0780
14776W        W30245   7.468  15.294  14.811  0.1135 -0.2785  0.0880
14777W        W30246   0.605   1.876   3.325 -0.1192 -0.0037  0.2142
14778W        W30247  17.228   3.505  13.155 -0.1503  0.1445 -0.1447
14779W        W30248  14.888  11.901   1.027 -0.0727  0.1392 -0.1620
14780W        W30249  11.182   8.922   4.314  0.2122 -0.0691  0.1943
14781W        W30250   2.829   8.477  13.317 -0.0670  0.0771 -0.1031
14782W        W30251  13.124  15.457  14.207 -0.2559 -0.0256 -0.1586
14783W        W30252   9.672   1.971  13.066 -0.2208 -0.3225  0.1368
14784W        W30253  13.879   5.414  13.014 -0.0617 -0.1056 -0.0120
14785W        W30254  18.195   2.432  11.496  0.0366  0.2118  0.2784
14786W        W30255  15.052  10.279  13.011 -0.0670 -0.0848 -0.0229
14787W        W30256   6.919  16.550  12.023 -0.0041 -0.1040 -0.0562
14788W        W30257  11.560   5.524   2.317  0.1627  0.3005  0.0616
14789W        W30258  15.543   9.321   4.964 -0.2935 -0.1374 -0.1023
14790W        W30259  17.327   7.152   9.980  0.0599  0.0080  0.1011
14791W        W30260   9.220  10.400   4.603  0.0338  0.1010  0.0216
14792W        W30261   8.343  16.955  12.819  0.0221 -0.3178  0.0107
14793W        W30262  16.105   4.692   0.081  0.4165  0.0734 -0.0027
14794W        W30263  10.329  15.479   2.392 -0.0540  0.1980  0.0052
14795W        W30264   3.320  14.385  14.970 -0.0871 -0.2408 -0.0373
14796W        W30265   6.897   3.019  11.622  0.0167  0.1750  0.2012
14797W        W30266  18.615  13.865   3.476 -0.0510 -0.2520  0.1734
14798W        W30267   2.750   8.515  15.328  0.2072 -0.3430  0.3272
14799W        W30268   6.788  14.356  15.302 -0.2513 -0.2254 -0.3341
14800W        W30269   8.721   7.067  14.210  0.1124  0.0180  0.2361
14801W        W30270   9.864  14.218  14.769  0.2012  0.0309 -0.2690
14802W        W30271  18.562  11.835  13.613  0.0692  0.0104  0.0809
14803W        W30272  11.812   6.697   9.184 -0.1098  0.1048 -0.1740
14804W        W30273  16.891   9.314   2.463  0.2260 -0.4455 -0.1547
14805W        W30274   1.183  17.435  11.525  0.0876 -0.1298 -0.0958
14806W        W30275   2.316   5.377   1.207  0.1493  0.3971  0.2034
14807W        W30276  12.857   9.392   0.015 -0.2551  0.1687  0.2581
14808W        W30277  18.156  14.904  12.528 -0.2370 -0.2393  0.1295
14809W        W30278  10.710   1.689  12.924  0.1031  0.0955 -0.1858
14810W        W30279  13.740  16.918   2.311 -0.1840  0.3691 -0.2878
14811W        W30280  18.779   6.595   0.857  0.1846 -0.0443 -0.0617
14812W        W30281   7.793   2.928   4.176  0.2343 -0.1090  0.2058
14813W        W30282  14.251   6.917  14.403 -0.0374 -0.1331 -0.0268
14814W        W30283   0.399   1.631  11.646  0.3324  0.0794  0.0911
14815W        W30284   3.888  12.578   3.614  0.0252  0.3363  0.0948
14816W        W30285   2.405  16.560  15.112  0.1317  0.2470  0.0876
14817W        W30286   1.374  10.122   5.646  0.1823 -0.2149  0.4413
14818W        W30287  13.506   1.461  15.429 -0.0021 -0.2503  0.0036
14819W        W30288  13.624  12.406   4.847 -0.4439  0.3171 -0.1527
14820W        W30289   8.777   0.492   3.659  0.1784  0.0749 -0.1597
14821W        W30290  18.887   9.701  12.584 -0.2878 -0.3009  0.1373
14822W        W30291   2.286   8.739   5.007 -0.1393 -0.1180 -0.3546
14823W        W30292  13.330   2.037   3.015 -0.0157 -0.0288 -0.2189
14824W        W30293  17.677   9.902   4.979  0.0316 -0.2472 -0.0933
14825W        W30294   8.773   3.760   2.267  0.0172  0.0202  0.1559
14826W        W30295   2.356   3.753   4.332  0.2626  0.4026 -0.0632
14827W        W30296   0.953  15.192  12.207 -0.1958 -0.1333 -0.0290
14828W        W30297   0.539  17.980  12.833  0.1538  0.3571  0.1756
14829W        W30298  11.718   2.498  14.165 -0.0640 -0.0274  0.3200
14830W        W30299   1.865  18.636   3.479  0.1319 -0.1196 -0.0173
14831W        W30300  18.683   6.057   0.459 -0.1559 -0.0822 -0.3824
14832W        W30301  15.976   9.302   3.649  0.0694 -0.1163  0.0853
14833W        W30302   7.707  12.614  11.078 -0.2266 -0.0378 -0.2351
14834W        W30303   3.684  18.915   2.904  0.3029  0.0931 -0.0426
14835W        W30304   8.583   8.171  15.065  0.3228 -0.2195  0.0870
14836W        W30305   3.161  14.247   2.285  0.0980 -0.2372  0.1904
14837W        W30306   0.091  10.561   0.445  0.1323 -0.1801 -0.1375
14838W        W30307   2.217   1.977   2.044  0.0990  0.3266  0.0247
14839W        W30308  16.844  17.051  11.818  0.2234  0.0681 -0.2632
14840W        W30309   3.008  10.884  11.065  0.1007  0.0144 -0.0189
14841W        W30310  14.595  16.462  11.508  0.1030 -0.1810 -0.1655
14842W        W30311   6.561   2.052   4.779 -0.1380  0.2824 -0.1418
14843W        W30312  16.872   5.001   4.874 -0.0484 -0.0387 -0.0210
14844W        W30313   5.072  18.266  12.032 -0.0917 -0.0891  0.1720
14845W        W30314  15.426   1.767   3.780  0.3145 -0.5200  0.0789
14846W        W30315   2.808   5.854   4.109  0.0382  0.0448  0.0835
14847W        W30316   1.965   2.725  11.065 -0.0763  0.1927  0.0515
14848W        W30317  18.851  11.553  11.226 -0.4554 -0.0890 -0.0098
14849W        W30318   8.506   3.088   4.679 -0.1089 -0.0074 -0.1651
14850W        W30319  12.210   5.145  12.486  0.0462 -0.0193  0.3244
14851W        W30320   5.773  14.947   0.466  0.1028  0.2500 -0.3425
14852W        W30321   5.938   2.992   4.216 -0.2029 -0.0882  0.0652
14853W        W30322   1.728  18.793  15.048 -0.0311  0.0023 -0.1583
14854W        W30323   7.179   3.535  11.634 -0.0165 -0.0430  0.0042
14855W        W30324   2.455   6.875  10.999  0.2048  0.1172  0.2365
14856W        W30325   2.905   3.886   1.478  0.1024 -0.1069 -0.2640
14857W        W30326  10.822   8.523  12.383 -0.2745 -0.2186 -0.3965
14858W        W30327   4.374   9.963   2.361 -0.2789  0.2699 -0.1000
14859W        W30328   9.928  11.954   5.918 -0.1954  0.0009 -0.2124
14860W        W30329   6.487   0.310  11.637  0.2245  0.0410  0.0047
14861W        W30330  18.010   0.706  12.360  0.0915  0.1326  0.0197
14862W        W30331  18.402  10.904   3.388 -0.0140 -0.1031  0.0495
14863W        W30332  12.854   8.221   4.959  0.0433 -0.0208 -0.2987
14864W        W30333  13.655   9.366  13.237 -0.2541  0.1161 -0.0199
14865W        W30334  14.665   2.431   2.280 -0.1959 -0.3512  0.0846
14866W        W30335  16.804  16.903   0.856  0.0009  0.0534 -0.2575
14867W        W30336   0.247  15.714  11.157 -0.3578 -0.0021 -0.2600
14868W        W30337  13.152   1.713   3.874 -0.1991  0.1926 -0.1591
14869W        W30338  18.910   8.238   3.252 -0.3238 -0.1566 -0.1966
14870W        W30339   1.779   3.746  11.036 -0.0494  0.0015  0.2751
14871W        W30340   3.822  15.933  11.497  0.2682 -0.0578 -0.1614
14872W        W30341   2.752   1.989   2.055  0.1187 -0.0470 -0.2495
14873W        W30342   8.483  16.509   0.558  0.1289  0.2818 -0.0923
14874W        W30343   1.500  10.870   1.994 -0.1125 -0.2295  0.0872
14875W        W30344   5.471   3.030  10.638  0.0491 -0.0203 -0.1955
14876W        W30345   5.327   0.510   5.069 -0.3718 -0.1832 -0.2558
14877W        W30346   3.787  10.013  13.140 -0.1056 -0.2322 -0.1613
14878W        W30347   1.719   5.311   2.895  0.0801  0.0705 -0.4930
14879W        W30348  13.146  13.415   1.594  0.0233 -0.0483 -0.3078
14880W        W30349  17.390   2.194  13.191  0.0579  0.0228  0.0982
14881W        W30350  12.792   7.212   0.778 -0.2099 -0.1074 -0.1658
14882W        W30351   0.901  10.370  10.971  0.2330 -0.2163 -0.0408
14883W        W30352   6.955  11.729  12.959  0.0368  0.0213  0.0178
14884W        W30353   6.285  18.456  13.331  0.2295  0.1428  0.0735
14885W        W30354  17.172   5.062  15.271  0.1562 -0.1126 -0.0580
14886W        W30355  18.250   8.435   5.644 -0.2389  0.1709 -0.0563
14887W        W30356  18.510  12.760  13.089  0.0161  0.1137 -0.1172
14888W        W30357   2.404   8.781   1.295  0.2130  0.0748 -0.0686
14889W        W30358   1.802   3.015   1.217  0.1075 -0.0485 -0.4010
14890W        W30359  18.250   7.887   1.440 -0.1301  0.0221  0.0563
14891W        W30360   5.793  16.368   2.406 -0.0936 -0.0663  0.1635
14892W        W30361  10.390  14.109  13.794  0.2355 -0.1017 -0.0179
14893W        W30362  12.756   2.261   2.991  0.0480  0.2808  0.2426
14894W        W30363   2.993  16.062  11.817 -0.1767  0.4328 -0.4114
14895W        W30364  11.362   8.116   2.441 -0.1823 -0.3298  0.1217
14896W        W30365   7.520  15.707   2.276 -0.0772  0.0186 -0.2362
14897W        W30366   3.439   0.766  11.517  0.0678  0.1012 -0.0768
14898W        W30367   1.373   0.045  15.473  0.1917 -0.0649  0.0002
14899W        W30368   8.025  11.140  15.183 -0.4702 -0.1506  0.0390
14900W        W30369  12.629  18.766   0.544 -0.0362 -0.0486  0.1992
14901W        W30370   9.340   1.668  14.629  0.0816 -0.0840 -0.0278
14902W        W30371   7.467   3.407   1.439  0.1901 -0.0096  0.1278
14903W        W30372   9.601  12.473   4.814 -0.2113 -0.0106  0.1757
14904W        W30373  18.059   7.860   1.905 -0.0721  0.0509  0.1218
14905W        W30374  10.702  11.949  13.473  0.1904 -0.2264 -0.0567
14906W        W30375   8.501  10.776   5.192  0.1631  0.2089 -0.0551
14907W        W30376  11.482  15.725   5.018 -0.0005 -0.0991 -0.1399
14908W        W30377   0.217  14.757   3.208  0.2500 -0.1627  0.0805
14909W        W30378   7.537  15.356   4.009  0.3479  0.4015  0.1748
14910W        W30379   7.943   4.971   2.653  0.1369  0.2416  0.2368
14911W        W30380  16.787   3.926   2.222  0.2795  0.2906 -0.4308
14912W        W30381   2.604  12.450   2.581  0.1387  0.0075 -0.1879
14913W        W30382  17.374  13.363  13.009  0.1697  0.1562 -0.0048
14914W        W30383  17.611   4.030   0.820  0.1163 -0.2020  0.0164
14915W        W30384  11.976   1.719  12.569 -0.1654 -0.2195  0.1320
14916W        W30385   2.410   4.831   1.416  0.0361  0.1659 -0.0372
14917W        W30386   1.897   9.800  11.675  0.1890  0.0010 -0.1423
14918W        W30387   4.706  16.754  14.523  0.0273 -0.1737 -0.0097
14919W        W30388  15.248  10.193  11.186 -0.0939  0.1500 -0.0898
14920W        W30389  15.916   3.866  13.775  0.0808 -0.0109 -0.2066
14921W        W30390  18.763   8.495  12.072  0.1385  0.1114 -0.1850
14922W        W30391  18.490   4.156   0.137  0.0837  0.3643  0.3771
14923W        W30392   5.654  15.145   3.343 -0.2455 -0.3177 -0.0784
14924W        W30393   2.340  17.767   1.974 -0.2050  0.0606 -0.0182
14925W        W30394   4.682  10.852  14.448 -0.1928  0.0188  0.1441
14926W        W30395   3.607   5.445   1.843 -0.5196  0.4179  0.1653
14927W        W30396   1.040  11.976  11.095 -0.4504  0.1027 -0.2527
14928W        W30397   3.412   5.141  13.629  0.1026 -0.0948  0.1688
14929W        W30398  12.397  12.380   2.256  0.1465 -0.0743  0.2752
14930W        W30399  10.729   6.997  11.245 -0.0273 -0.1445  0.1549
14931W        W30400  18.665   5.788  11.574  0.2281 -0.2176  0.1124
14932W        W30401  16.167  17.458   4.466  0.4466  0.2117 -0.5760
14933W        W30402  10.753  15.808   5.311 -0.1858  0.1954 -0.1183
14934W        W30403   1.266   2.814  12.397  0.3197 -0.1551 -0.0614
14935W        W30404   7.560  12.625  11.572 -0.3271  0.3117  0.3560
14936W        W30405   0.801  18.837  11.332  0.2898  0.3155 -0.1804
14937W        W30406   3.751  15.095  10.471  0.2256 -0.2942  0.1506
14938W        W30407   0.713   5.332   1.906  0.0149  0.2183 -0.0201
14939W        W30408  13.477  16.108  14.780  0.0392  0.0425  0.0389
14940W        W30409   7.680   5.606  15.215  0.2525  0.1452 -0.0672
14941W        W30410  11.888   5.593  14.097 -0.3565  0.0394  0.1275
14942W        W30411  15.909   4.283   2.202  0.0991 -0.1021 -0.3152
14943W        W30412  16.805  10.655   3.156 -0.1132 -0.0109 -0.2660
14944W        W30413   5.831  18.224  13.183 -0.3608 -0.2197  0.3636
14945W        W30414  11.389   0.553  15.290  0.1722  0.0170 -0.1617
14946W        W30415  17.809   7.958   3.422  0.0202  0.1143  0.0140
14947W        W30416  18.014   7.401   4.127 -0.0075 -0.0349  0.0584
14948W        W30417   9.750   6.276   5.143 -0.2097 -0.3854  0.0094
14949W        W30418   2.442   6.100  13.973  0.1646  0.0594 -0.1940
14950W        W30419  15.270  15.444  12.935  0.0965  0.0357 -0.3472
14951W        W30420   5.802   3.098  14.557  0.4171 -0.1680 -0.1207
14952W        W30421   0.093   6.258   9.819  0.3285  0.4467 -0.0112
14953W        W30422  17.460  14.874   2.401 -0.1346  0.0838  0.0466
14954W        W30423   6.211   5.340  15.010 -0.0910 -0.1838  0.1618
14955W        W30424   7.537   9.608  12.271 -0.2090 -0.2445 -0.1855
14956W        W30425   7.756   2.121   3.060 -0.1487  0.1142 -0.1250
14957W        W30426   8.265   6.884  14.339  0.1399 -0.0659  0.2301
14958W        W30427  14.929  11.608   0.618 -0.0103  0.0861  0.0190
14959W        W30428  16.659   3.383  11.162  0.1834 -0.0321 -0.0405
14960W        W30429   2.736  18.035  11.716  0.2785  0.0976 -0.1771
14961W        W30430   6.071   6.044  13.809 -0.2798  0.1469 -0.0708
14962W        W30431  13.463  13.888   2.026  0.2210 -0.0260 -0.1490
14963W        W30432  18.082   3.895   2.797 -0.1475  0.1497 -0.1896
14964W        W30433   2.749  16.727  13.596  0.0227 -0.2273  0.1646
14965W        W30434   1.738   8.826  12.300 -0.0697 -0.0589 -0.3531
14966W        W30435  10.249  16.781  14.283  0.1294  0.3305 -0.2958
14967W        W30436   0.404   4.340   2.832 -0.3892  0.0015  0.0224
14968W        W30437  17.269  13.955   0.810  0.0609 -0.1722 -0.0736
14969W        W30438   8.905   4.261   3.192  0.2069  0.0005  0.0457
14970W        W30439  14.608  12.322   6.541  0.0287  0.2235 -0.0651
14971W        W30440  14.196  15.335  12.337  0.1269  0.2376  0.1384
14972W        W30441  11.679   8.182  10.122  0.2949 -0.1062  0.1020
14973W        W30442   3.894  11.832   1.422 -0.0904 -0.0537 -0.1193
14974W        W30443   0.551   2.866  11.113 -0.2544  0.0478  0.1840
14975W        W30444  11.933  18.477  10.648 -0.4252 -0.0030 -0.2056
14976W        W30445  15.487  16.243   2.830  0.1122  0.1137  0.0907
14977W        W30446  11.141   7.389   2.634 -0.1767  0.1356 -0.0556
14978W        W30447  16.951  16.767   0.315  0.3890 -0.0144 -0.1734
14979W        W30448  18.620   6.634  13.823 -0.0229  0.2195 -0.0965
14980W        W30449   9.680  17.173   3.307  0.1345  0.0622 -0.1123
14981W        W30450   5.584   5.727  14.559  0.1012  0.1116  0.1130
14982W        W30451   1.573  11.024  14.027 -0.0475 -0.2605  0.2389
14983W        W30452   2.902   4.458  12.803  0.2982  0.1356 -0.2233
14984W        W30453   4.656  12.692  14.204  0.5144  0.2979 -0.0568
14985W        W30454  13.910   2.171   5.151  0.2666 -0.5007  0.0148
14986W        W30455   8.027  14.406   3.976  0.4195 -0.1304 -0.0619
14987W        W30456  18.535  17.377  12.960  0.1832 -0.0601 -0.0355
14988W        W30457   1.260  15.844   1.338 -0.0884  0.0194 -0.2108
14989W        W30458  15.034   4.508   4.773  0.2348  0.2162  0.2555
14990W        W30459  17.017   1.462   4.254  0.0084 -0.0670  0.2105
14991W        W30460  17.501   6.693  11.673 -0.1299  0.3275  0.0557
14992W        W30461   8.549   5.821  11.819  0.1281 -0.1617  0.1083
14993W        W30462  16.308   7.053  10.324 -0.2656  0.0140  0.0547
14994W        W30463   8.495  13.508   5.306  0.4066 -0.1177  0.1926
14995W        W30464  15.720  11.687  10.903 -0.1860  0.0457  0.0664
14996W        W30465   0.491   5.014  15.312  0.3248 -0.3468  0.2118
14997W        W30466  15.462   9.559   9.855  0.1202  0.2042 -0.1869
14998W        W30467   9.634   0.741   1.574 -0.2759 -0.3242 -0.1370
14999W        W30468   0.504  14.921   4.394  0.0742  0.0688 -0.1227
15000W        W30469  10.910   1.722  10.761  0.1710  0.1912  0.1213
15001W        W30470   5.730   3.504  14.867 -0.0617 -0.0618 -0.0201
15002W        W30471  13.028  14.596   5.199 -0.3268  0.1103 -0.0585
15003W        W30472   5.703   3.589   3.737 -0.0538  0.1166  0.5094
15004W        W30473  10.743   4.381   2.520  0.0559 -0.0837 -0.2316
15005W        W30474   5.584  11.478   3.065  0.6021 -0.2929 -0.3869
15006W        W30475  13.039   1.828  11.913  0.1820  0.1333  0.0656
15007W        W30476  13.399  13.993   2.482 -0.3158 -0.2399 -0.3418
15008W        W30477   7.561   6.227   3.527 -0.3670 -0.1120  0.1137
15009W        W30478   3.655  14.255  13.683  0.0463  0.2223 -0.0023
15010W        W30479   4.281  14.522   3.466  0.2007  0.1374  0.1442
15011W        W30480  11.788  13.098  13.230 -0.1908 -0.5604  0.0314
15012W        W30481  13.660   1.103   3.106 -0.2450 -0.1944  0.0076
15013W        W30482  15.816   0.964   0.580 -0.2890 -0.1127 -0.3891
15014W        W30483  11.476  11.904   4.976  0.2150  0.0289 -0.1236
15015W        W30484   2.664   3.844  10.742  0.1607 -0.0258  0.3076
15016W        W30485   0.172  11.294  15.240  0.4154 -0.0395  0.0295
15017W        W30486   5.902   2.915  10.446 -0.1374 -0.0612 -0.1601
15018W        W30487  12.362   9.988  14.558  0.1151 -0.0703  0.2606
15019W        W30488   1.183  17.766   4.510  0.0407  0.2039  0.2181
15020W        W30489  16.968  18.570   4.943 -0.1603  0.0985  0.0125
15021W        W30490   4.823   7.221  11.424  0.1753  0.0914  0.3696
15022W        W30491  14.511  16.670   2.071 -0.0723 -0.0966  0.0934
15023W        W30492  12.509  17.815   4.447 -0.0437  0.3709  0.2679
15024W        W30493  13.315   7.521  13.811 -0.0793 -0.1523  0.1435
15025W        W30494  15.133   2.512   2.488  0.2318  0.1658 -0.1126
15026W        W30495   6.677  12.421   6.039  0.4856  0.1737  0.2175
15027W        W30496  13.981   1.229   4.167  0.2525  0.0994  0.2807
15028W        W30497  12.148  18.399   1.144  0.0066  0.3702  0.1270
15029W        W30498   7.453  15.007  11.238  0.1522  0.7118 -0.1738
15030W        W30499   6.716   8.148  14.909 -0.2530  0.0867 -0.2788
15031W        W30500  18.444  12.995   3.502  0.0392  0.3897 -0.2264
15032W        W30501  16.760  10.003  13.491  0.1626  0.0328  0.1276
15033W        W30502  11.214   2.815  12.995  0.1938  0.3472 -0.1431
15034W        W30503  15.957   9.247   2.770  0.0253  0.1757 -0.1554
15035W        W30504   2.178  17.634   3.394 -0.2745 -0.1424 -0.1993
15036W        W30505   3.785  11.361  11.913 -0.3021 -0.2148  0.0159
15037W        W30506  17.239   6.810   4.986  0.1078  0.1563 -0.0450
15038W        W30507   5.341   5.419   3.253  0.0007  0.1356  0.1467
15039W        W30508  11.041   3.024  15.217  0.0010 -0.0654 -0.1796
15040W        W30509  12.046  15.865  13.788 -0.2907 -0.1471  0.0105
15041W        W30510  16.269   5.252  14.439 -0.1197 -0.0754  0.1995
15042W        W30511  10.364  11.482  13.224  0.1101 -0.1777 -0.0147
15043W        W30512  12.604  13.294   2.899  0.4801 -0.1825 -0.0476
15044W        W30513   2.640  18.918   5.587 -0.3814 -0.0799  0.2499
15045W        W30514   1.823   0.377  11.954 -0.0906  0.1482  0.0631
15046W        W30515  14.534   4.760  15.090 -0.1192 -0.0128  0.2082
15047W        W30516   6.268  17.904   3.252 -0.0357  0.0819  0.1996
15048W        W30517  10.659   4.628  14.420 -0.0943 -0.0529  0.1076
15049W        W30518  18.560   0.012  11.572  0.2648  0.0140 -0.0095
15050W        W30519   1.806  10.178   0.292  0.0559  0.1019  0.1024
15051W        W30520  15.612  18.304   4.131 -0.1658  0.0573 -0.0088
15052W        W30521  11.014   8.349  10.420  0.0386 -0.0797 -0.4629
15053W        W30522   8.094   1.745   0.640  0.1569  0.1558 -0.1215
15054W        W30523   6.739  17.041  14.055 -0.1279  0.1397  0.0538
15055W        W30524   1.477  14.943   0.799  0.0999 -0.2091  0.1659
15056W        W30525   9.611  15.261  13.445 -0.0500 -0.1458 -0.1808
15057W        W30526   8.156   0.632  12.678  0.2396  0.0308 -0.2762
15058W        W30527   2.789  17.483   1.536  0.0347 -0.1167 -0.0130
15059W        W30528   5.253  14.904   0.966  0.0916 -0.0597 -0.2008
15060W        W30529   9.029   9.685   0.056  0.0121 -0.0578  0.0351
15061W        W30530  16.581  14.230   5.067  0.3368  0.2494 -0.1934
15062W        W30531  12.200   4.997   1.051 -0.0350  0.3047 -0.0478
15063W        W30532  18.487   0.655   5.067  0.1869 -0.0814  0.1211
15064W        W30533   4.244   8.169  12.206 -0.0333 -0.2229  0.3511
15065W        W30534  12.481   8.764   0.251  0.2605 -0.1430  0.1184
15066W        W30535   1.209  11.412   1.732  0.2019 -0.1937 -0.1575
15067W        W30536  13.580  12.571  14.583 -0.5439 -0.1577 -0.1352
15068W        W30537  15.050   5.779  12.940 -0.1620 -0.3636 -0.2815
15069W        W30538  12.126  17.788   1.079  0.2186  0.0585  0.2623
15070W        W30539   5.290   5.989   0.915  0.1140  0.0025  0.1109
15071W        W30540  10.748  10.793   2.111  0.2696  0.0230 -0.3034
15072W        W30541   1.873  11.221  15.426  0.3979 -0.0040 -0.1698
15073W        W30542  16.302  10.921  10.611 -0.4284 -0.2223 -0.4178
15074W        W30543   8.272  13.793  12.578  0.1665  0.0333 -0.4147
15075W        W30544  14.032   2.270  15.442 -0.5064 -0.1246 -0.1293
15076W        W30545  11.449  16.759   2.822 -0.0235 -0.0957 -0.0543
15077W        W30546  17.361  17.063  10.840  0.2778  0.1688  0.1973
15078W        W30547  10.057  11.736   4.295  0.1904  0.0343  0.0825
15079W        W30548   9.515   0.271   1.669  0.1770  0.1687  0.0563
15080W        W30549  14.359   9.943   0.793  0.3089 -0.0882  0.0612
15081W        W30550  11.213  10.438   0.802  0.0770  0.0491  0.2138
15082W        W30551   8.783  17.407   3.183  0.1713  0.0720 -0.1285
15083W        W30552   4.737  10.220   3.280 -0.1209 -0.3703 -0.1033
15084W        W30553   0.062   8.034  11.920 -0.2569  0.0279  0.1672
15085W        W30554  17.277  15.902  11.192  0.0566 -0.1201  0.2346
15086W        W30555   5.812  17.771   2.791  0.1786  0.0097  0.3057
15087W        W30556   4.859   1.622  13.148  0.1546 -0.2527 -0.2769
15088W        W30557   1.304  12.049  11.981  0.1939  0.0190 -0.1831
15089W        W30558   5.419   0.331   0.086  0.0706  0.0873 -0.5001
15090W        W30559  18.001  18.425   0.965  0.3312 -0.0027 -0.0800
15091W        W30560   9.133  18.147   0.835 -0.1933  0.1139  0.0612
15092W        W30561   6.129  11.269   4.622 -0.1827 -0.1805  0.1162
15093W        W30562   7.996   6.004   2.693  0.0231  0.5414  0.2255
15094W        W30563  17.153   2.946   0.116  0.2859 -0.0710 -0.0336
15095W        W30564   6.373   5.233   0.968 -0.0081  0.2116  0.0824
15096W        W30565   6.268   0.242   4.598 -0.1239  0.2541 -0.3642
15097W        W30566  14.134   6.229   3.501  0.1156 -0.1490  0.0475
15098W        W30567   2.864  16.600  11.644  0.0380 -0.1354  0.0407
15099W        W30568   0.640   0.696   1.041 -0.0999  0.1642 -0.4746
15100W        W30569  14.890   7.653  14.461  0.1611  0.1007  0.0876
15101W        W30570   3.284   7.884   2.102  0.3609  0.1062 -0.2207
15102W        W30571  10.547  16.439  13.541  0.0887 -0.1011 -0.3973
15103W        W30572  10.398  10.339  12.185 -0.0493 -0.1022  0.2193
15104W        W30573  13.553   0.301   5.057  0.1193  0.5207  0.0731
15105W        W30574  12.247   5.305  15.383 -0.1988  0.1330  0.1108
15106W        W30575  15.765   9.763  12.414  0.0178 -0.1995  0.0433
15107W        W30576   4.245   6.171  15.492  0.1617 -0.2008 -0.2082
15108W        W30577   5.106  12.095  14.766  0.1529 -0.1828  0.0214
15109W        W30578  15.927   2.815  11.808  0.4375 -0.1541  0.2328
15110W        W30579  13.272   7.338   0.110  0.0462 -0.3319  0.1801
15111W        W30580  15.673  12.619   2.050  0.2069 -0.1161  0.1260
15112W        W30581   7.106  13.619  14.033  0.0140  0.2093  0.1824
15113W        W30582   3.938   1.737   3.349 -0.2062  0.1135 -0.1312
15114W        W30583   0.337   3.693   2.260  0.2442 -0.2029 -0.0801
15115W        W30584  15.149  17.842  11.467 -0.0990  0.0486  0.2966
15116W        W30585   9.108   2.401   0.797  0.3617  0.2041 -0.1098
15117W        W30586   6.392   2.970   3.886 -0.3056 -0.3429  0.0392
15118W        W30587   4.394   8.608   4.050 -0.2167 -0.2407  0.0869
15119W        W30588  15.037   5.200   5.425 -0.1212  0.0757  0.0902
15120W        W30589  15.295   8.469   3.223 -0.0462 -0.2956 -0.0371
15121W        W30590   1.703   4.839   5.706  0.1897 -0.2479 -0.1186
15122W        W30591   2.728   5.919  13.125  0.1170  0.1471 -0.0775
15123W        W30592   9.435   6.083  13.559  0.0952  0.0139 -0.1079
15124W        W30593   7.033   3.060   3.122  0.4384 -0.2229 -0.2542
15125W        W30594  12.944   1.993   4.284 -0.0968 -0.1539  0.0577
15126W        W30595  11.937  10.980  11.613 -0.0614  0.0253  0.2100
15127W        W30596   4.679  18.422   0.420 -0.0592 -0.0230 -0.1194
15128W        W30597   9.371  11.524   9.703 -0.1632  0.0939 -0.1244
15129W        W30598   4.346  10.701   1.471  0.0496  0.0013  0.2775
15130W        W30599  14.998  16.873  13.977 -0.0812  0.1254 -0.1390
15131W        W30600  11.645   1.835  12.928  0.1878 -0.0235  0.2725
15132W        W30601  13.338   1.529  14.352 -0.2223 -0.0898 -0.0530
15133W        W30602  18.595   8.157  11.615  0.0904 -0.3693  0.0525
15134W        W30603  18.488   0.677  12.321  0.0204 -0.2253 -0.0482
15135W        W30604   6.488  17.141   2.224 -0.0148  0.2284  0.2988
15136W        W30605   6.196  10.676   0.400  0.0930 -0.0538 -0.1188
15137W        W30606  14.532   4.011   4.585 -0.1829  0.0296  0.1689
15138W        W30607  13.758   6.448   0.270  0.2226  0.0502 -0.1525
15139W        W30608  10.000   2.810   1.106 -0.2495 -0.2673 -0.2651
15140W        W30609   9.745   7.869   1.766 -0.1195 -0.1386 -0.0005
15141W        W30610   9.278  12.801   5.733 -0.1193  0.2458 -0.3524
15142W        W30611  18.247   1.167   4.996  0.0167  0.4247 -0.0513
15143W        W30612  16.981   3.770   0.196 -0.1731 -0.1025 -0.1613
15144W        W30613   5.964   1.914  10.799  0.1824  0.0078  0.1242
15145W        W30614  12.463   2.820   0.172 -0.1013  0.1993 -0.5062
15146W        W30615   7.193   3.130  13.484 -0.1028 -0.1368  0.1931
15147W        W30616  12.550   3.064   2.518 -0.1183  0.0978 -0.0920
15148W        W30617   4.227  14.956  14.338 -0.0178  0.1264  0.1770
15149W        W30618   4.516   7.217   4.081  0.3157 -0.0506 -0.1856
15150W        W30619  13.659  18.270   1.678  0.2915 -0.1259 -0.0711
15151W        W30620  15.407  14.174   2.015  0.0670 -0.0281 -0.0751
15152W        W30621  17.228  16.288  14.084  0.2326 -0.0188 -0.2184
15153W        W30622  14.251  13.485  14.357 -0.0386  0.0390 -0.0011
15154W        W30623   8.604  13.690  13.912  0.0884 -0.0019 -0.0634
15155W        W30624   9.353   6.853   4.523 -0.0242  0.0838  0.2404
15156W        W30625   4.119  15.783   5.669  0.0871 -0.2522 -0.0119
15157W        W30626   8.058   1.589  11.138  0.2036  0.0602  0.2054
15158W        W30627   4.791   9.123   0.725 -0.1633  0.1826 -0.0973
15159W        W30628  18.692  14.651  10.700  0.4012  0.0924 -0.0127
15160W        W30629   0.820   3.237  14.705  0.1899 -0.0147 -0.0405
15161W        W30630   1.438   3.270  13.946  0.2609 -0.2979 -0.2132
15162W        W30631  12.336   3.348  12.996 -0.0992 -0.0773  0.1592
15163W        W30632   8.489  12.993   1.494 -0.0294  0.1110  0.3682
15164W        W30633  17.656  12.262   1.474 -0.1422 -0.1598 -0.0148
15165W        W30634   8.935   1.234   3.694 -0.0334 -0.4175  0.1526
15166W        W30635   9.528  11.571   5.034 -0.4187  0.2581 -0.2661
15167W        W30636  16.346  14.792   1.381 -0.2949  0.1880 -0.2126
15168W        W30637   4.975  17.471   3.873 -0.0697  0.0516  0.2446
15169W        W30638   3.382   4.200   5.536 -0.0787  0.1427 -0.3273
15170W        W30639  12.675  10.561  14.996  0.3213  0.0117 -0.0847
15171W        W30640   4.265   7.725  11.946 -0.3326  0.1384  0.0929
15172W        W30641  18.653   4.820  13.482 -0.0185 -0.0660 -0.0366
15173W        W30642   0.224   4.303  13.479  0.0496 -0.0004 -0.2929
15174W        W30643   5.913  12.933  11.280 -0.1844  0.0829 -0.7374
15175W        W30644   8.708  16.567  11.108 -0.0951 -0.1020  0.0092
15176W        W30645   4.518   2.350   5.115 -0.1733  0.1496  0.1198
15177W        W30646   0.527  13.280  13.021 -0.1474  0.1912 -0.2835
15178W        W30647   3.492  18.093  11.454  0.1718  0.2023  0.1546
15179W        W30648   2.183   2.007   1.155  0.0961 -0.2347  0.1351
15180W        W30649   3.452  16.866  13.866 -0.1890 -0.1874  0.2913
15181W        W30650  10.606   6.252  10.437 -0.0123  0.0436 -0.0535
15182W        W30651  18.158  17.139   3.246 -0.2129  0.0839  0.2114
15183W        W30652  12.621   6.337  12.423 -0.0665 -0.2368  0.2855
15184W        W30653  15.330  11.652  12.962  0.2891 -0.2266 -0.0794
15185W        W30654   9.055   4.914   4.006  0.0967 -0.3711 -0.0004
15186W        W30655   3.135  13.252  15.057  0.3706  0.2008  0.0309
15187W        W30656   1.031   6.538   1.178  0.3188 -0.0030  0.3686
15188W        W30657  13.307  15.637  14.678 -0.1136  0.0512  0.0615
15189W        W30658   5.495   9.283  14.549 -0.0205 -0.0766 -0.0124
15190W        W30659   6.858   1.790   4.463 -0.2465  0.2012 -0.1861
15191W        W30660  11.486  13.644   6.212 -0.0884  0.0495 -0.2227
15192W        W30661   5.737   5.249  11.866 -0.0239 -0.0845 -0.0164
15193W        W30662   0.192   0.448  13.566 -0.1496 -0.1759  0.0177
15194W        W30663  13.998   0.310  14.348  0.1379  0.2028  0.1330
15195W        W30664  14.128  11.178   1.997 -0.1720 -0.3937 -0.2679
15196W        W30665   1.337   5.559  14.112 -0.0188 -0.0924 -0.2806
15197W        W30666   3.112   4.753  15.484 -0.1893  0.4277 -0.2369
15198W        W30667  11.319   0.842  14.145 -0.0464  0.3314  0.2219
15199W        W30668  18.295  13.004  13.594  0.1754 -0.0565  0.0076
15200W        W30669   8.744   7.278   0.595  0.0399  0.0584 -0.0247
15201W        W30670   7.065   6.549  14.931  0.0198  0.3802 -0.0087
15202W        W30671   1.470   8.281  10.555  0.0547  0.2333  0.2169
15203W        W30672   7.204   8.383   1.168 -0.2410 -0.1720 -0.0199
15204W        W30673  11.559  14.323  12.439 -0.0653  0.0873  0.0433
15205W        W30674   4.442  15.081  13.349  0.0679 -0.1919 -0.3170
15206W        W30675   8.832  13.658   4.640  0.2172 -0.1399  0.1142
15207W        W30676   2.931   1.453  12.945  0.1131 -0.1245  0.1067
15208W        W30677   3.975   6.345  11.156 -0.0619  0.2124 -0.1028
15209W        W30678  10.098   7.900   9.700 -0.0540  0.2565 -0.0189
15210W        W30679   2.404   8.217   5.122  0.0722  0.0267 -0.2497
15211W        W30680  12.631   4.906  12.196  0.0778 -0.1209  0.2490
15212W        W30681   9.753  16.232  12.113  0.4185 -0.0313  0.0780
15213W        W30682  11.662   0.098   2.492 -0.1017  0.0998 -0.2768
15214W        W30683   5.027  16.749   5.416 -0.0721  0.0249  0.0685
15215W        W30684   5.544   9.855   5.201  0.1286 -0.4033 -0.0916
15216W        W30685  10.377  13.631  13.815  0.1506  0.0876 -0.2405
15217W        W30686   6.202  11.088   2.883  0.2529 -0.1952 -0.0016
15218W        W30687   7.282   6.834  11.274 -0.0423  0.3770  0.2909
15219W        W30688   4.766   1.636   0.067  0.0368  0.2905  0.2438
15220W        W30689   8.999  13.568  13.581 -0.2087 -0.0926  0.1562
15221W        W30690   0.968  10.240   2.798 -0.1608 -0.1655  0.0680
15222W        W30691  17.429  15.729   5.130  0.1868 -0.0112 -0.1327
15223W        W30692   5.713  13.686   1.658  0.1461 -0.2240  0.0887
15224W        W30693   7.147   5.806  10.509  0.0703  0.0487 -0.1582
15225W        W30694   1.892   1.612   1.093 -0.0227 -0.0973  0.0379
15226W        W30695  18.850   3.321   3.660  0.4098  0.0243 -0.0304
15227W        W30696   2.055   2.387   4.506 -0.0168  0.2379 -0.2057
15228W        W30697   9.079  16.184   0.085 -0.0914 -0.2360 -0.0359
15229W        W30698   6.779   0.658  12.020  0.3232  0.0632 -0.1031
15230W        W30699  15.868  17.099  10.856 -0.0117 -0.0724 -0.3523
15231W        W30700   4.972   7.398  13.371 -0.1527 -0.1680  0.0677
15232W        W30701   1.996   7.443  13.992 -0.2038 -0.2932 -0.0184
15233W        W30702   3.567  10.307   2.040 -0.4156  0.0268 -0.0999
15234W        W30703   9.910  12.645   2.616 -0.1192 -0.2957  0.1911
15235W        W30704   8.661   0.282   0.423 -0.1127  0.0266 -0.0700
15236W        W30705   3.023   1.408   0.969 -0.0129  0.0629  0.0571
15237W        W30706  13.068   3.376  14.038 -0.3896 -0.0305 -0.2728
15238W        W30707   6.918  12.925  14.631 -0.1908  0.0154 -0.4080
15239W        W30708   7.579   0.061  13.908  0.2037  0.1937  0.2367
15240W        W30709  14.862  15.763  11.731  0.2249  0.1560 -0.0371
15241W        W30710   3.688   3.868   0.691 -0.2403  0.1611  0.0204
15242W        W30711   2.017   4.778  15.221 -0.1950  0.0405 -0.0567
15243W        W30712   3.315   9.415  11.026  0.0392 -0.1511 -0.2800
15244W        W30713   0.447   5.606   5.062  0.0681 -0.2735 -0.1792
15245W        W30714   3.275   7.609   2.572 -0.1327  0.2461  0.3259
15246W        W30715   2.447   2.408   2.302 -0.0337  0.0797  0.2475
15247W        W30716   4.464   8.691   2.249 -0.1291  0.0513  0.0141
15248W        W30717   6.256   3.228  10.625 -0.0764 -0.1832 -0.1884
15249W        W30718   7.656  13.714   1.549 -0.1607 -0.0033  0.0010
15250W        W30719  14.373   8.027   4.090 -0.1436  0.0600  0.0934
15251W        W30720  15.956   7.662   0.251  0.0432  0.0729 -0.2126
15252W        W30721  13.453  14.419   0.421  0.0986  0.0354 -0.1726
15253W        W30722   4.679  15.713   0.920  0.3501 -0.2123  0.0556
15254W        W30723   4.731   5.922  10.962  0.4046 -0.1315  0.2801
15255W        W30724   1.739   7.029   3.759  0.2221 -0.3136 -0.1420
15256W        W30725  16.324   4.644   0.558  0.1619 -0.1241  0.2153
15257W        W30726  16.963  15.363   3.238  0.1039 -0.3308  0.4866
15258W        W30727  14.979  11.970  13.525  0.1647  0.1446 -0.1727
15259W        W30728  13.200  17.053  14.408  0.1380 -0.0656 -0.0356
15260W        W30729  12.487  15.702  11.767 -0.0413  0.2033 -0.0141
15261W        W30730   6.202   7.148   0.972  0.0902 -0.0410 -0.3366
15262W        W30731  11.990  10.917   3.436  0.0243  0.1472 -0.3313
15263W        W30732  16.828   3.592  12.006  0.2459 -0.2020 -0.1859
15264W        W30733   8.479  12.996  15.494  0.3053 -0.0534 -0.0498
15265W        W30734   8.664  16.630  12.923  0.0118  0.3605  0.0841
15266W        W30735   0.044   0.264  14.104 -0.2966  0.0851  0.0635
15267W        W30736   5.003  12.713  13.150  0.2435 -0.4830 -0.2927
15268W        W30737   2.653  12.027  14.850  0.0732  0.3117  0.0918
15269W        W30738   0.942   0.125   4.445  0.0512  0.2601 -0.0595
15270W        W30739  12.699  12.022   3.893 -0.0442  0.0959 -0.0510
15271W        W30740   8.181   3.014   1.917 -0.7268 -0.0086  0.0422
15272W        W30741   7.937   0.860   3.260  0.2308  0.0162  0.0837
15273W        W30742  11.906  12.197   1.993 -0.0683 -0.1501  0.4076
15274W        W30743   4.987   1.014  11.173  0.0651 -0.2922 -0.5097
15275W        W30744   6.700  14.017  12.441 -0.0265  0.0487 -0.0147
15276W        W30745   0.222   2.013  11.425 -0.1539  0.2459  0.1114
15277W        W30746   3.574   6.899  10.712 -0.2684 -0.3001  0.1094
15278W        W30747  12.176   9.492   0.850 -0.1689 -0.1185  0.0207
15279W        W30748  12.719  14.687   2.972  0.1432  0.1417 -0.1740
15280W        W30749   2.638  14.310   0.854  0.3260  0.1153  0.0981
15281W        W30750  10.455   6.619  10.099 -0.3478  0.1776  0.1449
15282W        W30751  11.178   2.893  10.949 -0.2222 -0.0083 -0.3594
15283W        W30752   2.664   0.007  13.304 -0.0877 -0.3016  0.3220
15284W        W30753   4.625   2.481  13.718 -0.0987  0.0373  0.1545
15285W        W30754   6.677  18.134   1.741 -0.0519 -0.1887 -0.0542
15286W        W30755   6.210  17.518  15.329 -0.4654  0.0110  0.0342
15287W        W30756  11.875   8.295   3.493 -0.1511  0.0008  0.3485
15288W        W30757   6.287  13.408  11.147  0.1041  0.0694 -0.1318
15289W        W30758  15.294   3.375  12.947  0.2925  0.3036 -0.2342
15290W        W30759  11.864  15.228  12.888 -0.0902  0.2058 -0.0451
15291W        W30760   5.989  15.865  14.784 -0.0116  0.2250 -0.1728
15292W        W30761   9.714   1.885   2.481  0.0355  0.0485  0.1928
15293W        W30762   4.558   3.500  13.018 -0.0875  0.0163 -0.1734
15294W        W30763  14.645  17.511  14.478 -0.0588 -0.0132  0.1668
15295W        W30764   8.115  17.320  14.641 -0.1927  0.2964  0.1243
15296W        W30765  11.799   9.868   5.214 -0.1262  0.0185 -0.0883
15297W        W30766  10.383   3.085   2.587  0.1284  0.0141 -0.0062
15298W        W30767  17.502   6.481  11.096 -0.2391  0.0186  0.1634
15299W        W30768  10.017   0.478  10.492 -0.1894 -0.1855 -0.2373
15300W        W30769  16.060  14.373   3.687 -0.0295  0.1594 -0.0798
15301W        W30770   9.561  12.091   1.854 -0.1934 -0.0486  0.3542
15302W        W30771  11.223   7.621  14.991  0.0216 -0.0503 -0.3419
15303W        W30772  13.389  12.786  15.407  0.0309 -0.1273  0.1832
15304W        W30773   2.156   1.034   4.074 -0.1739  0.1844 -0.1189
15305W        W30774  18.937  10.992  13.123  0.5613 -0.1390 -0.2351
15306W        W30775  12.537   2.249  13.574  0.2005 -0.2658  0.0547
15307W        W30776   2.233  11.219  14.487  0.0949  0.1740 -0.1476
15308W        W30777  13.535  18.779   1.169 -0.0878  0.0363 -0.1837
15309W        W30778  11.283  18.153   3.380  0.1097 -0.1892  0.3226
15310W        W30779   5.026   7.972   5.219  0.1915 -0.2553 -0.3140
15311W        W30780   6.396   5.783  11.583 -0.0496 -0.0505  0.2817
15312W        W30781   2.569  18.574   1.152  0.3043 -0.0246 -0.1059
15313W        W30782   0.270   9.538   5.814 -0.1037  0.3314 -0.2805
15314W        W30783  13.403  12.957  14.973 -0.2038  0.0421 -0.3512
15315W        W30784   0.071  15.496  12.847  0.1627 -0.1167 -0.0077
15316W        W30785  12.678   1.455   2.736 -0.0637 -0.0701  0.0047
15317W        W30786  16.940  10.296   2.546  0.0491  0.0390  0.0679
15318W        W30787   8.758   2.028   0.378  0.0567  0.0598  0.0169
15319W        W30788   2.577   7.793  14.667  0.2173  0.2293 -0.1191
15320W        W30789   3.799   4.398  15.144 -0.0568 -0.3833 -0.2844
15321W        W30790   7.861   3.973  11.491  0.1182  0.1160 -0.1366
15322W        W30791   6.783   7.412  15.000 -0.0405  0.2227  0.1089
15323W        W30792   6.605   7.208   1.371  0.2544 -0.1781 -0.3923
15324W        W30793  10.177  17.722   3.656 -0.3514 -0.0872  0.1485
15325W        W30794  10.755  13.733  13.391  0.0329  0.0665 -0.3125
15326W        W30795  11.278   3.407  13.614  0.2930 -0.0368 -0.2695
15327W        W30796  17.373   6.909  15.345  0.1449 -0.2330 -0.0148
15328W        W30797   3.248  15.575   3.085 -0.0188  0.4709  0.1235
15329W        W30798  17.404   1.741   4.352 -0.1632 -0.0413  0.0312
15330W        W30799   4.537   4.991   4.509 -0.3846 -0.1560  0.0542
15331W        W30800   5.771   8.281  12.822 -0.0983  0.0211  0.0123
15332W        W30801   1.216   9.215  12.886  0.0191  0.2314  0.0401
15333W        W30802   5.799   8.885  12.109 -0.0235  0.0492  0.1455
15334W        W30803  13.619  10.635  14.510 -0.0624 -0.0299  0.1622
15335W        W30804   7.052   1.344   1.405 -0.0431  0.1199  0.4567
15336W        W30805  11.141   6.460   1.973 -0.2808 -0.0775  0.2175
15337W        W30806  12.619  15.569   1.910 -0.0510  0.1829 -0.1578
15338W        W30807  10.808  18.337   3.806 -0.5076  0.1899 -0.1109
15339W        W30808   2.934  12.262   0.976  0.0298 -0.2398 -0.1808
15340W        W30809   5.850   8.602   2.970  0.0806 -0.3306 -0.0372
15341W        W30810  10.953   4.553  12.591  0.0708 -0.5002  0.0957
15342W        W30811   9.480   4.379  15.468 -0.0001 -0.1262 -0.1102
15343W        W30812  12.259  14.391  15.262 -0.0193  0.0816 -0.0886
15344W        W30813   9.413   6.490   5.529  0.1601 -0.2639 -0.0336
15345W        W30814   9.512  16.110  15.305  0.0662 -0.1901 -0.0670
15346W        W30815   4.798   0.986  12.884  0.1448  0.2293 -0.1325
15347W        W30816   4.282   3.441  11.600  0.0214 -0.2486 -0.2065
15348W        W30817   7.819   0.086  14.398  0.2990 -0.1376  0.0797
15349W        W30818   7.392   4.036  11.153  0.0274 -0.0597 -0.0618
15350W        W30819   2.395  14.241  13.796 -0.1029  0.0464 -0.1717
15351W        W30820  10.568   1.109  14.517 -0.4016  0.1169  0.1298
15352W        W30821  14.662   3.090  11.323  0.0068 -0.1267  0.5463
15353W        W30822  17.025   5.774   4.388 -0.0734  0.0651  0.1806
15354W        W30823   5.728   1.195   3.509 -0.0887 -0.1385  0.3551
15355W        W30824   8.460   4.224  15.487  0.0174  0.3146  0.0890
15356W        W30825   1.368  13.809  14.128  0.0940 -0.1422  0.1976
15357W        W30826   7.611  15.049  15.303  0.0117 -0.0623 -0.1018
15358W        W30827  13.750   2.284   5.597  0.1806  0.1932 -0.0177
15359W        W30828   8.191  17.856  14.431  0.1062  0.1144 -0.0243
15360W        W30829   4.597   0.042  11.846  0.0529  0.0931  0.0162
15361W        W30830   3.404  16.234   2.343  0.3653  0.1566 -0.0633
15362W        W30831  10.358   0.351   1.699  0.1368  0.3547  0.0828
15363W        W30832   0.728   4.582   4.848 -0.3403  0.4673  0.2838
15364W        W30833  10.697   2.882   1.503  0.0858  0.0419 -0.1808
15365W        W30834  12.892  13.279   5.653  0.2435  0.1012 -0.2779
15366W        W30835   5.262  11.319  12.218  0.3796  0.0516 -0.0414
15367W        W30836  17.122   8.201  10.244 -0.0582  0.1239  0.0521
15368W        W30837  13.439   6.295  14.443 -0.0490  0.2002 -0.3448
15369W        W30838   8.345  18.361   1.472 -0.0469 -0.0363  0.3169
15370W        W30839  17.167   0.253   4.283  0.3255 -0.0889 -0.1834
15371W        W30840  16.024  14.115  11.918 -0.0629 -0.1316 -0.2562
15372W        W30841   7.624  14.308   1.156  0.1859 -0.2563 -0.1035
15373W        W30842  11.348  14.178   0.838 -0.1358 -0.3321 -0.0771
15374W        W30843   9.644   1.761   9.693 -0.2177  0.1805 -0.0017
15375W        W30844  16.496   7.456   0.890  0.1485 -0.0261 -0.2712
15376W        W30845   6.346  12.837   2.229 -0.2373 -0.3525  0.0903
15377W        W30846  16.731   5.981  11.745  0.1507 -0.0557  0.4648
15378W        W30847   2.919  11.256  14.445  0.0518 -0.0672  0.1259
15379W        W30848  16.790   0.507   4.614  0.0757  0.0703 -0.2456
15380W        W30849   4.563  12.353   1.115  0.0830  0.0106 -0.1050
15381W        W30850   6.000   6.727   2.296 -0.1852  0.0047  0.1112
15382W        W30851  16.412   4.742  12.326 -0.1803  0.0880 -0.0135
15383W        W30852   4.267  15.919  14.028  0.0299  0.3320 -0.1757
15384W        W30853   7.725  16.382   1.140  0.1193  0.1035  0.2887
15385W        W30854   8.900  16.845  14.781 -0.0761  0.0463 -0.1167
15386W        W30855  14.121  16.174   1.046 -0.2984 -0.2536 -0.0230
15387W        W30856  16.855  13.599  14.591  0.1893  0.0944 -0.1501
15388W        W30857  16.425   6.449  14.232  0.0584  0.0339 -0.0992
15389W        W30858   8.257  14.414  13.185 -0.2345  0.0684 -0.0594
15390W        W30859   2.466  18.293   3.938  0.1722 -0.0982  0.0082
15391W        W30860   5.738  18.456  14.972 -0.3866  0.0844 -0.0937
15392W        W30861   7.623   5.043  15.377 -0.0094  0.0456  0.0204
15393W        W30862   1.054  16.579   3.557  0.2458 -0.2736  0.0559
15394W        W30863   6.465  18.568  14.431  0.2493  0.1855 -0.2511
15395W        W30864   0.967   4.390   3.997  0.1080 -0.2708  0.0058
15396W        W30865  10.179  15.527   3.018  0.0213 -0.2071 -0.4509
15397W        W30866  13.655   6.139  13.436 -0.1685 -0.0072  0.1964
15398W        W30867   9.233  16.031   0.940  0.0884 -0.1818 -0.1296
15399W        W30868  14.127   6.345   4.005  0.2353 -0.1916  0.0181
15400W        W30869  14.326  16.050  12.992 -0.0400  0.0064 -0.1025
15401W        W30870   8.115   7.641   1.952  0.1961 -0.2565  0.2380
15402W        W30871   1.338  11.800  14.373 -0.0078  0.3614 -0.5357
15403W        W30872  12.270   5.161   1.676  0.2025  0.2494 -0.2313
15404W        W30873   8.012  10.016  11.838  0.0253 -0.2219  0.1699
15405W        W30874   5.549  14.684  14.247 -0.3083 -0.0036  0.0521
15406W        W30875   8.855  18.128  13.146  0.1441  0.0127  0.1258
15407W        W30876   2.206   2.804  14.706 -0.3708  0.0657  0.0492
15408W        W30877  12.199   1.192   2.278  0.2227 -0.0404  0.0280
15409W        W30878   1.664   4.577   4.824 -0.2787 -0.3668  0.0906
15410W        W30879   5.159  18.679   0.478 -0.2516 -0.1036  0.1277
15411W        W30880  15.892  18.827  10.229 -0.2088 -0.0501  0.0794
15412W        W30881   5.803   7.297  10.977 -0.1759  0.3492  0.1534
15413W        W30882   5.177   0.318   4.663 -0.0568  0.1571  0.2979
15414W        W30883  15.687   3.338  10.968 -0.1074  0.2098 -0.2911
15415W        W30884   1.407   6.351  15.405 -0.0574  0.0314  0.0906
15416W        W30885   0.746  16.816  11.970  0.2961  0.3323 -0.0957
15417W        W30886  12.381  15.009   1.932 -0.1259  0.2211 -0.2668
15418W        W30887   2.117   5.691   0.771  0.1040 -0.0939  0.1816
15419W        W30888   9.903   4.512  11.043  0.1243  0.2461 -0.0399
15420W        W30889  10.257   7.160  12.113 -0.1634  0.0174  0.0742
15421W        W30890  13.803   2.727  14.021 -0.2481  0.1044  0.0804
15422W        W30891   2.444  10.372   0.804  0.2758  0.0209 -0.2360
15423W        W30892  17.660  11.929  11.585 -0.1881 -0.0334 -0.0576
15424W        W30893  15.870   6.867   2.319 -0.0639 -0.4169 -0.0574
15425W        W30894  10.161   0.566   0.358  0.0156 -0.0452  0.1353
15426W        W30895  14.655  13.612   1.967 -0.2432  0.3448 -0.3639
15427W        W30896  12.465   3.234  14.228 -0.3576  0.1254  0.0432
15428W        W30897  13.381  11.848   0.696  0.3591  0.1964 -0.0317
15429W        W30898  18.207  17.297   9.937 -0.1078  0.2534 -0.5605
15430W        W30899  18.754  10.148  14.353  0.2952 -0.6471  0.0181
15431W        W30900  14.219   5.424  12.095 -0.2302  0.1087 -0.0297
15432W        W30901  11.864   7.332  12.859 -0.1820  0.1095 -0.1272
15433W        W30902  12.982   9.841   1.906  0.1804 -0.2929  0.0168
15434W        W30903  18.305   8.059   3.101  0.0612 -0.2198 -0.4890
15435W        W30904   9.177  13.054  11.550 -0.3535  0.0861  0.1037
15436W        W30905  18.467   7.995  13.056  0.2980 -0.4463  0.0266
15437W        W30906   2.298   4.906  11.649  0.1828 -0.1713 -0.0941
15438W        W30907  16.864   9.843   1.483  0.2251 -0.1139 -0.0807
15439W        W30908   0.667  11.043   1.630 -0.1277  0.1125 -0.1903
15440W        W30909   9.848  13.378  13.343 -0.4095 -0.0756 -0.3585
15441W        W30910  12.133   2.722  10.486  0.0215 -0.1605  0.0846
15442W        W30911   1.200   7.693   1.676 -0.1319 -0.1727 -0.0029
15443W        W30912   9.982   8.159   3.521 -0.1068 -0.2333 -0.0400
15444W        W30913   1.475   0.855  10.785  0.1426 -0.0402  0.1608
15445W        W30914  13.423  15.951  13.443 -0.1400  0.0914  0.3020
15446W        W30915   1.941   6.478   1.864  0.0965  0.0832 -0.4008
15447W        W30916   8.583   3.738  11.535  0.0285 -0.2989 -0.0673
15448W        W30917  13.811   2.250  14.144 -0.1088  0.1397  0.1562
15449W        W30918  15.424   1.099  15.314 -0.3382 -0.0682  0.1105
15450W        W30919  14.061   3.932   4.422 -0.1974 -0.1203 -0.2499
15451W        W30920   2.352   8.863   3.923  0.1381  0.1206  0.3678
15452W        W30921   2.283   6.591  13.370  0.0104  0.5012  0.1372
15453W        W30922   2.465   4.978   2.275 -0.0627 -0.0883 -0.2173
15454W        W30923   1.953  10.995   0.368  0.0501 -0.0879  0.2681
15455W        W30924  16.218   9.653  10.950 -0.0436  0.0721  0.1559
15456W        W30925   4.834  15.326   2.944  0.0034 -0.0341  0.1734
15457W        W30926  12.757  12.751  13.253  0.2034  0.3065  0.0284
15458W        W30927  15.921  16.635  12.017 -0.2210 -0.1168  0.1426
15459W        W30928  11.847   5.275   5.743  0.2734 -0.0550  0.2752
15460W        W30929  15.391  12.848  12.130  0.1219  0.0829 -0.3520
15461W        W30930   9.659  13.050  10.801 -0.1349  0.3667  0.1832
15462W        W30931  13.059   8.894  13.951 -0.5067  0.3762  0.1864
15463W        W30932   5.498  18.176  13.945 -0.1808  0.2052 -0.0697
15464W        W30933   9.201  14.735  14.492 -0.0112  0.1357  0.0564
15465W        W30934   3.455  13.263  13.686 -0.0661 -0.1860 -0.0198
15466W        W30935   9.777   1.493  13.301  0.1637  0.2014  0.0421
15467W        W30936  15.486  18.672  13.831  0.0763  0.0646  0.1618
15468W        W30937  15.806   2.772  15.407  0.0741 -0.0762  0.1152
15469W        W30938  13.874   6.046  12.350 -0.0983  0.1818 -0.0042
15470W        W30939   1.667   7.582   3.917  0.2624 -0.1889 -0.2455
15471W        W30940   8.440  12.172   1.272 -0.1724  0.0376  0.1311
15472W        W30941   5.390   2.696   0.299  0.1980  0.0476  0.1765
15473W        W30942  15.797   1.020  11.769 -0.0572 -0.2533 -0.3927
15474W        W30943   9.258  17.651   3.143  0.0374  0.2697  0.1458
15475W        W30944  15.699  18.029   3.285 -0.0763  0.0274 -0.0619
15476W        W30945  14.707  12.007  15.197  0.1278 -0.0342 -0.2009
15477W        W30946   4.187   5.988   3.750  0.1015  0.2489  0.1756
15478W        W30947   6.536   3.264   0.471 -0.1349  0.0414  0.0688
15479W        W30948  18.066  14.416   4.123 -0.1534 -0.1244  0.0210
15480W        W30949  15.707   1.798  11.099  0.1373 -0.2556  0.3090
15481W        W30950   1.003   1.955  13.303  0.1235  0.0343  0.1048
15482W        W30951   3.735  11.810  14.314  0.1860 -0.0611  0.2018
15483W        W30952   0.680  10.555  12.697 -0.2165  0.0621 -0.0789
15484W        W30953  10.461   5.110   5.200 -0.0118 -0.1819  0.2302
15485W        W30954  12.233  14.499  11.983 -0.1277 -0.0102 -0.1842
15486W        W30955  16.034   0.756  10.995 -0.3028  0.0030  0.0434
15487W        W30956  16.712  15.849   3.378 -0.5137  0.0057 -0.2195
15488W        W30957  12.298  14.765  14.289 -0.1056  0.2688 -0.0602
15489W        W30958  11.491   1.880  10.995  0.1417  0.0364  0.1276
15490W        W30959  15.885  12.783  14.645 -0.0749  0.4952 -0.0818
15491W        W30960   1.437  10.358   3.840 -0.2760 -0.0372 -0.4062
15492W        W30961   3.381   1.395   4.737  0.4152  0.0846  0.1323
15493W        W30962  11.826  15.761   0.478  0.4521  0.1106 -0.0430
15494W        W30963  13.595   0.565   4.567 -0.3759 -0.2176 -0.1563
15495W        W30964  15.063  15.253  14.143  0.1120 -0.3888 -0.0245
15496W        W30965  15.794   8.202   1.405  0.1894  0.1233 -0.1118
15497W        W30966   3.556   2.020  12.686 -0.0009  0.0830  0.0662
15498W        W30967  12.823   8.174  15.475  0.0275  0.1652  0.1315
15499W        W30968  17.005  11.785   4.506 -0.1628 -0.1066 -0.0028
15500W        W30969  16.639  12.181   0.329 -0.0259 -0.0170  0.0649
15501W        W30970   0.583   9.482   0.881  0.1895  0.0148  0.0709
15502W        W30971  10.376   7.911   0.164  0.1909 -0.4385 -0.0677
15503W        W30972   5.402  18.041   5.342  0.1978 -0.2435  0.1273
15504W        W30973   1.236   5.935   2.265  0.0369 -0.3740  0.0488
15505W        W30974   9.046   7.908   2.546  0.2103 -0.3049 -0.3931
15506W        W30975  16.443  15.427   3.101 -0.0341  0.2104  0.0792
15507W        W30976   9.758   3.446  10.985 -0.0750 -0.2885 -0.1877
15508W        W30977  15.496  10.194  12.496 -0.0485 -0.0861 -0.1805
15509W        W30978  13.143   1.833   0.303  0.0615 -0.2702 -0.0068
15510W        W30979   2.722   2.483   3.456  0.1734  0.3786 -0.0583
15511W        W30980   2.564   7.620   2.237 -0.0897 -0.0994  0.0101
15512W        W30981   7.890  14.699  11.922 -0.1410 -0.2532 -0.2200
15513W        W30982  12.399  17.481   0.869  0.0780 -0.2964 -0.0944
15514W        W30983   3.035   9.186  14.098 -0.1601 -0.1668 -0.1125
15515W        W30984   4.971  16.491  11.311 -0.1029 -0.0287 -0.2404
15516W        W30985   2.594  17.375   2.193  0.1010  0.0563 -0.2594
15517W        W30986   6.123  10.011   2.713 -0.0798  0.6371  0.0936
15518W        W30987   5.371   5.876   3.648 -0.2116 -0.0817  0.0888
15519W        W30988   3.472   0.435   4.053  0.1970  0.0571 -0.0315
15520W        W30989   8.575   1.780  11.033  0.0247  0.1774 -0.0281
15521W        W30990   7.204  17.986   1.927  0.0371  0.1594  0.0065
15522W        W30991  14.750  15.618   1.351  0.1031 -0.2161  0.0194
15523W        W30992  17.321   3.505   3.859  0.3495  0.3378 -0.1807
15524W        W30993  11.604   8.601   1.419  0.1333 -0.3785 -0.0307
15525W        W30994  13.450  12.454  13.862 -0.1347 -0.4871 -0.0044
15526W        W30995   7.795  17.871  10.796  0.2052  0.0247  0.5142
15527W        W30996   8.719  17.890   0.039  0.3277 -0.2125  0.1815
15528W        W30997   7.988   4.253   4.876 -0.0115 -0.0137 -0.2399
15529W        W30998   1.599  15.632   5.803 -0.1991 -0.1460  0.1055
15530W        W30999   0.612   1.405   1.977 -0.1054  0.1525 -0.2807
15531W        W31000   7.035  15.699   1.723  0.1177  0.2849 -0.1903
15532W        W31001  12.780  15.600   1.367  0.1676  0.0519  0.2416
15533W        W31002  14.298   6.854  14.906  0.2324  0.0435 -0.2443
15534W        W31003  11.680   2.637   0.441 -0.1571  0.0986  0.1450
15535W        W31004   9.885   3.678   4.100 -0.4046  0.0164  0.1737
15536W        W31005  13.344   4.527  14.002  0.2004 -0.0037 -0.1234
15537W        W31006  14.476  18.925  12.991  0.2994  0.0030 -0.0255
15538W        W31007  10.814  12.430  15.265 -0.2059 -0.3651 -0.0165
15539W        W31008   0.728  14.242   4.885  0.3327 -0.1631 -0.0633
15540W        W31009  18.768  17.938   3.372  0.2434  0.4433 -0.1550
15541W        W31010   9.028   7.864   3.046 -0.2119  0.0651  0.1522
15542W        W31011   6.877   2.826   1.251  0.2124 -0.1071  0.1468
15543W        W31012   7.100  11.924  14.121  0.0437  0.2129 -0.0655
15544W        W31013  15.706  17.313   5.154  0.1668  0.3046  0.1523
15545W        W31014   1.849   2.511   1.180  0.0974 -0.2514  0.2369
15546W        W31015  18.459   6.553  12.498 -0.2610  0.1128 -0.2401
15547W        W31016   1.384  15.514   2.709  0.3699 -0.3503 -0.0244
15548W        W31017  16.935   0.950   3.229 -0.1923 -0.1515 -0.0737
15549W        W31018  15.348   1.902  11.491  0.1890 -0.3164 -0.1009
15550W        W31019   0.369  13.787   1.204  0.0046  0.0132 -0.2761
15551W        W31020   4.328   2.476   4.496 -0.0329 -0.1469 -0.0275
15552W        W31021   4.654   3.653   5.864 -0.3337  0.0212 -0.1329
15553W        W31022  10.222   4.099   4.365 -0.3466 -0.0764 -0.0990
15554W        W31023   8.815  16.800   3.968 -0.0874 -0.2615  0.3513
15555W        W31024  12.644   9.186   4.081 -0.0878 -0.0738 -0.4287
15556W        W31025  12.066   4.353  14.574 -0.2066  0.2274 -0.2555
15557W        W31026   2.094   7.123  13.532 -0.1895 -0.1061 -0.0308
15558W        W31027  17.304   6.230   0.242  0.4321  0.0822 -0.2535
15559W        W31028   3.012  17.597  12.247  0.0436  0.1606  0.1053
15560W        W31029  13.368  18.600  13.410 -0.0707  0.1089 -0.1772
15561W        W31030  15.700   0.505   0.981 -0.0911  0.1248 -0.1050
15562W        W31031  15.112   1.450   1.522  0.0705 -0.0886  0.1963
15563W        W31032  10.435  14.246  13.295  0.1042  0.1023  0.0305
15564W        W31033   1.291   3.614   3.165  0.1196 -0.0840  0.0299
15565W        W31034  18.138   2.529   1.937 -0.2007 -0.1229 -0.1358
15566W        W31035  15.145  13.769  14.663  0.3330  0.0560 -0.0789
15567W        W31036   7.618   3.452  14.297  0.0598 -0.1252  0.3466
15568W        W31037   7.672  18.501   3.121 -0.2754 -0.1160 -0.0964
15569W        W31038   9.875  10.808  11.037 -0.2274  0.2157 -0.0527
15570W        W31039   1.019  15.903  13.602  0.3554  0.0564  0.0495
15571W        W31040  16.592  14.312   0.990 -0.2105 -0.1613  0.0120
15572W        W31041  13.657  10.060   1.154  0.1491 -0.0414  0.1172
15573W        W31042  13.486  10.241   0.252  0.1644 -0.3780  0.0856
15574W        W31043   3.041  17.943  11.364 -0.0140  0.3928  0.4289
15575W        W31044  10.972   7.283  13.729 -0.1110  0.1248  0.0531
15576W        W31045  10.528  14.306   6.585  0.0769 -0.1013  0.1885
15577W        W31046   3.523   3.600  11.474  0.1046 -0.1018 -0.4534
15578W        W31047  11.956  13.569  13.975 -0.1567 -0.2509  0.2280
15579W        W31048  16.729  10.410  10.872 -0.0964  0.2228 -0.0988
15580W        W31049   0.850   2.145  12.820 -0.0020 -0.0951  0.2130
15581W        W31050   1.010   1.716   2.473 -0.0064  0.0576  0.2310
15582W        W31051  12.553  17.780  14.787 -0.0706  0.0447 -0.0503
15583W        W31052  16.583  18.469   1.426 -0.1513  0.2778  0.1859
15584W        W31053  16.387  17.935   1.684 -0.0465 -0.0285 -0.0772
15585W        W31054   7.334  15.197   1.414 -0.0263 -0.0001 -0.1662
15586W        W31055   0.065  14.999  11.853 -0.2660 -0.3010 -0.2373
15587W        W31056  11.712   8.953  11.386  0.0826  0.1748  0.0311
15588W        W31057   7.500  17.882  13.533  0.4102  0.0236  0.4034
15589W        W31058  11.765   7.742   3.434 -0.0758 -0.0734 -0.0915
15590W        W31059   0.457   2.540  15.444  0.0230  0.2158  0.0163
15591W        W31060   6.108  10.741  13.194  0.0820  0.0572 -0.1891
15592W        W31061   7.398  13.032  11.795 -0.1441 -0.2607 -0.1003
15593W        W31062  13.819   8.777   4.491 -0.0331  0.2183 -0.0989
15594W        W31063  11.479   1.003  13.105 -0.2857  0.1543 -0.2077
15595W        W31064  13.071  10.215   3.340 -0.2059  0.5254  0.0632
15596W        W31065  12.323   4.514   0.804 -0.0359 -0.2231 -0.0698
15597W        W31066   4.858  18.269  12.475 -0.1635  0.0586 -0.2335
15598W        W31067  16.292  16.929   0.826  0.2707  0.3044 -0.2962
15599W        W31068  15.056  12.922  10.941 -0.1510  0.0249  0.1353
15600W        W31069   8.825   2.491  10.645  0.1811  0.0565  0.1117
15601W        W31070   9.906   5.440  13.182 -0.1857  0.0904  0.0945
15602W        W31071  13.703  17.576   1.207 -0.0657  0.1864 -0.0049
15603W        W31072   8.888  18.521  11.908  0.2773 -0.2457  0.0770
15604W        W31073   6.575   8.421   4.307  0.0792 -0.1347  0.0758
15605W        W31074   4.980   4.775  12.548 -0.1968  0.1344  0.1500
15606W        W31075  12.232   2.539  13.269  0.2660 -0.2369  0.3870
15607W        W31076  17.253   9.743   3.395 -0.1878 -0.0777 -0.0826
15608W        W31077   6.524  15.487  13.031 -0.0348 -0.0396 -0.1578
15609W        W31078  15.735   9.966  10.958 -0.0330 -0.0502 -0.3378
15610W        W31079   3.616  15.850   1.942  0.6003  0.2211  0.0968
15611W        W31080  16.755   2.381  13.973  0.2335  0.0586 -0.2118
15612W        W31081  11.554   4.982  14.734 -0.1624 -0.2191  0.1322
15613W        W31082  11.638  15.118  13.328 -0.2460 -0.2710  0.0527
15614W        W31083   8.169   2.621  11.291 -0.1667  0.1082 -0.0103
15615W        W31084  10.871  11.134  14.598 -0.1106 -0.0760 -0.2818
15616W        W31085  14.419  14.825  13.668  0.4803  0.5770  0.1985
15617W        W31086  10.356  18.067   4.709 -0.2644 -0.2603  0.0130
15618W        W31087   3.361  15.331  11.930  0.1034  0.0011 -0.0045
15619W        W31088  12.394   4.768  15.381 -0.1891  0.1006  0.2849
15620W        W31089  11.524  12.059   3.863 -0.1411 -0.1150  0.2384
15621W        W31090   2.724   5.205   1.435 -0.1801  0.1197  0.1124
15622W        W31091  14.755   6.921  11.520 -0.2713 -0.1725 -0.0418
15623W        W31092   6.364   7.788  14.141 -0.1511 -0.1222  0.2029
15624W        W31093   8.995   9.081  11.480 -0.1544  0.1939 -0.0634
15625W        W31094  14.860  16.103   1.679  0.0356 -0.1909  0.1854
15626W        W31095  13.763   4.101  14.799  0.1078 -0.1018  0.5320
15627W        W31096  16.793  18.258   2.525  0.1004  0.2791  0.0777
15628W        W31097  12.157  12.690   1.866  0.1889 -0.1832 -0.0908
15629W        W31098   4.464   0.239   2.680 -0.0099 -0.1964 -0.0063
15630W        W31099   9.384   6.951  12.507  0.0936  0.0413 -0.2495
15631W        W31100   4.971  14.698  12.049 -0.2157 -0.1569  0.2685
15632W        W31101  18.887  12.242  13.657  0.0399 -0.0198 -0.1295
15633W        W31102   5.727   5.185  15.145 -0.2325 -0.0562  0.0462
15634W        W31103   7.741  14.275   1.855 -0.5065  0.1124  0.3135
15635W        W31104   4.492   7.352  12.215 -0.1740 -0.1053  0.4998
15636W        W31105   2.305  11.429  10.529  0.0260  0.0422  0.0739
15637W        W31106  14.008   6.698   2.621 -0.1847  0.1115  0.0637
15638W        W31107   0.342  11.008  11.611  0.3133  0.1171 -0.0924
15639W        W31108   2.761   0.419   4.554  0.1014 -0.0854 -0.2066
15640W        W31109  11.513  15.942  12.048  0.0581  0.1539 -0.2330
15641W        W31110  13.079  12.569  14.257  0.0460 -0.2131  0.1336
15642W        W31111   3.037  16.885   9.811 -0.2095  0.1150  0.2608
15643W        W31112   7.979   3.854   3.223 -0.0787  0.2419 -0.1288
15644W        W31113   5.197   0.748   0.402  0.0164  0.0574  0.0850
15645W        W31114  11.421   9.549   3.831  0.4494  0.2069  0.1281
15646W        W31115  17.696  18.023   3.390  0.2110  0.0031 -0.1773
15647W        W31116   8.788   4.205   1.314  0.5969  0.1947  0.0235
15648W        W31117   7.685  16.351   4.980  0.0220  0.2781 -0.1808
15649W        W31118   6.476  18.088  14.725  0.1772  0.0293 -0.0396
15650W        W31119   1.948  12.821  12.939 -0.0998  0.1414  0.0411
15651W        W31120   1.040  12.887  10.211  0.3240  0.0442  0.0549
15652W        W31121  16.070  10.066  14.035 -0.2285 -0.2274 -0.2320
15653W        W31122   4.485   4.864  12.011 -0.0779 -0.1112  0.4895
15654W        W31123  17.699  18.942  11.273  0.0535 -0.0444  0.0619
15655W        W31124   1.301   0.509   2.877  0.1794 -0.1093 -0.2877
15656W        W31125   9.916   5.542   0.203  0.1186  0.1696  0.2296
15657W        W31126   2.753   1.776   5.598  0.0553  0.0073  0.0426
15658W        W31127   1.640   7.233  15.183  0.1479 -0.0018 -0.2217
15659W        W31128   0.391   3.794   0.511  0.1238  0.0280 -0.2527
15660W        W31129  12.235   5.063   2.864  0.3616 -0.0434  0.1608
15661W        W31130  12.166  13.467   2.654  0.0382 -0.0765  0.1608
15662W        W31131   2.750   6.087   9.834 -0.0974  0.0127 -0.1215
15663W        W31132   7.454  10.007   0.963 -0.0823  0.2492  0.0983
15664W        W31133   2.245   1.192  10.227  0.2081  0.1005 -0.2381
15665W        W31134  16.450   7.988  12.196 -0.3760  0.0937 -0.0264
15666W        W31135  14.319  11.840   4.739 -0.1226 -0.0418 -0.1013
15667W        W31136   5.843   3.149   4.971 -0.1437 -0.1020 -0.3334
15668W        W31137  16.497  11.894  15.159 -0.0338  0.0519  0.2206
15669W        W31138   3.939  14.686   4.700 -0.2451 -0.0176  0.3208
15670W        W31139   1.224   3.484   5.120 -0.1161  0.1573  0.0627
15671W        W31140  10.992   9.197   0.148  0.1237 -0.4474  0.0121
15672W        W31141   7.432   9.013  13.902 -0.2613 -0.1824 -0.1070
15673W        W31142  12.436   2.125  14.104  0.1028 -0.0696 -0.1855
15674W        W31143  10.962   9.801   3.430  0.2076  0.3463  0.3412
15675W        W31144   5.278  17.794   0.611 -0.2033 -0.0118  0.0495
15676W        W31145  17.406  10.312  14.555 -0.1394 -0.2887  0.1763
15677W        W31146   2.585   4.791  13.630  0.1217  0.2832  0.0060
15678W        W31147   9.296  13.346  13.248  0.3271  0.3659 -0.4063
15679W        W31148  12.855   7.672  13.039  0.2885 -0.4596 -0.1920
15680W        W31149  10.469  11.490  14.837  0.2041 -0.0539 -0.4624
15681W        W31150  11.838  14.713   2.683 -0.3090  0.0352 -0.3509
15682W        W31151   3.592   0.925   2.250  0.0429 -0.0506 -0.0323
15683W        W31152   9.713   4.219   3.853  0.2074  0.2689 -0.2081
15684W        W31153  11.507   0.588   1.009  0.1454 -0.1404  0.1710
15685W        W31154  15.402   1.892  14.569 -0.1436  0.0692 -0.2761
15686W        W31155   9.922   3.495   3.621  0.1247 -0.2570 -0.2811
15687W        W31156   8.896   5.041  14.132 -0.1427  0.2364 -0.1357
15688W        W31157  12.672   6.297   1.038  0.1577  0.0507  0.1123
15689W        W31158  16.159   2.531   2.513  0.2786 -0.2343  0.0056
15690W        W31159   6.705   8.856  11.633  0.0623 -0.2284  0.1499
15691W        W31160  13.072  18.827   1.023 -0.2349 -0.0579  0.1313
15692W        W31161  10.992   2.554   3.253 -0.2337  0.2289  0.0153
15693W        W31162   4.298  16.690   3.928  0.0784 -0.2039 -0.0461
15694W        W31163  12.568  18.941   1.275  0.0693 -0.3154 -0.0749
15695W        W31164  18.192  12.269   0.556 -0.0571 -0.0854 -0.2309
15696W        W31165  18.487  15.986   5.195 -0.0200  0.2127 -0.0878
15697W        W31166   8.431   9.845   3.961 -0.1487  0.1664  0.1186
15698W        W31167   3.313   0.143   2.502  0.0696  0.3249  0.1957
15699W        W31168  11.708  16.615  15.414  0.1582  0.0002  0.0970
15700W        W31169  10.803   4.722   0.455  0.0570 -0.2765  0.1491
15701W        W31170  11.969   1.671  15.138 -0.1469 -0.0706  0.2771
15702W        W31171  12.417  17.970   0.512  0.3547  0.1940 -0.4629
15703W        W31172   8.965  10.334   2.888 -0.0656  0.4257  0.2833
15704W        W31173  12.629   5.624  10.530  0.0705 -0.1711  0.0581
15705W        W31174  11.572   7.472  13.553 -0.1773 -0.1109 -0.0371
15706W        W31175   8.980  17.348   1.566 -0.3433  0.0216  0.1360
15707W        W31176  18.798   3.028  14.782  0.2840 -0.3559 -0.1279
15708W        W31177   4.211   8.333  14.467 -0.1181  0.1898 -0.2354
15709W        W31178  14.960   1.460  14.396 -0.0306 -0.1696  0.1551
15710W        W31179   6.075   2.461  10.702  0.0295  0.0808  0.0239
15711W        W31180  13.717   3.061   0.810 -0.2649 -0.0979 -0.1877
15712W        W31181  14.003   1.829   2.774 -0.1575  0.1933  0.1208
15713W        W31182   6.355  12.355   1.191  0.0442  0.0107  0.3414
15714W        W31183   0.616  18.576   0.113 -0.2252 -0.2428  0.1447
15715W        W31184  13.478  16.597   0.511  0.1575 -0.2855 -0.0383
15716W        W31185  10.222   2.376   4.377 -0.2346 -0.0312  0.1376
15717W        W31186  14.534  10.498  10.126  0.1149 -0.1493  0.2250
15718W        W31187  17.287   6.480   5.843 -0.0007  0.2725 -0.0650
15719W        W31188  11.653  16.726   4.052 -0.4772 -0.2517 -0.1904
15720W        W31189  16.264   8.203  14.007  0.2641 -0.1004 -0.0614
15721W        W31190   2.602   4.054  12.314  0.2853  0.4385 -0.1924
15722W        W31191  10.680   9.134   4.073 -0.0755 -0.0424  0.2382
15723W        W31192  12.994  18.384   3.908 -0.0843  0.1011  0.1580
15724W        W31193  15.230  16.393  11.017 -0.0180  0.2009 -0.1481
15725W        W31194  11.296  11.213  12.171 -0.1521  0.0055  0.0286
15726W        W31195  12.157  10.882  13.606 -0.1674  0.1395  0.0622
15727W        W31196  16.526   0.955  12.271 -0.1571 -0.1393 -0.3080
15728W        W31197  16.886   4.002  13.953  0.1973  0.0001 -0.4198
15729W        W31198  15.181   6.389   4.751  0.1601  0.1265  0.1189
15730W        W31199  17.678   7.370   0.977 -0.1975  0.1294 -0.2344
15731W        W31200  14.654   8.415  13.160  0.2692  0.0875  0.1418
15732W        W31201  12.864   7.026   0.343 -0.2623  0.0903 -0.1696
15733W        W31202  15.035  12.100  11.121 -0.1507  0.0240 -0.3590
15734W        W31203   0.440   0.933   1.933 -0.2133 -0.1989  0.1952
15735W        W31204  13.483   5.829  15.359  0.0443 -0.0911 -0.0442
15736W        W31205  17.140  15.559   4.234 -0.1604  0.3181  0.1711
15737W        W31206  16.006  13.307   4.443  0.0252  0.0104 -0.1197
15738W        W31207  10.582   9.754   1.929  0.0566  0.0936  0.0624
15739W        W31208  17.293   6.892   3.096  0.2233 -0.2114  0.1322
15740W        W31209   1.351   7.224  14.524 -0.2514 -0.1964  0.2141
15741W        W31210  14.640   7.191  10.068  0.0199 -0.0674  0.0523
15742W        W31211  16.820   5.237  14.644  0.1804 -0.0913 -0.2830
15743W        W31212  12.597  13.463  11.709 -0.2354  0.0993 -0.0519
15744W        W31213  11.164   8.076  10.055  0.0227 -0.0012 -0.0833
15745W        W31214  14.435  10.665  14.930 -0.4542 -0.1090 -0.0195
15746W        W31215   2.884  12.344  11.810 -0.1094  0.1933  0.0444
15747W        W31216  17.252   1.278   0.742  0.1633 -0.3649 -0.0283
15748W        W31217   1.494   4.965  11.538  0.0715  0.4081  0.2215
15749W        W31218  17.415   0.423  11.194 -0.2915 -0.0701 -0.1516
15750W        W31219  14.751   3.371  14.218 -0.0416 -0.0890  0.0053
15751W        W31220  16.225   6.961   1.305  0.0057 -0.1364  0.1086
15752W        W31221   0.926   7.054   0.327 -0.1723 -0.3297  0.2790
15753W        W31222  17.432  17.911   5.455  0.1845 -0.4940 -0.1630
15754W        W31223   2.523  12.110   0.727 -0.0472  0.2708  0.2069
15755W        W31224  11.090   0.807  12.274  0.0783 -0.3281  0.3415
15756W        W31225   3.369  17.217   1.445 -0.1528 -0.1368 -0.0619
15757W        W31226  15.855  14.544  11.352  0.3465  0.2981  0.1512
15758W        W31227   4.502   7.858   0.598 -0.0571  0.1194 -0.0722
15759W        W31228   3.830   0.484  11.365  0.0431 -0.1820 -0.0721
15760W        W31229  17.281   8.289   1.411  0.2408 -0.1264  0.3917
15761W        W31230   0.922  12.610   3.659 -0.0538 -0.1803  0.0105
15762W        W31231  10.092  11.651   5.019 -0.2050 -0.1596  0.0322
15763W        W31232   3.964  10.790   5.628 -0.2156  0.0654 -0.0952
15764W        W31233   8.393  12.091  15.173  0.2245 -0.0430  0.2516
15765W        W31234  18.708  13.886  12.571  0.2881 -0.3277 -0.2519
15766W        W31235   6.871  18.046  12.288 -0.0806 -0.3484  0.1585
15767W        W31236  10.125   7.399   9.517  0.3450 -0.1452 -0.0894
15768W        W31237   4.171   0.337   2.045 -0.0168 -0.0651 -0.1782
15769W        W31238   5.247  10.558  14.994 -0.0958  0.0521  0.1353
15770W        W31239  17.493  12.436  12.966 -0.2931  0.0235  0.0304
15771W        W31240  11.498  16.576   5.444  0.1058  0.2738  0.5210
15772W        W31241   3.235  12.944  10.604 -0.1735  0.0790  0.0360
15773W        W31242  14.763  17.937  10.645  0.0432  0.4116 -0.0223
15774W        W31243   5.761   9.706   0.486  0.1373 -0.1628  0.2435
15775W        W31244   0.759   8.509   0.656  0.1630  0.1813 -0.6032
15776W        W31245  12.514  12.198  12.203  0.3541  0.0042  0.2044
15777W        W31246  12.051   3.014   0.365  0.0972 -0.1899  0.0406
15778W        W31247  18.919   8.711   5.003 -0.0933  0.1350  0.3114
15779W        W31248   0.302   5.408   0.210 -0.1376  0.2266  0.0656
15780W        W31249   7.369  11.896  12.706  0.1018 -0.1611  0.1537
15781W        W31250   8.467   2.751  14.041  0.1025 -0.0667 -0.0710
15782W        W31251  18.780  13.973   0.614 -0.0865 -0.2450 -0.1385
15783W        W31252  14.722   7.838   2.414  0.1802 -0.0927  0.0174
15784W        W31253   9.160  12.373   1.793  0.1157  0.0204 -0.3055
15785W        W31254  10.626   0.167   0.412 -0.0982  0.1143  0.3603
15786W        W31255  15.701   5.860   0.913  0.0826  0.3233  0.3164
15787W        W31256   7.601  11.637  12.032 -0.1863  0.0447  0.1031
15788W        W31257   2.800   1.052  15.209  0.0731 -0.0612 -0.1629
15789W        W31258   1.731   8.621   2.275  0.0869 -0.0200 -0.1371
15790W        W31259   0.382   0.544  10.644  0.1899  0.4641  0.0463
15791W        W31260  10.661  14.859  12.104 -0.2036  0.1368  0.0617
15792W        W31261   0.067  18.320   1.122 -0.0533  0.0616  0.1205
15793W        W31262  11.151  10.334  15.369  0.0856  0.0888  0.1818
15794W        W31263  13.733  16.109  11.238  0.0326  0.1197 -0.2051
15795W        W31264  14.744  17.655  13.137 -0.2433 -0.1392 -0.0306
15796W        W31265  18.494   1.998   3.298 -0.2892  0.0102  0.0746
15797W        W31266  18.918  16.956   1.470 -0.2278 -0.0083  0.0963
15798W        W31267   1.325  18.499   0.797 -0.1105  0.1094 -0.3274
15799W        W31268   5.262  12.430   4.957  0.3108  0.2992 -0.1029
15800W        W31269   4.214   4.962  12.429 -0.1127  0.6042 -0.1257
15801W        W31270  17.067   9.328   1.605  0.0085 -0.0726 -0.2448
15802W        W31271  14.937   3.969   4.899  0.0557 -0.1144  0.0863
15803W        W31272   0.578  12.484  14.818 -0.3580  0.0217 -0.1356
15804W        W31273  15.143   7.207   3.627  0.1807 -0.0677  0.0827
15805W        W31274  16.684   1.987  11.041 -0.0864  0.1664  0.2181
15806W        W31275  17.459  17.614   6.155  0.0744  0.0631 -0.0247
15807W        W31276   6.991  10.746   2.631 -0.3277 -0.1966 -0.2855
15808W        W31277   0.499   6.326  13.347 -0.0005 -0.2700  0.1376
15809W        W31278   1.949   6.807   5.978 -0.1822 -0.4204 -0.2653
15810W        W31279  10.909  12.467   0.226 -0.0510 -0.1297  0.2917
15811W        W31280  11.118  14.999  14.549 -0.1761 -0.0149 -0.0168
15812W        W31281   9.560  13.773  13.077  0.2198  0.1716 -0.0394
15813W        W31282  11.232  10.981   3.289 -0.1944 -0.1486 -0.0957
15814W        W31283  18.784  16.099   3.806 -0.1216  0.0180  0.2801
15815W        W31284  12.021   7.862  10.319  0.0079  0.2532  0.0336
15816W        W31285  14.562   2.751  10.313 -0.0554 -0.0513 -0.1710
15817W        W31286  13.764   1.288  12.467  0.0121 -0.3577  0.0788
15818W        W31287   8.197   3.561   0.332  0.3890  0.3095  0.1220
15819W        W31288  18.441  17.609   3.642  0.0151  0.4230 -0.0195
15820W        W31289  13.810   9.875   0.064 -0.4407 -0.3956 -0.0422
15821W        W31290  18.063   4.064  10.664 -0.1907  0.0315 -0.0316
15822W        W31291  13.259   9.103   0.189 -0.2271 -0.0610  0.1910
15823W        W31292   9.822  14.495   2.051 -0.1417 -0.0098  0.0833
15824W        W31293   5.476   9.258  11.837 -0.1709  0.4089 -0.0800
15825W        W31294   5.163  11.146   4.928  0.2744 -0.1018  0.1335
15826W        W31295  16.779  16.219  14.955 -0.1647 -0.0797  0.1510
15827W        W31296   7.432   8.537  13.432 -0.1468  0.2950  0.1292
15828W        W31297   8.225  16.278   1.169 -0.1279  0.3219 -0.3156
15829W        W31298  11.535   0.358  11.751  0.1840  0.1826  0.0366
15830W        W31299   3.274   0.888  15.115  0.1377 -0.5283 -0.0215
15831W        W31300   9.989  10.580  11.894 -0.0283  0.1980  0.1210
15832W        W31301   7.432   5.552  10.829 -0.3166  0.1386  0.1793
15833W        W31302  10.004   7.335   2.603  0.1626  0.0902  0.3192
15834W        W31303  12.578   5.290   1.213  0.2529 -0.1610  0.2797
15835W        W31304   2.113   4.704  11.248  0.0115  0.5871 -0.0051
15836W        W31305   8.176   1.364   0.947  0.0506  0.0170 -0.0269
15837W        W31306   3.924   9.307   4.537 -0.0540  0.0180  0.3909
15838W        W31307  16.788   1.056   2.763 -0.1864 -0.3416 -0.0781
15839W        W31308  15.804  12.106  10.473 -0.0966  0.3069 -0.0024
15840W        W31309  11.600  10.385   6.026 -0.0848  0.0921  0.3525
15841W        W31310  15.199   5.860  14.272  0.0234 -0.1451 -0.1111
15842W        W31311   8.636   2.882   0.822  0.1622  0.1352 -0.2637
15843W        W31312  16.076  18.282   0.720 -0.0924 -0.1446 -0.0524
15844W        W31313  18.401  14.482  12.431  0.0742 -0.1975  0.1498
15845W        W31314  12.518  13.463   2.140 -0.1844  0.1419 -0.0261
15846W        W31315  14.244  15.249   4.580 -0.3619 -0.1549 -0.2315
15847W        W31316   2.260   2.970   0.764  0.3930  0.3998 -0.1226
15848W        W31317   5.011  17.984   5.632 -0.2445  0.0834 -0.0995
15849W        W31318  17.209  12.103   2.412 -0.0487 -0.1221 -0.2656
15850W        W31319  14.362  17.788   2.939  0.1063 -0.0501  0.1577
15851W        W31320   0.677   2.703   3.509 -0.1263 -0.1651 -0.1455
15852W        W31321  18.216  14.374   0.564  0.0501 -0.1601  0.1640
15853W        W31322  10.645  17.657   3.870 -0.2338 -0.0067  0.1265
15854W        W31323   1.860   4.570   2.583 -0.1167  0.1253 -0.3196
15855W        W31324  10.455   5.506  10.823 -0.1457 -0.1950 -0.0562
15856W        W31325   0.722   1.922   4.043  0.1148 -0.1124  0.1327
15857W        W31326  13.102   0.263  14.763 -0.0900  0.1266 -0.3644
15858W        W31327  12.614   0.088   6.163 -0.1203  0.1263 -0.2050
15859W        W31328  11.969   9.735   4.473  0.1024 -0.0068 -0.0354
15860W        W31329   0.165  11.278   0.961  0.4644  0.0107 -0.1851
15861W        W31330   9.798   0.843  11.992  0.3376  0.1136  0.1113
15862W        W31331   7.969   9.630  14.169  0.1688  0.0273  0.2649
15863W        W31332  10.219   4.144  11.792 -0.0654  0.2958  0.0771
15864W        W31333   8.778  10.185   0.273 -0.1466 -0.1306 -0.1022
15865W        W31334  18.705   7.906   1.258 -0.2073  0.0648  0.0511
15866W        W31335   9.896   8.002  10.961  0.0405  0.2836 -0.1976
15867W        W31336  13.596  15.723  14.290  0.0193 -0.2688  0.1363
15868W        W31337   4.824  10.739   1.578 -0.0471  0.0614  0.2956
15869W        W31338   4.398  12.943   5.131 -0.1245  0.1934 -0.1340
15870W        W31339   2.463  14.210  11.398  0.1044  0.1847  0.3422
15871W        W31340   1.323   2.175  12.601  0.0662 -0.0446  0.2514
15872W        W31341  16.094  17.144   3.942  0.1118 -0.2337  0.0918
15873W        W31342   5.854  10.255   3.575  0.3159 -0.2850  0.3631
15874W        W31343  12.287   6.986  14.160 -0.0580 -0.1089  0.1104
15875W        W31344   5.387   0.139  12.936  0.3673 -0.1806 -0.0938
15876W        W31345  10.903  17.150   4.633  0.0084 -0.0362  0.0622
15877W        W31346   6.032  10.824  14.989 -0.1443  0.0440 -0.2735
15878W        W31347  17.009   3.474   2.351  0.1207  0.0911 -0.0007
15879W        W31348   1.382  14.330   3.615 -0.1359 -0.3585 -0.1575
15880W        W31349   6.868   7.813  14.480 -0.0602  0.0749 -0.0642
15881W        W31350   0.134   2.470   3.776 -0.0007  0.0576 -0.1020
15882W        W31351  13.898   1.617   1.649 -0.2488  0.0928 -0.0467
15883W        W31352   1.877   1.986   5.270  0.0553  0.0747  0.1109
15884W        W31353  18.753  16.397   3.179 -0.1506  0.1136 -0.0418
15885W        W31354   3.223   9.277  12.801 -0.0725  0.0907 -0.2336
15886W        W31355  12.365  13.057  13.337  0.0589 -0.1420  0.0135
15887W        W31356   7.749  18.008  14.200 -0.3414  0.0217  0.5314
15888W        W31357   3.590  13.384   3.002 -0.3244  0.0072 -0.2879
15889W        W31358   4.640   1.845  10.539  0.1167 -0.1985 -0.2010
15890W        W31359  11.184   8.781   5.348  0.0184  0.0874  0.0502
15891W        W31360  12.287   9.264   2.497  0.2304  0.0770  0.1388
15892W        W31361  15.436  18.207  13.603 -0.0073 -0.2670  0.1108
15893W        W31362   8.187  17.387   1.171 -0.0263  0.1739  0.1938
15894W        W31363   6.916  17.536  10.904  0.0847  0.0184 -0.0713
15895W        W31364   9.334  15.973  11.805 -0.1175 -0.2978 -0.2462
15896W        W31365   0.232  13.229   0.772  0.0032  0.3763 -0.3125
15897W        W31366   6.915   7.725  13.199  0.2416 -0.1708  0.2558
15898W        W31367   5.830   2.994   3.756  0.1609 -0.0415 -0.1761
15899W        W31368  15.126   9.349   2.337 -0.0163 -0.0935 -0.0976
15900W        W31369   7.023  18.496  14.080 -0.2952  0.1981  0.3444
15901W        W31370   9.242   3.001   1.041 -0.1686 -0.1356 -0.0485
15902W        W31371   4.007   3.242   5.532 -0.2970 -0.0270 -0.0235
15903W        W31372  12.195   3.198  13.721  0.1228 -0.0409 -0.3696
15904W        W31373   9.210  16.406   4.760  0.4256 -0.1514  0.0952
15905W        W31374  11.461  17.542   0.865  0.0169 -0.1734 -0.3046
15906W        W31375  12.683   6.824  13.942 -0.3061  0.0240  0.2201
15907W        W31376  13.108  11.138   0.997 -0.0931  0.1317  0.0824
15908W        W31377   8.796   4.962  13.613 -0.1242  0.0775  0.3196
15909W        W31378   7.383   1.285  14.306  0.2524 -0.1660  0.0912
15910W        W31379  16.187  16.121   1.917 -0.0658  0.0017  0.1985
15911W        W31380  14.559   4.642   5.128  0.1789 -0.0535 -0.1186
15912W        W31381   2.120  13.342   5.543  0.0299  0.1645 -0.1710
15913W        W31382  17.699   6.710   0.975 -0.1362 -0.1437 -0.2353
15914W        W31383   0.334   9.355  12.515  0.1755 -0.0979 -0.0841
15915W        W31384   0.995   2.658   0.762  0.0492  0.1534  0.1419
15916W        W31385  10.258  18.895  11.828 -0.5956 -0.2186  0.2536
15917W        W31386  10.891  14.018  13.852  0.1416  0.3184 -0.0483
15918W        W31387  10.540  15.034  13.339 -0.1191 -0.4051 -0.1888
15919W        W31388   2.081   2.229  10.929 -0.1975 -0.0812  0.2232
15920W        W31389  11.781  10.330  10.393 -0.3923  0.4843  0.0514
15921W        W31390  11.570   6.382  11.186 -0.1047 -0.0181  0.1468
15922W        W31391   4.275  16.724   2.686 -0.1523  0.0379 -0.0155
15923W        W31392  14.421   2.933   5.201 -0.1673 -0.0028  0.3431
15924W        W31393  15.653   7.137   1.991 -0.2011  0.1904  0.2196
15925W        W31394   6.072   5.025   1.700 -0.1582  0.2010  0.2411
15926W        W31395   9.665   6.237   0.287  0.0639 -0.0919  0.1555
15927W        W31396   5.276  18.864   2.748 -0.2125  0.6508  0.1375
15928W        W31397   8.136  10.889   3.014 -0.0504  0.2052  0.0296
15929W        W31398  10.307   2.572  13.043  0.0048 -0.0287  0.1306
15930W        W31399   0.577   8.151  13.552 -0.2189  0.0774  0.1037
15931W        W31400  17.058   7.705  11.481  0.6531  0.0668  0.2218
15932W        W31401  13.662   3.272  13.143 -0.3201 -0.0361  0.0057
15933W        W31402  14.540   8.056  12.874  0.0442  0.1156 -0.0216
15934W        W31403   6.449  10.209  15.126  0.0252 -0.0790 -0.1272
15935W        W31404  17.012   8.791   3.640 -0.1547  0.1602 -0.3595
15936W        W31405  12.007   5.317   3.244 -0.1068  0.1784 -0.1565
15937W        W31406  12.500   7.260  13.691  0.0742 -0.1866  0.1565
15938W        W31407   6.955   7.448  14.163 -0.1050  0.0377  0.2654
15939W        W31408  11.721  18.295  14.391 -0.0278  0.3502 -0.0436
15940W        W31409   8.546   7.370   4.855 -0.2738  0.1570  0.0444
15941W        W31410   5.282  14.457   2.625  0.2338  0.0790  0.1383
15942W        W31411  10.581  12.011  14.925  0.0728 -0.0888 -0.0951
15943W        W31412   9.593  11.516   4.172 -0.2173 -0.1392  0.1673
15944W        W31413   2.136   8.524  11.383  0.1559  0.2291 -0.0797
15945W        W31414  16.567   5.021  11.829 -0.2330 -0.2294  0.3402
15946W        W31415   1.968   3.193  10.836  0.1490  0.0450  0.1317
15947W        W31416   7.892   6.036   1.478 -0.2238  0.2240  0.1479
15948W        W31417  10.566  17.173   3.720 -0.0779 -0.3686  0.1700
15949W        W31418  13.804   2.946   3.902  0.3054 -0.2358 -0.2390
15950W        W31419   9.924   4.535   2.381  0.0667 -0.1791  0.0316
15951W        W31420   4.621  16.234  15.420 -0.1553 -0.1819 -0.2840
15952W        W31421   0.360  18.186   2.772 -0.0951 -0.3663 -0.1552
15953W        W31422   9.536   5.204  10.271 -0.2733  0.0670  0.0945
15954W        W31423   5.174  15.024   1.482 -0.1705 -0.0912 -0.0274
15955W        W31424  12.185   6.389  12.868  0.4660  0.1819 -0.0025
15956W        W31425   8.626  16.122   4.320  0.0309 -0.0243 -0.0454
15957W        W31426  17.549  12.105   5.164  0.0394  0.1588  0.0163
15958W        W31427  10.433   9.678  11.604  0.3162  0.1311 -0.2474
15959W        W31428   4.127  16.459   3.053  0.1168 -0.1822  0.0813
15960W        W31429   3.875  12.550   4.791  0.1003  0.1254  0.1086
15961W        W31430  16.046   6.102   4.223 -0.3532 -0.1052 -0.4463
15962W        W31431   1.071   0.659   1.386 -0.0813 -0.1959  0.1398
15963W        W31432  14.639   4.673   1.270  0.2440  0.2447  0.2648
15964W        W31433   2.565   5.086  11.249  0.1235  0.1261 -0.0076
15965W        W31434   3.427   3.314   2.448 -0.0684 -0.0853 -0.0902
15966W        W31435  10.312   9.068   2.605  0.1431  0.0369  0.0200
15967W        W31436  18.286  13.772   1.909 -0.1395 -0.0337  0.1528
15968W        W31437   6.615  15.589   4.828 -0.3243 -0.3049 -0.1871
15969W        W31438  15.467  14.160  11.227 -0.0860  0.1943 -0.0146
15970W        W31439   0.711  16.232  13.844  0.1738  0.1698 -0.1337
15971W        W31440   3.470   2.638  14.396  0.1408 -0.1531 -0.1091
15972W        W31441  13.215  10.753   4.707  0.1415 -0.2440 -0.0714
15973W        W31442  12.662  14.579   1.017  0.1346 -0.1896 -0.1142
15974W        W31443   3.001  16.629   4.759 -0.3511 -0.0897 -0.0918
15975W        W31444   5.772   9.997   3.073 -0.2320 -0.4868  0.1607
15976W        W31445   8.705   0.472   1.729  0.1201  0.4532 -0.2962
15977W        W31446   0.880   0.057  15.386 -0.4141  0.1120 -0.0119
15978W        W31447   2.409   5.485   2.150 -0.1868 -0.0649  0.1522
15979W        W31448  12.557   4.220   4.083 -0.2974 -0.0616  0.3218
15980W        W31449   6.029   4.488  13.329 -0.1343 -0.1898 -0.2759
15981W        W31450  14.867   9.341   2.781  0.0208  0.1301 -0.1567
15982W        W31451  18.481   8.255  14.898 -0.0107 -0.4045  0.1657
15983W        W31452  18.066  16.193  13.561 -0.1728 -0.1607 -0.2677
15984W        W31453   5.749  10.538   5.258 -0.3610  0.1701 -0.0270
15985W        W31454  14.918   4.271   0.374 -0.3580 -0.3987  0.0265
15986W        W31455   8.511   0.839  15.204  0.0218  0.1358  0.1085
15987W        W31456  16.850  15.975  12.108  0.1639  0.3231  0.2812
15988W        W31457   4.115   2.671   4.891  0.1555 -0.0522  0.2507
15989W        W31458  10.073   2.250  11.873 -0.3880 -0.0380  0.1920
15990W        W31459  15.011  13.206   3.407  0.0092  0.0654  0.0269
15991W        W31460   3.364  14.244  14.101 -0.0244 -0.1021 -0.0101
15992W        W31461   3.757  12.100  13.649 -0.2628  0.0511 -0.0169
15993W        W31462   6.311   5.829   3.705  0.0262 -0.0878 -0.2495
15994W        W31463  16.423   0.009   0.212  0.1902  0.2320 -0.3714
15995W        W31464  13.469  12.072   1.725 -0.0270  0.1078 -0.4828
15996W        W31465  13.112   6.736   3.481  0.1237  0.2898 -0.1415
15997W        W31466   2.508  15.315   0.653 -0.1141 -0.1193 -0.0622
15998W        W31467   0.187   3.745   2.741 -0.0993  0.1468  0.2219
15999W        W31468   9.353  11.456  12.258  0.0866  0.3678 -0.2951
16000W        W31469  13.235   5.980  10.691  0.0273 -0.0900 -0.1543
16001W        W31470   0.791  15.852   0.555  0.1392  0.1000  0.2376
16002W        W31471  17.640  13.751  11.004  0.0552  0.0143  0.2614
16003W        W31472  18.101   3.784   1.014  0.1410 -0.0398  0.0586
16004W        W31473  15.038   7.587   5.294  0.0521  0.0173  0.0119
16005W        W31474  16.560  16.435   0.052  0.2771  0.1804 -0.2181
16006W        W31475   1.798  15.619  11.964 -0.0102 -0.3855 -0.0306
16007W        W31476  12.527  14.414  12.687  0.1447 -0.2120 -0.0763
16008W        W31477   0.097   9.836  14.103 -0.1259  0.0230 -0.0583
16009W        W31478   6.118  14.475  12.819 -0.0621  0.3026 -0.3503
16010W        W31479  10.551  11.398   0.671 -0.1558  0.1725 -0.1628
16011W        W31480   0.942   1.086   4.669  0.0410 -0.0780  0.0545
16012W        W31481  17.877   3.150   0.711 -0.0938 -0.0394  0.0193
16013W        W31482  12.317   2.098  12.603  0.6450 -0.1500 -0.0046
16014W        W31483   3.819   1.745   1.213  0.1976 -0.3506  0.1008
16015W        W31484  10.368  14.227   1.477 -0.0022 -0.1878  0.0480
16016W        W31485  11.220  14.413   1.971 -0.1127 -0.3139 -0.0327
16017W        W31486   1.785   5.409   5.028 -0.0530  0.0634 -0.0687
16018W        W31487  16.186  11.829  14.753 -0.0963 -0.0893  0.1911
16019W        W31488  14.966  16.366   5.296 -0.1452  0.1490  0.0773
16020W        W31489  10.442   8.342  13.725 -0.3110  0.0769  0.2572
16021W        W31490   2.087  13.393   4.655  0.2037 -0.2247 -0.0571
16022W        W31491   6.298   3.102  12.089 -0.2591  0.3267  0.3180
16023W        W31492   1.122  11.774   3.608  0.1231  0.1496  0.0604
16024W        W31493  16.943   6.119   4.890 -0.0986  0.1994  0.1003
16025W        W31494  10.561   3.553  11.103  0.1603  0.1486  0.1909
16026W        W31495  11.130   5.175   3.091  0.2755  0.1287  0.0888
16027W        W31496   0.197  15.220   1.756 -0.2814  0.2567  0.1655
16028W        W31497   1.164   0.952   0.269  0.3625 -0.3931 -0.2320
16029W        W31498   1.272   1.896   1.489 -0.1006  0.0966  0.4887
16030W        W31499  18.601   5.019  14.739  0.3328 -0.1480 -0.2019
16031W        W31500   7.349   5.147   5.744  0.0516  0.0231  0.1571
16032W        W31501   6.547  17.212  15.033  0.2922 -0.2748 -0.2587
16033W        W31502  15.537   6.859   3.698  0.1624 -0.1941 -0.0707
16034W        W31503  16.575  13.669  15.179 -0.5077  0.0178 -0.2287
16035W        W31504  13.632  15.970   4.604 -0.1505  0.0252 -0.4943
16036W        W31505   8.777   7.426   1.786  0.0705  0.1504  0.1072
16037W        W31506  12.576  13.582  13.298  0.0965 -0.0904 -0.2410
16038W        W31507  18.128  10.576  13.609  0.1185  0.1889  0.3107
16039W        W31508   6.276   8.997   3.980 -0.0179 -0.0546  0.3353
16040W        W31509   6.751   1.699   0.899 -0.1044  0.1022  0.1747
16041W        W31510   3.879  10.920  12.656 -0.0851  0.2867 -0.0549
16042W        W31511  11.776   2.833   0.882 -0.3202 -0.0018 -0.0632
16043W        W31512  14.420   0.900  12.338 -0.2555  0.1562 -0.0691
16044W        W31513  10.450  14.900   5.684 -0.0012  0.1213 -0.0145
16045W        W31514  12.347  17.933   2.566 -0.1746 -0.1760  0.3585
16046W        W31515   2.478  15.169   3.626  0.2004 -0.3439 -0.0294
16047W        W31516   6.051  11.992  13.017  0.2423  0.1800 -0.2948
16048W        W31517   3.232   0.921   0.984  0.2306  0.0424  0.1634
16049W        W31518  13.203  14.991  13.037 -0.2846  0.0064 -0.3026
16050W        W31519  17.952  15.533   3.674 -0.0371 -0.0865 -0.1388
16051W        W31520   8.016   6.879  13.913  0.2636  0.1068  0.4909
16052W        W31521   4.633   1.013   4.215 -0.0190  0.0317  0.0182
16053W        W31522   4.831   6.450   3.226 -0.0544  0.0074  0.0655
16054W        W31523   8.735  17.808   2.363  0.2067 -0.3608  0.3259
16055W        W31524  18.839  12.752   2.078 -0.0905 -0.1012 -0.3741
16056W        W31525  14.977   1.467   4.236  0.1610  0.3441 -0.1733
16057W        W31526   5.160  14.139   2.197  0.1923 -0.0764 -0.1982
16058W        W31527  18.110   4.967   2.866  0.0594  0.1316  0.0636
16059W        W31528   8.848   5.738  12.169  0.2297  0.3544 -0.1131
16060W        W31529  12.000   3.922  13.999  0.1739 -0.3383  0.2471
16061W        W31530  15.955  10.233  12.229  0.1265  0.1188 -0.2183
16062W        W31531   8.462   4.216   4.604 -0.0111  0.0147  0.2662
16063W        W31532   1.906  13.434  14.249  0.0193  0.0703  0.1806
16064W        W31533   3.699  13.816   1.817  0.0001 -0.0522  0.1787
16065W        W31534   3.364  13.189   1.265 -0.1162  0.2067 -0.1536
16066W        W31535   5.344   3.571  10.873 -0.0569 -0.2115  0.1123
16067W        W31536  12.547  12.992  10.457 -0.0096  0.6517  0.4289
16068W        W31537   0.502  18.696   5.045  0.0346 -0.1918 -0.2883
16069W        W31538   1.103  12.234   2.327 -0.0654 -0.2464  0.1212
16070W        W31539   0.770  12.754   2.969 -0.2392  0.2720 -0.1401
16071W        W31540   9.011  16.361   3.655  0.0260  0.3030  0.0218
16072W        W31541   6.671   0.534   1.871 -0.1852  0.1296  0.0124
16073W        W31542   7.951   9.143   5.002 -0.0997 -0.1108  0.0189
16074W        W31543  10.137   3.603  15.138  0.1455 -0.0546  0.1205
16075W        W31544   2.526   8.327   0.350  0.0345  0.3772 -0.2532
16076W        W31545  13.987  18.179  12.571  0.0199 -0.0036  0.1332
16077W        W31546  14.908   0.454   0.492 -0.1993  0.0548  0.4838
16078W        W31547   1.408  13.279   3.057 -0.0652  0.1176 -0.1781
16079W        W31548  12.472  14.260   3.882  0.0824 -0.1112 -0.1801
16080W        W31549   8.148   8.736   5.814 -0.2056 -0.3673  0.1126
16081W        W31550   7.869  11.676  13.048  0.0782  0.0772  0.2021
16082W        W31551   2.564   4.728  13.147  0.3088 -0.2402 -0.1008
16083W        W31552   2.579   3.028  12.908 -0.1663  0.1534 -0.1368
16084W        W31553  17.255  11.551  14.526  0.2106 -0.0388  0.0934
16085W        W31554   7.366   9.573   3.205 -0.1582  0.1747  0.3055
16086W        W31555   5.039  17.937   3.395 -0.0323 -0.1597 -0.1745
16087W        W31556  17.249   9.580   1.115  0.1319 -0.1593  0.0123
16088W        W31557   9.703  17.580   3.603  0.0938  0.0976 -0.3834
16089W        W31558  10.450  13.381  14.925 -0.0095  0.1185 -0.1984
16090W        W31559  14.651   7.123  12.977 -0.2472  0.1333 -0.0086
16091W        W31560  18.835   1.900   2.186  0.1473 -0.0784  0.0530
16092W        W31561   5.252   8.415  15.459 -0.2485  0.0546  0.0329
16093W        W31562   6.082  17.567  13.912  0.1752 -0.0990  0.3782
16094W        W31563  14.328   6.425  15.209 -0.2158  0.2604 -0.2943
16095W        W31564  17.183   2.183  14.015 -0.3157  0.0254  0.2383
16096W        W31565  17.128  14.810  13.288  0.3863 -0.0471  0.1884
16097W        W31566  10.806   8.991  12.537  0.2021  0.0617 -0.0689
16098W        W31567  16.975  17.071   3.151  0.2358  0.2220  0.0967
16099W        W31568  12.849  14.115  10.280 -0.1210 -0.0370  0.2277
16100W        W31569   4.972  14.218  12.277 -0.1189 -0.0815 -0.1681
16101W        W31570  16.111  12.882  11.178  0.1969 -0.0267  0.1458
16102W        W31571   9.514   3.317   5.438 -0.0441  0.0399 -0.0535
16103W        W31572   7.938   2.035  15.330 -0.0720  0.1318 -0.1098
16104W        W31573   6.344  13.675  13.735 -0.1807  0.3203 -0.1056
16105W        W31574   4.181  18.289  15.201 -0.0624 -0.0312  0.3644
16106W        W31575  12.256   5.359   3.693 -0.2350 -0.2076 -0.3200
16107W        W31576   5.995   7.583  12.998  0.1649  0.2181  0.0341
16108W        W31577  17.476   6.698  12.715 -0.2815  0.0984  0.0390
16109W        W31578   4.737  12.867   2.131 -0.2196 -0.4591  0.1404
16110W        W31579   3.640  16.065   0.175 -0.1919  0.1933 -0.3291
16111W        W31580   6.857   1.516   3.376 -0.4517  0.0248 -0.2725
16112W        W31581   5.267   9.449  13.204  0.5209  0.1431  0.0551
16113W        W31582   8.434   4.191   3.114  0.1515  0.1316 -0.0290
16114W        W31583   4.425  13.997   3.464  0.0005 -0.0006  0.0162
16115W        W31584  10.942  10.958   9.637  0.1746 -0.0362  0.2022
16116W        W31585  16.566  15.706   1.189  0.2155  0.0471  0.1865
16117W        W31586   1.195  16.984  11.742 -0.0602  0.1364  0.1658
16118W        W31587   1.881  18.324   2.628  0.0287 -0.1773  0.0124
16119W        W31588  13.255  14.971  10.866 -0.2382 -0.1635 -0.2879
16120W        W31589  18.872  11.987   0.945 -0.2912 -0.0005 -0.2584
16121W        W31590   9.010   4.592  11.956  0.1492  0.0369 -0.2432
16122W        W31591  17.669   5.246  11.207  0.1478  0.0055 -0.1270
16123W        W31592   1.736  11.413   0.522  0.1041 -0.2522  0.0998
16124W        W31593   6.804  11.774   4.134 -0.1380 -0.2285 -0.0906
16125W        W31594  18.865  15.414   4.724 -0.4356  0.0358  0.0595
16126W        W31595  12.489  14.439   3.414  0.4606  0.4616 -0.0657
16127W        W31596  10.223  14.546   3.016 -0.1617  0.1585 -0.2021
16128W        W31597   4.731  17.921   5.228  0.2361  0.2898  0.1531
16129W        W31598  13.813   4.681   2.788  0.0674  0.2749  0.0730
16130W        W31599   5.747   0.786   1.662  0.3594 -0.2138  0.0238
16131W        W31600  17.059  13.817   2.478 -0.5419  0.0408 -0.1273
16132W        W31601  18.346   9.548  10.641 -0.0560  0.0284  0.4966
16133W        W31602   5.720   5.476   0.461  0.0194  0.0911 -0.3151
16134W        W31603  13.507  15.206   2.282 -0.5579  0.1210 -0.1364
16135W        W31604  13.965  15.602   3.157 -0.2152 -0.3454  0.2293
16136W        W31605  11.637  18.362   5.351 -0.0315 -0.0394  0.1096
16137W        W31606   3.905   1.440   0.674  0.0983  0.3046  0.3716
16138W        W31607   1.613  13.940   3.873  0.0382  0.2067 -0.1110
16139W        W31608   9.727  13.949   4.189 -0.0377  0.2375 -0.2412
16140W        W31609   4.922   8.498   1.138 -0.0452 -0.4096 -0.1383
16141W        W31610   1.003   4.973   9.530  0.2114  0.0482 -0.0297
16142W        W31611   9.299  17.312   4.868 -0.1514 -0.0486 -0.2394
16143W        W31612   3.547  10.719  13.704  0.2134 -0.3735 -0.0190
16144W        W31613   1.252   3.310   4.242 -0.0949 -0.1918  0.1593
16145W        W31614   5.581   2.835  12.208 -0.1210  0.2140  0.0276
16146W        W31615  10.762   2.631  13.308 -0.1209 -0.4136  0.0230
16147W        W31616  15.661   7.123  11.082 -0.2973 -0.1722  0.6072
16148W        W31617  13.699  10.784   2.025  0.0314  0.0584  0.1000
16149W        W31618  17.269   6.006   1.508  0.0073  0.1422 -0.3187
16150W        W31619   1.326   1.229  14.722  0.2828 -0.3073 -0.4873
16151W        W31620   0.501   3.022  14.008 -0.1220 -0.1566 -0.0600
16152W        W31621   9.501  17.069  11.527  0.1901  0.3263  0.0071
16153W        W31622   5.501  12.804   0.433  0.0255 -0.1329 -0.3021
16154W        W31623  18.444   5.274  14.194 -0.2830  0.0592  0.0828
16155W        W31624   2.934  15.476  11.690  0.1334  0.2764  0.0801
16156W        W31625   6.536   2.485   5.403  0.1838 -0.1639 -0.0876
16157W        W31626   7.154  15.282   3.699  0.0230 -0.3489 -0.2083
16158W        W31627  15.419   2.318   1.613  0.0267  0.0554 -0.0817
16159W        W31628   6.819  12.597   2.052 -0.0922  0.0539  0.0981
16160W        W31629  15.129   1.490   3.500 -0.1562 -0.0820 -0.2415
16161W        W31630   3.361   8.636  11.417 -0.1949  0.1501 -0.1749
16162W        W31631  11.100   5.687   0.930 -0.1874  0.0387  0.0883
16163W        W31632  14.611   9.475  13.285  0.0206  0.0391  0.3065
16164W        W31633   0.014   8.480  14.414  0.0420  0.1094  0.2522
16165W        W31634   6.202   6.164   0.772  0.2512  0.1374  0.1414
16166W        W31635  10.852   7.498   0.547  0.0440  0.3689 -0.2249
16167W        W31636   0.672  11.614  14.281 -0.1458  0.0526  0.3459
16168W        W31637  16.975  16.065  15.384 -0.0334  0.1077 -0.2790
16169W        W31638   4.403   3.810  13.360  0.0827  0.3487  0.0769
16170W        W31639  14.236  16.401  13.603 -0.0537 -0.0596  0.1532
16171W        W31640   3.677  13.934   2.288 -0.1892 -0.2688  0.0697
16172W        W31641   3.442   8.779   1.644  0.1699  0.0310 -0.0948
16173W        W31642  12.320   2.386  10.871  0.0569 -0.0805 -0.1757
16174W        W31643   2.480   7.875   0.104 -0.0805  0.0057 -0.0663
16175W        W31644   8.931   0.846   5.234  0.0852 -0.1802 -0.1273
16176W        W31645  13.835  17.958  11.068  0.2742 -0.1578  0.2152
16177W        W31646  10.448   4.014   0.726  0.0750  0.0813  0.2692
16178W        W31647   7.085  10.652   0.298  0.0793 -0.0901  0.2111
16179W        W31648   7.565  11.808   3.375  0.4177 -0.2633 -0.1065
16180W        W31649  11.254   1.386  11.001  0.3497 -0.1073 -0.2030
16181W        W31650   0.913  11.489  11.147 -0.2416  0.0866 -0.0141
16182W        W31651  14.442  11.632   5.217  0.1341 -0.1601  0.0965
16183W        W31652   3.182   6.508  10.766 -0.1834  0.2385  0.0504
16184W        W31653  14.284  10.071   2.205 -0.4412 -0.2309 -0.1709
16185W        W31654   6.298  13.112  12.155 -0.1268  0.1104  0.1596
16186W        W31655   0.681  15.989   3.039 -0.0948  0.0332  0.1200
16187W        W31656  13.805  10.078   2.443 -0.3051  0.1355  0.1523
16188W        W31657  17.493   5.140   5.685  0.1754  0.3448 -0.1135
16189W        W31658  11.138  10.562   1.933 -0.0291 -0.0040  0.1316
16190W        W31659  18.733  14.070   1.910 -0.0324  0.1340 -0.0379
16191W        W31660  15.745   5.615   5.330  0.0014  0.1681 -0.2035
16192W        W31661   3.026   2.818  11.719 -0.0507 -0.0026 -0.0005
16193W        W31662  16.411  18.891   1.195 -0.1234  0.1759  0.1084
16194W        W31663   1.068  18.071  12.884 -0.1353 -0.0780 -0.0188
16195W        W31664   2.139   0.064   3.180 -0.1736  0.1513  0.1490
16196W        W31665   7.384   1.500  14.740 -0.2241  0.2353 -0.1729
16197W        W31666  15.456   2.834   1.669 -0.1850 -0.0904  0.2906
16198W        W31667   8.832   8.882   1.844 -0.1096  0.1359  0.2374
16199W        W31668  12.612   9.219   3.566 -0.3594 -0.2062 -0.1022
16200W        W31669  10.348   4.792  12.610 -0.1345  0.1091 -0.0572
16201W        W31670   6.385  14.876   3.668  0.1627  0.2076  0.0710
16202W        W31671   2.843   3.831   4.425 -0.3331 -0.2577 -0.1073
16203W        W31672   4.940  16.145   3.201  0.1601  0.2635 -0.3437
16204W        W31673  11.333  11.251   1.359  0.0111  0.1331  0.1475
16205W        W31674   0.476   9.575   2.806 -0.1943 -0.1645 -0.0443
16206W        W31675   6.032   9.184   0.874 -0.3257  0.4303 -0.1941
16207W        W31676   7.861   5.518   1.379  0.0636  0.1402  0.3112
16208W        W31677  14.520  14.291  13.865 -0.0908  0.2396  0.1009
16209W        W31678   1.778  10.271  15.064  0.0493  0.0576  0.4318
16210W        W31679   0.234  11.737   1.215  0.3900  0.3025 -0.2673
16211W        W31680  10.531   6.483  14.357 -0.3483 -0.0304 -0.1282
16212W        W31681  13.539  15.494   0.145  0.0499 -0.2609 -0.0585
16213W        W31682  13.858   9.787  11.293  0.1353 -0.0069  0.0093
16214W        W31683   4.617   1.695  13.641 -0.3418 -0.1113  0.1740
16215W        W31684  15.667   3.265   9.312  0.1866 -0.0335  0.0081
16216W        W31685   3.362  16.737   0.059 -0.1394  0.1258  0.1195
16217W        W31686   7.160  14.904  14.962 -0.0168 -0.0219 -0.0128
16218W        W31687  15.314  15.333   5.399 -0.0901  0.2020  0.1867
16219W        W31688   4.826  16.954  11.532  0.0696  0.4129  0.0081
16220W        W31689  14.204  12.264   4.253 -0.0291 -0.0007  0.3890
16221W        W31690  13.357   9.818   3.280  0.0333  0.1769  0.2642
16222W        W31691  14.347  12.722  13.252  0.0453  0.0320  0.2269
16223W        W31692  13.378   6.751  14.593 -0.1217 -0.1000 -0.0625
16224W        W31693   0.198  16.126  11.530  0.1265  0.1918  0.0498
16225W        W31694  12.492  12.977  12.821 -0.1286  0.0746 -0.1170
16226W        W31695   9.248   2.965   9.595 -0.1038 -0.1979 -0.1397
16227W        W31696   7.534   8.750   0.534  0.0770  0.2096 -0.1371
16228W        W31697  12.243   5.155   4.397 -0.0258  0.1243  0.0151
16229W        W31698  10.851   2.436  12.841 -0.3136  0.1701  0.0291
16230W        W31699  11.048  16.414  14.383 -0.1054  0.1489 -0.1726
16231W        W31700  15.567  16.289  13.345  0.1838 -0.2871  0.3826
16232W        W31701   3.025   0.181   1.220  0.0606 -0.0786  0.0944
16233W        W31702   8.955  14.253   2.040  0.2430 -0.2481 -0.2356
16234W        W31703  13.805  13.107   0.284 -0.0504  0.0674  0.0945
16235W        W31704   0.996  14.362   2.319 -0.2107  0.1711  0.0792
16236W        W31705   7.604   5.506   3.988  0.1302 -0.0250 -0.2184
16237W        W31706  11.034  15.891  14.631  0.1299  0.1478  0.1845
16238W        W31707  15.092  15.894   1.178  0.2434  0.0452  0.2717
16239W        W31708  17.195  18.437  12.486  0.0309 -0.0952  0.0094
16240W        W31709  17.804  11.802  13.124 -0.1789  0.0495 -0.2997
16241W        W31710  14.404   3.136   4.224 -0.0345 -0.0135 -0.2065
16242W        W31711  10.808  17.474   2.797 -0.1842 -0.2466  0.1965
16243W        W31712   4.963  18.707   2.038  0.4308  0.0911  0.1650
16244W        W31713   7.663  12.010  14.024 -0.2102  0.1650  0.0423
16245W        W31714   1.454  13.210   0.825  0.1898  0.2080  0.0589
16246W        W31715   1.556  12.675  13.255  0.2089  0.2492 -0.1343
16247W        W31716   3.306   5.940   4.203  0.1249 -0.2957 -0.1866
16248W        W31717  18.789  12.827   3.827 -0.1791  0.0509 -0.0086
16249W        W31718  10.775  13.503   1.727  0.2907  0.1129  0.1047
16250W        W31719   4.261   7.048   2.424 -0.0084  0.0728 -0.1052
16251W        W31720   2.934   2.118   4.650 -0.3270  0.0999  0.1216
16252W        W31721   3.432  16.973  11.129 -0.2259  0.1068  0.0638
16253W        W31722   1.438   9.673  11.862  0.2066  0.0002  0.0504
16254W        W31723   7.489   8.452   2.022  0.0101  0.0349 -0.0294
16255W        W31724   2.805  12.599   5.114  0.1505 -0.1280 -0.1803
16256W        W31725  13.249  14.761  14.927 -0.0066  0.2060 -0.1399
16257W        W31726   3.503  13.668   4.398 -0.2598 -0.2225  0.1371
16258W        W31727   0.986   1.437   5.398 -0.5013 -0.1933  0.3222
16259W        W31728   1.967  11.785  12.985 -0.4607  0.1601  0.1801
16260W        W31729   2.444  13.208  12.164  0.2860  0.1552 -0.3364
16261W        W31730   0.699  14.777   2.417 -0.3593 -0.2132 -0.0909
16262W        W31731   0.101   6.166  11.855 -0.5367  0.1374 -0.0209
16263W        W31732  14.662  15.307  11.725  0.1541  0.2472  0.0589
16264W        W31733  11.452   2.586   1.709  0.2576  0.0088 -0.0125
16265W        W31734   2.474   6.582  12.415 -0.0961  0.0734 -0.3595
16266W        W31735   6.383   0.489  10.288  0.1334 -0.2302 -0.1417
16267W        W31736   7.802   6.050   2.195  0.2120  0.1043 -0.0507
16268W        W31737   4.541   1.606   3.872  0.2899  0.2960 -0.0872
16269W        W31738  14.577   7.157   1.328  0.1016 -0.2145  0.0029
16270W        W31739   8.236   6.061  13.555  0.1669 -0.2161  0.2508
16271W        W31740   9.789   8.978  14.997  0.1778  0.2413 -0.2454
16272W        W31741   2.064   4.031  12.059 -0.1055  0.3092 -0.0320
16273W        W31742   8.570  11.639  15.150 -0.0292 -0.2606 -0.0930
16274W        W31743   1.281  15.961   3.501 -0.0528 -0.0943  0.1207
16275W        W31744  12.763   9.773   0.712 -0.1428 -0.0173  0.1063
16276W        W31745   1.471   3.088  15.047 -0.1701 -0.2041  0.1440
16277W        W31746  11.424  10.988   2.795  0.3160 -0.1280 -0.0970
16278W        W31747  17.623  15.610   4.010  0.2081  0.0116 -0.0984
16279W        W31748  18.124   8.901  10.590  0.0020  0.1548  0.0656
16280W        W31749  10.603  11.205   3.776 -0.0674 -0.1383  0.0305
16281W        W31750   6.445   3.192   1.305  0.1071  0.1748  0.1407
16282W        W31751  11.520  14.905  12.478  0.2436 -0.2881  0.1024
16283W        W31752   8.952   2.082  12.408  0.3622 -0.2459 -0.0794
16284W        W31753   2.642   9.273  14.509  0.1497 -0.0311  0.0656
16285W        W31754  10.779   0.099   9.442 -0.1055 -0.2469 -0.0906
16286W        W31755   3.163   3.701  14.440 -0.0057  0.1334 -0.1468
16287W        W31756  11.109   0.210   1.146 -0.0821 -0.0185 -0.0025
16288W        W31757   6.694   9.886   4.405 -0.0893 -0.0458  0.1674
16289W        W31758   0.604   9.187  10.848 -0.3556  0.1119 -0.0810
16290W        W31759   5.994   8.476  13.735  0.0308 -0.2125  0.2968
16291W        W31760  17.166   7.693  13.678 -0.0714 -0.1654  0.0881
16292W        W31761  15.959   7.424   4.293 -0.5679  0.1461 -0.2835
16293W        W31762   3.272   4.493  14.934  0.0209 -0.2267  0.1181
16294W        W31763  10.088  16.998   0.180 -0.4276  0.1193  0.2874
16295W        W31764  17.022  17.349  12.193 -0.0108  0.1255 -0.1202
16296W        W31765  14.620   7.105   4.330  0.0283  0.0580 -0.0979
16297W        W31766   5.138   6.785  11.139 -0.1568 -0.0687 -0.2086
16298W        W31767  11.805  14.069   0.717 -0.3407  0.1555 -0.1408
16299W        W31768   2.549  13.078   2.314 -0.0249  0.2327  0.0715
16300W        W31769  17.728  17.150  15.379 -0.2922  0.3789 -0.1203
16301W        W31770  10.655  16.552   4.211 -0.1151  0.2234  0.0198
16302W        W31771   8.191   3.246  12.139  0.2143 -0.2512  0.3555
16303W        W31772   2.833   9.891   4.847  0.2854 -0.2172  0.1386
16304W        W31773  14.762   6.211   4.976 -0.1477 -0.0861  0.1597
16305W        W31774   7.484  10.792   1.832 -0.1235  0.1765  0.2640
16306W        W31775   5.972  13.477  12.991  0.0123  0.4481 -0.2975
16307W        W31776   7.778  17.029  12.038  0.4974  0.2277 -0.2063
16308W        W31777  17.804  13.267   2.487  0.0527 -0.0225 -0.1337
16309W        W31778  11.429  14.918  13.849 -0.0569  0.0638  0.1731
16310W        W31779  12.166  15.366  13.992 -0.0034 -0.1308  0.0096
16311W        W31780  12.470  16.013   2.961 -0.0300  0.1135  0.0668
16312W        W31781  18.138  18.034   3.648 -0.1285  0.3752 -0.1057
16313W        W31782  15.165  15.565   3.448  0.0823 -0.1541  0.2099
16314W        W31783  10.245   8.566   0.266 -0.0499 -0.2282  0.1252
16315W        W31784   2.560   0.638  14.652 -0.1421  0.0781 -0.1246
16316W        W31785  14.034   4.139   1.607  0.1316 -0.1670  0.0540
16317W        W31786   2.490  14.173   3.082  0.0985 -0.1321 -0.2934
16318W        W31787   3.262   0.501  12.019 -0.0579  0.0978 -0.3088
16319W        W31788   6.328  16.626  11.704  0.5548 -0.1711  0.2658
16320W        W31789  11.492   3.281   9.554 -0.0727  0.3230  0.0413
16321W        W31790   8.835  11.026  13.046 -0.1319  0.0741  0.0258
16322W        W31791   7.548  14.946   1.815 -0.2940  0.2507  0.2426
16323W        W31792   5.509  12.122  10.269  0.0909 -0.2165 -0.0109
16324W        W31793  12.396  17.248  11.501 -0.0566 -0.1982  0.0374
16325W        W31794  14.443  15.583   4.270  0.1475 -0.0568  0.1696
16326W        W31795  11.181  16.680   2.380 -0.1079 -0.0182  0.0593
16327W        W31796  17.500  15.445   3.394  0.0129  0.0056 -0.2506
16328W        W31797   9.688   2.656   1.817  0.3403 -0.0213  0.2325
16329W        W31798  18.680   0.989   2.199 -0.0050  0.1789  0.3706
16330W        W31799  10.381  14.540   0.919 -0.2578  0.0270  0.2657
16331W        W31800  14.209  14.049   2.105 -0.1031  0.3118 -0.0970
16332W        W31801  12.217   8.904  11.151  0.0964  0.0742 -0.3987
16333W        W31802  14.948   1.611   2.037 -0.0053  0.0103 -0.3794
16334W        W31803   7.150   1.650   3.729 -0.0218 -0.1172  0.0472
16335W        W31804  16.952  13.531   5.814 -0.4775  0.1906  0.1285
16336W        W31805  14.641  17.806  12.383 -0.0704 -0.1841 -0.1502
16337W        W31806   8.157  13.003  12.498 -0.1282 -0.1115  0.2578
16338W        W31807  15.666  13.680   1.838 -0.0253 -0.0490  0.0696
16339W        W31808  14.417  12.827   5.591 -0.2141 -0.1174 -0.1798
16340W        W31809  15.498  15.960   0.761 -0.2861 -0.2280  0.3047
16341W        W31810  14.111   9.182   3.297 -0.0187 -0.1157 -0.0907
16342W        W31811   5.635   6.510   5.062  0.0807  0.2544 -0.0813
16343W        W31812   8.478  16.881   4.740 -0.2798  0.1424  0.1347
16344W        W31813   4.880   1.471  10.263 -0.2467 -0.6721  0.1265
16345W        W31814   0.141   1.458   2.829  0.1871  0.3346 -0.0603
16346W        W31815  18.445  17.876  12.904  0.3433  0.0740 -0.1393
16347W        W31816   2.599   9.988   3.901  0.2193 -0.1250 -0.2604
16348W        W31817  14.665   0.105   4.362 -0.0280 -0.2598  0.0440
16349W        W31818  10.308   1.247   1.723 -0.0608 -0.1369 -0.2964
16350W        W31819   5.817  13.553  14.461  0.0002 -0.2513 -0.0183
16351W        W31820   8.696   5.779  14.860  0.1670  0.0490 -0.2294
16352W        W31821  13.229   3.424   0.883  0.2126 -0.0050 -0.1214
16353W        W31822  15.222  11.886  13.971  0.0633  0.1323 -0.0308
16354W        W31823   6.510   5.775   1.479  0.0307  0.1536  0.2150
16355W        W31824  12.743   0.866   3.472  0.2067 -0.1288  0.1033
16356W        W31825   0.274  16.932   1.013  0.4469  0.1216  0.1024
16357W        W31826  13.929   6.883   4.984  0.0614  0.0823  0.2034
16358W        W31827   9.940  13.770   2.990  0.2457 -0.2853  0.0820
16359W        W31828   9.489   1.420  13.800  0.1053 -0.1519  0.2809
16360W        W31829  11.374  16.782   0.291 -0.1184 -0.0652 -0.2203
16361W        W31830  17.765   7.870   9.542 -0.3512 -0.0313 -0.0530
16362W        W31831   7.165  15.474  11.285 -0.0112  0.0402  0.3422
16363W        W31832  18.384   6.061  13.165 -0.1227  0.0943 -0.3638
16364W        W31833  16.332  18.085  14.682 -0.0870 -0.0561  0.0574
16365W        W31834  16.002   4.931   3.968  0.0140  0.2908 -0.0226
16366W        W31835   2.236   5.131  14.158 -0.2937  0.2292 -0.4084
16367W        W31836  16.070   7.567  14.781 -0.2055  0.2384 -0.4572
16368W        W31837   8.188   6.979   1.194 -0.2889 -0.3545  0.3089
16369W        W31838   9.693   8.974  14.497  0.1983  0.0470  0.0391
16370W        W31839   1.526  13.356  11.951  0.1529 -0.0109  0.2863
16371W        W31840   4.152  17.659  10.948  0.0802 -0.3026  0.0036
16372W        W31841  16.421   8.663  15.180 -0.2044  0.1454  0.0406
16373W        W31842   7.987   8.707   1.345 -0.0086 -0.1508 -0.0914
16374W        W31843  10.282   1.744  15.449 -0.1989  0.2736 -0.0351
16375W        W31844   4.664   3.388  12.428 -0.1736  0.2102 -0.0918
16376W        W31845  10.553  15.372   4.926  0.1214  0.0439 -0.1220
16377W        W31846  16.045  16.461   4.124 -0.1207  0.1682  0.0118
16378W        W31847  17.285   4.459   1.689 -0.0057  0.1042 -0.4071
16379W        W31848  17.250   1.768   2.212  0.3679  0.0116  0.1976
16380W        W31849   8.854  12.104   3.836 -0.0211 -0.0780 -0.0459
16381W        W31850  14.052  18.351   0.002  0.1157 -0.2177  0.3059
16382W        W31851   1.042   8.117   2.978 -0.2349 -0.2209 -0.0317
16383W        W31852   5.949  10.607  10.680 -0.3349  0.1195 -0.0473
16384W        W31853  12.808   4.543  13.919 -0.3197  0.0953 -0.0840
16385W        W31854  12.569  12.904   9.996  0.1489 -0.0219  0.0571
16386W        W31855   2.659  10.346   0.315 -0.3639  0.1554  0.3022
16387W        W31856   3.371   4.771   5.501  0.0505 -0.0196 -0.4310
16388W        W31857   5.167  14.783  13.025  0.0660  0.1758  0.1806
16389W        W31858   3.624   0.017   1.236  0.0286 -0.2304  0.3502
16390W        W31859  11.361   7.306   2.220  0.3822  0.0350 -0.2055
16391W        W31860   9.531  16.277  12.634 -0.0448 -0.0520  0.2395
16392W        W31861  13.335  13.358  12.128 -0.0212 -0.0439  0.0969
16393W        W31862   8.738  14.483   2.941  0.1081 -0.0877  0.0919
16394W        W31863   1.306   2.685  14.264 -0.0294 -0.2859 -0.1721
16395W        W31864  13.214  18.670  14.926 -0.3968  0.1494  0.1354
16396W        W31865   9.085   7.273   3.005  0.0483 -0.1697  0.0631
16397W        W31866   4.328   7.967   9.341  0.0372  0.3467  0.5507
16398W        W31867   7.604  18.263   2.159 -0.1239  0.1180 -0.2013
16399W        W31868   6.845  10.737   1.139  0.2090  0.1127 -0.0812
16400W        W31869   3.185   3.268   3.687 -0.1454  0.0513  0.1605
16401W        W31870   7.961  15.104  11.475  0.1056 -0.2686  0.2029
16402W        W31871   4.289   3.261   4.581 -0.0028 -0.2120 -0.7235
16403W        W31872   7.578   3.510  11.238 -0.2605 -0.0775  0.1984
16404W        W31873  11.581   7.673  14.601 -0.2060  0.0481 -0.0710
16405W        W31874   8.330   6.563   1.511 -0.0889  0.0039 -0.0084
16406W        W31875  14.618   3.555  13.610 -0.0946  0.0258  0.2039
16407W        W31876  15.869  11.469   3.779 -0.0065 -0.0102  0.1225
16408W        W31877  15.102  12.115   0.626  0.0974 -0.4506 -0.0603
16409W        W31878  10.885   4.801  11.417  0.0693  0.0647  0.2516
16410W        W31879   3.849  11.525  11.409  0.2209  0.2212  0.0810
16411W        W31880   3.336  14.913  14.511 -0.0310 -0.2036 -0.0170
16412W        W31881   6.309  14.523  14.684 -0.4046 -0.0757  0.1946
16413W        W31882  11.639  15.365   0.193  0.0891 -0.1463 -0.0508
16414W        W31883   1.398   9.222   9.966 -0.3517 -0.3809 -0.2559
16415W        W31884   2.935  17.605  13.662  0.0168  0.1823  0.0385
16416W        W31885   3.700  13.515  12.233 -0.0731 -0.0927  0.3749
16417W        W31886   6.233   8.162  11.584  0.0705 -0.1849  0.0980
16418W        W31887  14.444   6.662   0.185  0.0092 -0.2088 -0.2312
16419W        W31888  10.681   8.612  12.891 -0.1189  0.1329  0.0812
16420W        W31889   5.814  18.438   0.884 -0.1532 -0.2023  0.1517
16421W        W31890   1.740   4.558  11.620  0.2243  0.0252  0.0522
16422W        W31891  17.718   1.726   0.060 -0.0291  0.5587 -0.3105
16423W        W31892   9.921   6.678  15.466  0.2829 -0.2613  0.0134
16424W        W31893   0.215  14.199   0.982 -0.3070 -0.2780 -0.0968
16425W        W31894  14.836   5.584  12.078  0.0771  0.0584  0.0688
16426W        W31895   9.630  13.419   5.039 -0.0657  0.3765 -0.0238
16427W        W31896   7.181  12.032   1.219  0.2484  0.0303 -0.2577
16428W        W31897   0.216  11.865  10.966 -0.2689 -0.0062 -0.0101
16429W        W31898  14.561   2.434  13.299  0.1238  0.1714 -0.4705
16430W        W31899   6.221  16.314  12.689  0.0060 -0.4934  0.2907
16431W        W31900   1.474   9.197  12.019  0.1313  0.2694  0.2866
16432W        W31901  16.218  17.527  14.784 -0.2169 -0.0285 -0.1107
16433W        W31902  17.012  16.632   3.673  0.1289 -0.0118 -0.1157
16434W        W31903  12.624  18.759  14.091  0.1662  0.2957  0.1072
16435W        W31904   6.012   9.481  15.384  0.1906 -0.2349 -0.1860
16436W        W31905   0.467  15.054   2.901 -0.1736 -0.0232  0.0652
16437W        W31906   9.428   4.695  10.222 -0.1870  0.3010 -0.3196
16438W        W31907  13.382  10.787  12.481 -0.1716  0.0416 -0.0006
16439W        W31908   5.482  13.499   3.915  0.0891 -0.0792  0.2570
16440W        W31909  17.762   4.761  10.904 -0.0585  0.1243  0.0043
16441W        W31910  14.336   9.470  10.122  0.2496 -0.3707 -0.1654
16442W        W31911   2.885  17.328   4.972  0.1573 -0.1195  0.2833
16443W        W31912   2.583   7.215   4.237  0.2482 -0.0059 -0.4700
16444W        W31913   4.123  13.642   0.026 -0.2221 -0.3493  0.2968
16445W        W31914   1.692  12.106   3.571  0.1125 -0.2764 -0.1875
16446W        W31915  10.136   6.252  13.005  0.0878 -0.0698 -0.1040
16447W        W31916  15.922   8.438  13.733  0.2302 -0.3358  0.0769
16448W        W31917  18.671   1.774   2.884 -0.0340  0.1069  0.2653
16449W        W31918   9.219  11.907   5.923  0.1434  0.0789 -0.0069
16450W        W31919  10.198   4.924   4.281 -0.0828 -0.1860 -0.1744
16451W        W31920   1.931  10.168  12.415 -0.1503 -0.2093  0.0633
16452W        W31921   8.501   9.469  13.358 -0.0090  0.0408  0.2941
16453W        W31922  10.496   9.591  13.891  0.1346  0.3018  0.1661
16454W        W31923   6.972  17.714   1.586 -0.3189 -0.0166 -0.0671
16455W        W31924  14.158  17.715  12.263  0.0994 -0.0053  0.3503
16456W        W31925   1.102   0.134   1.739 -0.2036  0.1133 -0.0333
16457W        W31926  13.231  17.025  11.257 -0.2638  0.1499 -0.0773
16458W        W31927  16.636  17.577   1.439  0.2937 -0.0857  0.1850
16459W        W31928   6.947   0.799   2.223 -0.1174 -0.1357 -0.2043
16460W        W31929   3.539  16.163  13.421 -0.4381  0.1273  0.0387
16461W        W31930   5.296  11.348  11.643  0.0764 -0.2465 -0.0861
16462W        W31931   3.915   1.757   2.234 -0.1820  0.2791  0.0415
16463W        W31932  14.861   4.541  13.640 -0.0453 -0.2362 -0.2287
16464W        W31933   1.205   5.182   2.848  0.0568  0.0724  0.1778
16465W        W31934   3.717  12.726  15.434  0.3668 -0.3919 -0.0396
16466W        W31935  16.339  12.858   2.941 -0.0886 -0.0696  0.2523
16467W        W31936   6.738   9.035  12.177  0.3031  0.3141 -0.1492
16468W        W31937  15.523   8.409   5.869 -0.1773 -0.0249  0.0427
16469W        W31938  13.710  16.575   2.740 -0.1815  0.0262 -0.0164
16470W        W31939  12.970   0.757   5.112  0.0645  0.0979  0.2233
16471W        W31940  16.798   7.928   2.540  0.0686  0.1511 -0.0150
16472W        W31941   4.385  10.470   0.670 -0.0036  0.3299 -0.0698
16473W        W31942   2.897  11.241  12.186  0.3931 -0.0564 -0.2679
16474W        W31943  17.356  16.064   0.707 -0.0074 -0.2037  0.2317
16475W        W31944   6.748   3.478  12.851  0.2303  0.2468 -0.3858
16476W        W31945  18.602   1.580  12.085 -0.0620 -0.0558 -0.1306
16477W        W31946   0.792   6.945  12.705 -0.3978  0.0469  0.3094
16478W        W31947  10.977  10.521  11.691  0.1746 -0.0157  0.0088
16479W        W31948   9.584   6.635  13.699  0.5127 -0.3472 -0.1133
16480W        W31949  12.669  14.785   4.579 -0.0849 -0.2893  0.3167
16481W        W31950  16.600   2.959   0.737 -0.1928 -0.0857 -0.0313
16482W        W31951   6.868  10.029   4.955  0.2884  0.0337 -0.1346
16483W        W31952   7.961   4.666  12.822  0.2251  0.2000 -0.3041
16484W        W31953  12.606  18.079   3.162  0.0107  0.3332 -0.1413
16485W        W31954   7.966   7.699   0.129  0.0129  0.1187  0.2323
16486W        W31955  12.461  10.862  14.026 -0.3126 -0.2302  0.4224
16487W        W31956  15.001   2.022  14.348  0.3095  0.2207 -0.4258
16488W        W31957   6.505  17.045   3.292  0.1260 -0.0993 -0.0458
16489W        W31958   4.992   0.819   4.886  0.0295  0.1170 -0.0515
16490W        W31959   1.558   7.308  13.582 -0.0838 -0.1147  0.0225
16491W        W31960  13.761   4.608  13.107  0.0986  0.0319  0.0048
16492W        W31961  10.814  13.431   2.650  0.0486  0.0295  0.1293
16493W        W31962   8.900   2.428  14.293 -0.3502  0.0576 -0.0587
16494W        W31963  11.528  17.981   0.042  0.0394  0.1991  0.0984
16495W        W31964   6.763  14.946  15.300  0.2662  0.1474  0.0808
16496W        W31965   0.594  11.138  14.457  0.0328 -0.2364  0.0638
16497W        W31966  15.426  11.308  13.871 -0.0473  0.0227 -0.0508
16498W        W31967   1.751   1.857  15.393  0.2761 -0.0035  0.0584
16499W        W31968   4.269   7.661   1.829 -0.1407 -0.0313  0.0617
16500W        W31969   5.984  16.679   2.045  0.2169  0.1026 -0.2002
16501W        W31970   8.023  13.923  12.012 -0.0736 -0.0346  0.0652
16502W        W31971   2.735   8.950  13.285  0.1558 -0.2665  0.2542
16503W        W31972  17.113   9.526  14.786 -0.0421 -0.1500  0.1637
16504W        W31973  15.714   5.138   2.037  0.0291 -0.2542 -0.0566
16505W        W31974  12.849  12.774   0.450 -0.1150  0.2589 -0.0943
16506W        W31975  17.884  11.687  14.078  0.0423 -0.2927 -0.3304
16507W        W31976   5.232   9.202   0.418 -0.0083 -0.0274 -0.0696
16508W        W31977  11.720  18.351  11.847 -0.2585 -0.2359  0.1195
16509W        W31978   5.124  16.650   2.839 -0.1065 -0.0347 -0.0032
16510W        W31979  12.855  13.576  11.269  0.2579 -0.1615  0.2167
16511W        W31980   3.258  18.102   2.077 -0.0685 -0.0773  0.4594
16512W        W31981  10.567   3.402  13.623  0.1622  0.1936 -0.0529
16513W        W31982   8.268   5.532   1.078 -0.0586  0.0163  0.2359
16514W        W31983  14.502  13.374  11.160  0.1418 -0.0732 -0.1976
16515W        W31984  11.372   6.478   1.543 -0.3550 -0.0062 -0.1055
16516W        W31985   2.098  11.164  10.168  0.5685 -0.0794  0.1651
16517W        W31986  10.276   9.238   4.482  0.0642  0.1807  0.4379
16518W        W31987  11.968   9.135   0.124  0.3105 -0.0776 -0.1543
16519W        W31988   3.367  13.447  10.892  0.0385 -0.1456  0.2638
16520W        W31989   6.521  17.504   1.759 -0.0011 -0.0396  0.2405
16521W        W31990   2.533  10.311  14.454 -0.3715 -0.2922 -0.1365
16522W        W31991  18.215   3.663  11.594 -0.3566  0.0096  0.0679
16523W        W31992   2.587   0.350  13.743  0.4254  0.1182 -0.1252
16524W        W31993   4.312  12.237  13.024 -0.1658 -0.1782  0.1646
16525W        W31994   8.224   1.500  12.066  0.0143 -0.0474 -0.0476
16526W        W31995   0.949  14.787   2.934  0.0943 -0.2105 -0.4074
16527W        W31996  15.613   5.418   0.039 -0.1123  0.0232 -0.1717
16528W        W31997   9.336  13.802   3.025  0.0766 -0.0425  0.0075
16529W        W31998  13.629  11.801   1.295  0.0147 -0.0466  0.2393
16530W        W31999   6.418   8.784   9.681 -0.1758  0.0777  0.2624
16531W        W32000   7.856   1.583  15.140  0.0586 -0.2351  0.3403
16532W        W32001   4.725  13.308   5.308  0.1563 -0.0568 -0.0573
16533W        W32002  10.671  17.793  11.281  0.0717  0.1217 -0.0880
16534W        W32003  10.145   4.063  10.405 -0.2521 -0.0657 -0.2988
16535W        W32004  12.229  16.849  14.620  0.1510  0.4636 -0.1499
16536W        W32005  10.520   1.814  11.868 -0.0982 -0.0272 -0.2291
16537W        W32006   7.211   8.993  11.735 -0.2320 -0.1776  0.2209
16538W        W32007   1.049   3.821  15.310 -0.1587 -0.5641  0.2608
16539W        W32008  12.237  10.815   9.810 -0.0312 -0.3851  0.0030
16540W        W32009   5.980  17.135  12.616 -0.0251 -0.1492 -0.1454
16541W        W32010   2.552   7.797   1.591  0.1444  0.1751 -0.0254
16542W        W32011  16.777  14.526   4.708  0.1494  0.2673  0.1732
16543W        W32012  12.336   2.058  15.050 -0.0955 -0.0998  0.0371
16544W        W32013  14.049   1.277   5.531  0.1377 -0.1684 -0.1196
16545W        W32014  13.038   1.864   1.026  0.0633  0.2361  0.0033
16546W        W32015  11.348   0.383  12.524 -0.2131 -0.5187  0.0577
16547W        W32016   7.948   9.986   2.998 -0.2683  0.2451 -0.0320
16548W        W32017  10.319  16.833   3.460  0.2160 -0.1110 -0.2412
16549W        W32018   4.157   1.824  10.779  0.0110 -0.0795 -0.1943
16550W        W32019   4.195   0.272   3.473 -0.0279 -0.0382 -0.0300
16551W        W32020  17.845  17.960   4.676 -0.2861  0.2304  0.0217
16552W        W32021   4.054  15.899  12.840 -0.1292  0.0567 -0.0792
16553W        W32022   4.034  13.266  11.949  0.3346  0.0437 -0.1885
16554W        W32023   9.811  12.632  13.516  0.0972 -0.1228 -0.4506
16555W        W32024   5.058   3.240   4.202  0.2904  0.0705 -0.1429
16556W        W32025   7.167  14.600   4.516  0.1106  0.0354  0.0635
16557W        W32026   8.914   2.862   2.884 -0.2422  0.0814 -0.0967
16558W        W32027  11.255  18.315   4.061 -0.1162 -0.0275  0.0746
16559W        W32028  18.408  11.280  14.795  0.2203  0.0171  0.1697
16560W        W32029   7.755   1.756   4.375  0.0385 -0.2809  0.1152
16561W        W32030   7.655   4.091  10.593 -0.3042  0.0979  0.1774
16562W        W32031   2.984   4.862  12.469 -0.2673 -0.2673 -0.0607
16563W        W32032  10.242  10.817   4.031  0.2049 -0.0113  0.5345
16564W        W32033   4.931  13.078   2.588 -0.0529 -0.3129 -0.2621
16565W        W32034  15.368  15.599  13.956  0.1308 -0.0332 -0.0416
16566W        W32035  17.838   0.657   1.138 -0.1886 -0.1693 -0.5374
16567W        W32036  18.753   1.643  12.649 -0.1397  0.1701  0.0357
16568W        W32037   4.611  14.324   3.159 -0.1689 -0.0455  0.2842
16569W        W32038   3.133   4.957  12.010 -0.1320  0.1146  0.0475
16570W        W32039   0.059   4.542   3.536  0.0228 -0.0138 -0.0912
16571W        W32040  15.419   3.447   4.688 -0.0877 -0.2314 -0.0774
16572W        W32041  17.002  12.626  12.845  0.1308 -0.1201  0.1284
16573W        W32042  18.468   0.512  15.429  0.1583 -0.0044  0.1331
16574W        W32043   9.496  14.257  13.454 -0.2082  0.1659  0.1179
16575W        W32044   9.071   6.067   0.416  0.0413 -0.0373 -0.0677
16576W        W32045   7.701  13.800  12.629  0.1249  0.1339  0.2032
16577W        W32046  10.235  11.014   3.476 -0.0345  0.0454 -0.2258
16578W        W32047  16.405  10.555   1.941 -0.1632 -0.3591 -0.0592
16579W        W32048   1.249  12.688  14.858  0.0134  0.0790 -0.1264
16580W        W32049   7.128   5.731   5.408 -0.2465  0.1708 -0.1297
16581W        W32050  13.994  13.941   0.377 -0.0939 -0.2299  0.1386
16582W        W32051   1.941  16.877  13.166 -0.2258  0.0159 -0.3203
16583W        W32052   0.012  16.861  10.195 -0.0712  0.0031 -0.0942
16584W        W32053  16.690   5.292   1.966 -0.1588  0.2635  0.2173
16585W        W32054   0.164   7.648  14.938 -0.0307 -0.2156 -0.1448
16586W        W32055   0.823   4.361  11.079  0.2665  0.1137  0.2909
16587W        W32056   7.559   6.920   0.346  0.0257 -0.1270 -0.1829
16588W        W32057  12.721   0.426   2.199 -0.2101 -0.0021  0.1604
16589W        W32058  13.448   6.795  10.800 -0.0960  0.0816  0.2169
16590W        W32059   2.127   7.905   1.897  0.1611 -0.5106 -0.0261
16591W        W32060   1.765  13.935  14.345 -0.2857 -0.1375  0.0149
16592W        W32061  13.141  13.328   5.070 -0.0725  0.0030  0.1623
16593W        W32062  12.831  17.453  12.450 -0.0404 -0.3259  0.0029
16594W        W32063   6.155  10.175  11.466 -0.0856  0.0648 -0.0677
16595W        W32064   7.712   7.024   3.721 -0.3758 -0.2669 -0.0827
16596W        W32065   9.026   3.470  12.999  0.2286 -0.1705  0.0028
16597W        W32066  18.186   9.673  11.986 -0.1513  0.0979 -0.0797
16598W        W32067   3.121  16.022  14.074 -0.0166 -0.0545  0.2143
16599W        W32068  10.613  12.275   3.730  0.2677 -0.0007 -0.0381
16600W        W32069  14.351  12.252   3.145  0.1688 -0.1303  0.1784
16601W        W32070  10.756   5.548  13.249 -0.1380 -0.1755  0.0326
16602W        W32071  11.269  11.655  15.394 -0.0141  0.0005  0.0929
16603W        W32072  11.769   8.218  10.641  0.1541  0.0969  0.1117
16604W        W32073  17.655   3.582   0.031 -0.0249  0.2612 -0.0034
16605W        W32074   5.213  13.141   1.142 -0.0501  0.2763 -0.2946
16606W        W32075  16.914  15.185  14.464  0.1733  0.0761 -0.1272
16607W        W32076  18.113  14.570   3.090  0.4155 -0.0382 -0.1215
16608W        W32077   9.251  11.455   2.191  0.1509  0.1939 -0.0506
16609W        W32078   1.701   7.526  10.859  0.2029 -0.0333 -0.1460
16610W        W32079  13.041   7.785   5.338  0.1502  0.3790 -0.2058
16611W        W32080  11.554  15.102  14.850 -0.2864  0.1065  0.5252
16612W        W32081  17.014  14.957   4.618  0.0801  0.0993  0.0212
16613W        W32082   5.675   1.250  12.392 -0.0047  0.0491  0.1608
16614W        W32083  16.179   2.987  12.795  0.1001  0.1021  0.0156
16615W        W32084  12.417  11.229   5.455 -0.0287 -0.0035 -0.0980
16616W        W32085   5.184   0.660  10.619 -0.2756 -0.1446  0.0641
16617W        W32086   1.988  16.510  15.353 -0.1535 -0.0813  0.0199
16618W        W32087  18.184   4.042   0.557  0.0676  0.0884 -0.0061
16619W        W32088   1.007  16.861   2.004  0.0584  0.0004 -0.1919
16620W        W32089  12.017  17.918  11.944 -0.4698  0.0679 -0.2177
16621W        W32090   7.959   1.663  13.275  0.1843 -0.3476  0.0908
16622W        W32091   9.789  12.066   5.181  0.0068 -0.2796  0.2443
16623W        W32092   7.625   4.083   9.862 -0.0271 -0.0705  0.1500
16624W        W32093  12.632  18.119  11.282 -0.3710 -0.2031 -0.2199
16625W        W32094   7.037  13.188   2.720  0.0692 -0.3871 -0.1505
16626W        W32095  15.651  10.824   2.668  0.0408 -0.3893  0.2350
16627W        W32096   6.184  17.307   5.604  0.1961  0.0907 -0.1017
16628W        W32097   0.055  14.600   0.652 -0.0241  0.1368  0.0023
16629W        W32098  12.845   0.904  13.493 -0.2982  0.0033  0.1892
16630W        W32099   2.057   2.189   0.197  0.4178  0.0863  0.0626
16631W        W32100   1.586   3.012   2.557  0.3282 -0.2121 -0.4050
16632W        W32101  15.990   8.333   4.578 -0.0076 -0.1123 -0.0755
16633W        W32102  11.547   1.459  13.452  0.3390  0.1273 -0.0421
16634W        W32103  17.322   8.081   2.257 -0.2758 -0.0350  0.0443
16635W        W32104   8.262   9.308  14.457  0.0262  0.1195  0.0297
16636W        W32105   9.028  11.213   2.601  0.0910 -0.2856  0.0780
16637W        W32106  13.548  12.177   5.326  0.1298  0.4174  0.1665
16638W        W32107   4.510   4.246   4.691  0.0124 -0.0046 -0.1582
16639W        W32108   0.853  13.421  12.604  0.3099 -0.1917  0.2439
16640W        W32109   9.150   3.371   0.104 -0.0942  0.2258  0.1084
16641W        W32110  17.800   7.943  12.022  0.1676 -0.1491  0.0908
16642W        W32111  10.965  11.452  15.021  0.1092  0.0181 -0.2299
16643W        W32112   4.888  12.682  12.209  0.0987 -0.1186 -0.2167
16644W        W32113   8.853   5.683   1.163 -0.0368  0.1012  0.1153
16645W        W32114  14.658  10.118   4.228  0.4416  0.2178 -0.1361
16646W        W32115  13.755  11.127  13.513  0.1707 -0.1118 -0.3289
16647W        W32116  15.015  10.518   1.443  0.2497  0.0545 -0.2221
16648W        W32117   5.521   2.291  13.130  0.0399  0.1488 -0.0784
16649W        W32118   9.845   2.550   0.122  0.0635 -0.2208  0.0980
16650W        W32119  13.192  17.216   5.459  0.0026  0.1733 -0.1955
16651W        W32120   5.789  14.174   1.754  0.0560  0.1337  0.0507
16652W        W32121   9.443   1.691   2.974 -0.1324 -0.1482  0.0431
16653W        W32122  16.047  17.432  12.168  0.2961 -0.0284 -0.0465
16654W        W32123  14.129   9.808   1.239 -0.2497  0.1572  0.2262
16655W        W32124  13.143  16.594   3.619  0.0370  0.0254 -0.3493
16656W        W32125   6.119   6.086  11.330 -0.4905 -0.3595  0.0207
16657W        W32126  15.070  13.021  12.635 -0.1166 -0.2163 -0.1696
16658W        W32127  18.116  14.469   3.570  0.0346 -0.3708 -0.2128
16659W        W32128  13.282   3.191  12.132  0.3556  0.0993 -0.1198
16660W        W32129  12.565   7.225  10.747 -0.2153 -0.1652  0.0396
16661W        W32130  17.992  10.141  13.384 -0.0475  0.0791  0.1678
16662W        W32131   6.777  16.405  11.456 -0.2789  0.0842  0.1215
16663W        W32132  12.914  16.622  11.361 -0.2065  0.2094  0.0233
16664W        W32133  18.058  15.782  14.281  0.0706 -0.0890 -0.0046
16665W        W32134  13.107  14.147  11.986  0.3962 -0.4119  0.1207
16666W        W32135  12.317  10.978   1.658  0.0066  0.0240 -0.0742
16667W        W32136   0.798  14.153  15.300  0.3654 -0.1611 -0.0148
16668W        W32137   0.452   0.139   4.577  0.1908  0.3814  0.2951
16669W        W32138   9.412   2.626   2.498  0.3511  0.1592  0.0435
16670W        W32139  10.670   7.222   2.653  0.2692 -0.1104 -0.2176
16671W        W32140  14.523   1.837   3.009  0.2758  0.1258 -0.2003
16672W        W32141   6.982   9.958  15.094 -0.0486  0.1726 -0.0271
16673W        W32142  10.214   2.798   3.008 -0.0332  0.1807  0.2025
16674W        W32143  11.640   3.902   5.051 -0.0701 -0.3445  0.1607
16675W        W32144  12.897  12.110   1.539 -0.1665 -0.2836 -0.2602
16676W        W32145  11.576  15.686  14.723 -0.0799  0.4284 -0.1014
16677W        W32146  17.745   1.187   0.417 -0.0149  0.2170  0.3295
16678W        W32147  16.813  13.520   2.832 -0.1742 -0.1526  0.3475
16679W        W32148  12.671  15.484   0.630 -0.4382 -0.0638 -0.1502
16680W        W32149  12.800  13.736  14.613  0.0790 -0.1519  0.0504
16681W        W32150  10.158  12.063   2.376 -0.1126 -0.2436  0.2184
16682W        W32151   2.264   8.013  12.155 -0.1136  0.1596 -0.0087
16683W        W32152   6.806  11.331  10.812 -0.0851  0.2076  0.1650
16684W        W32153   1.534  16.089   1.062 -0.0433 -0.2645 -0.0299
16685W        W32154  15.824  17.826   1.950  0.0684  0.0194 -0.0762
16686W        W32155   6.178   7.453   1.420  0.0821 -0.1199  0.2434
16687W        W32156  11.745   5.341   1.822 -0.4158  0.3403 -0.3983
16688W        W32157  18.314   9.201   9.515  0.1681 -0.0394 -0.0635
16689W        W32158   5.220   6.616   1.640 -0.3097 -0.1513  0.0551
16690W        W32159  17.683  18.488  13.650  0.3299  0.0509  0.2310
16691W        W32160   3.816  17.559  13.253 -0.2131 -0.1833  0.1062
16692W        W32161   0.357   5.838  15.389  0.1404 -0.1067  0.2087
16693W        W32162   8.916   9.606   4.157  0.1312  0.1632 -0.0406
16694W        W32163   8.455  13.353   4.849  0.1244  0.0046 -0.1269
16695W        W32164   7.865   1.466   1.406  0.0224 -0.0337  0.2128
16696W        W32165  14.286   7.140   5.226 -0.1280 -0.3204  0.0283
16697W        W32166   9.746   5.884   3.808  0.0132 -0.1294 -0.0441
16698W        W32167  14.726   8.925  11.468  0.1457  0.4627  0.0548
16699W        W32168   6.761   1.346  12.064 -0.1043  0.3496  0.0506
16700W        W32169   2.741   0.374  11.865 -0.0917 -0.0320 -0.1106
16701W        W32170   3.057   3.574  10.615 -0.0167  0.0460  0.1902
16702W        W32171  15.003   2.200  12.865 -0.0172 -0.1281  0.0675
16703W        W32172  15.833  17.949  10.431  0.0403 -0.1282 -0.2647
16704W        W32173  16.882  16.968   4.045  0.0135 -0.0408  0.2665
16705W        W32174   7.053  17.165   3.416 -0.0419  0.1486 -0.0337
16706W        W32175   2.754  11.741  12.523 -0.3192  0.0120  0.0445
16707W        W32176   0.460  16.945   6.159  0.2625 -0.0075  0.3785
16708W        W32177   1.802   8.232  12.148  0.0424 -0.3573  0.0121
16709W        W32178   6.207  18.742   4.824  0.0990 -0.3470 -0.0916
16710W        W32179   3.543   3.632  15.370 -0.1384 -0.0600 -0.0799
16711W        W32180  16.556  13.487   0.741  0.2800 -0.0970 -0.1839
16712W        W32181   9.452   1.832   0.629 -0.1496  0.0862  0.1074
16713W        W32182   3.480   2.560   0.694  0.0486  0.1248  0.2995
16714W        W32183   7.721  10.461  12.581  0.2622 -0.0997  0.1711
16715W        W32184   8.529  11.451  13.668 -0.2596 -0.0322  0.1150
16716W        W32185   7.188   2.188  13.645  0.2689 -0.0347  0.1355
16717W        W32186   2.869   2.678  12.691 -0.1617 -0.0021  0.1660
16718W        W32187   0.887  12.072  13.096  0.2755  0.0497  0.1837
16719W        W32188   1.593   3.237   4.804  0.1513 -0.0630  0.2673
16720W        W32189   4.466   7.983   4.905 -0.0377  0.1085 -0.2692
16721W        W32190   8.979  10.910   5.132  0.2835  0.3643  0.0670
16722W        W32191  10.109  10.568   4.595 -0.1023  0.1644  0.2892
16723W        W32192  10.013  13.759  12.741  0.1981 -0.1351  0.0101
16724W        W32193  10.110   5.008   3.355 -0.2889  0.1741  0.3882
16725W        W32194   7.104   6.669  10.321 -0.0386  0.0376  0.0906
16726W        W32195  14.616   1.257   2.262 -0.3152 -0.1806 -0.0384
16727W        W32196  16.574  15.522  14.469  0.0635 -0.4771 -0.3413
16728W        W32197  14.562   4.152   3.548  0.0538 -0.0593  0.1885
16729W        W32198  10.265   5.634   1.252  0.0812  0.2506  0.0500
16730W        W32199  15.886  15.250   4.735  0.0171  0.2447  0.1995
16731W        W32200   5.813   1.867  15.325  0.0884  0.1344 -0.1999
16732W        W32201   0.618  16.703  15.504 -0.0647 -0.1038 -0.1069
16733W        W32202   2.968   3.510  12.095  0.1102 -0.0437 -0.0056
16734W        W32203  12.601   6.408  14.188 -0.2372  0.0800  0.1193
16735W        W32204  10.103   5.130   1.020  0.2950 -0.1342  0.2097
16736W        W32205  11.862  11.933   3.464  0.3364  0.2290 -0.1089
16737W        W32206   2.689   4.409  10.873 -0.0589 -0.1454  0.2667
16738W        W32207   7.473  17.005   4.987 -0.3195  0.0618 -0.2528
16739W        W32208   8.112   1.975  12.318 -0.1305 -0.0336  0.0168
16740W        W32209  16.507  17.260  13.515 -0.2428 -0.0782  0.1417
16741W        W32210  17.970   2.745   2.778 -0.2567  0.0196 -0.1273
16742W        W32211   5.406   5.971  15.061 -0.0733  0.0793  0.1821
16743W        W32212   4.440   3.932  12.841  0.0650  0.0024  0.2083
16744W        W32213  15.786   3.344  12.826 -0.3900 -0.0509 -0.6833
16745W        W32214  16.418  15.043  11.593 -0.0037 -0.0748  0.2628
16746W        W32215   3.255   7.549  15.145 -0.0203  0.1691 -0.3172
16747W        W32216   3.289   8.197  12.856 -0.3063  0.2938 -0.2343
16748W        W32217  12.053  17.295   1.967 -0.2521  0.0599  0.2160
16749W        W32218  11.469   3.512   1.922 -0.2023 -0.1280 -0.0530
16750W        W32219   5.590   3.292  11.342  0.3965 -0.1639 -0.0003
16751W        W32220   9.472  11.686  13.338  0.1289  0.2236  0.2048
16752W        W32221   3.824   5.999   0.144 -0.0168  0.2380  0.1707
16753W        W32222  12.800   3.420  11.765  0.2592  0.4646 -0.0147
16754W        W32223   2.524  12.275   1.332 -0.1920 -0.3450  0.0383
16755W        W32224   6.163  12.571   2.630 -0.3477 -0.0472 -0.2618
16756W        W32225   2.245  15.463  12.054  0.3149  0.1197  0.0283
16757W        W32226   4.266  11.046   0.924  0.0201 -0.0036 -0.0912
16758W        W32227   0.694   2.470  11.452  0.1148 -0.2898  0.1845
16759W        W32228   8.757  11.646   4.973 -0.0997 -0.0539  0.1055
16760W        W32229   9.390   0.626  14.690  0.3598 -0.1344  0.0287
16761W        W32230  13.630   3.015   4.918 -0.0197 -0.1371  0.0643
16762W        W32231  11.568   8.820   4.769 -0.3324 -0.1672 -0.0217
16763W        W32232  11.100   5.874  14.189  0.1758  0.0054 -0.0043
16764W        W32233  11.226  12.756   3.419 -0.0290  0.1992 -0.0682
16765W        W32234   6.506  15.640   0.085  0.1877  0.2686  0.3200
16766W        W32235   7.514   8.953   1.823 -0.2325  0.1280 -0.0419
16767W        W32236  17.710  16.839   1.148 -0.1244 -0.1229 -0.1950
16768W        W32237   7.673   9.906  13.759 -0.1815  0.0159 -0.2022
16769W        W32238  15.607  15.062  10.952  0.3185 -0.2052 -0.0169
16770W        W32239  16.223  14.132  14.512  0.2028 -0.1843  0.0576
16771W        W32240   3.320   1.049   3.345  0.0886 -0.2004 -0.2607
16772W        W32241  12.801   3.533   1.708 -0.2392  0.0549  0.0571
16773W        W32242  10.141   3.754  14.553 -0.4417  0.4718 -0.0677
16774W        W32243  11.870   2.228  12.281  0.0270 -0.2590  0.1248
16775W        W32244   7.785   0.310   0.008 -0.0373 -0.2776 -0.1622
16776W        W32245  16.924   7.855  13.212 -0.2013 -0.1170 -0.2418
16777W        W32246   7.380   3.638   0.822 -0.3722  0.2572 -0.5291
16778W        W32247   5.131   8.566   4.565 -0.2311  0.0921  0.1286
16779W        W32248   9.695   6.642  14.651  0.1778  0.4924 -0.1461
16780W        W32249  17.744   4.195  14.155  0.1387  0.0105 -0.2970
16781W        W32250  18.900   9.336   1.060 -0.0960 -0.0086  0.1149
16782W        W32251   5.971  10.168   0.393 -0.0019  0.1524  0.1729
16783W        W32252   3.319  12.168  14.538 -0.0747 -0.1548  0.0179
16784W        W32253  12.822  15.189   2.777  0.1217 -0.0531 -0.2108
16785W        W32254   3.315   0.743   0.392  0.0383  0.2169 -0.3659
16786W        W32255   5.763   0.334   1.510 -0.0500  0.2789 -0.0428
16787W        W32256  15.326   2.076   2.781  0.0812  0.0746  0.0050
16788W        W32257   1.170  15.794   3.050 -0.0778  0.1855  0.2706
16789W        W32258   7.350   4.647  12.760  0.1947  0.1827 -0.2273
16790W        W32259  15.835   3.843   2.978 -0.2481  0.0017  0.3643
16791W        W32260  13.226   3.143  10.049  0.0175 -0.2393  0.2262
16792W        W32261   5.231   5.399   2.312  0.0166 -0.0236  0.3689
16793W        W32262   8.068  16.512   2.664 -0.1755  0.0065  0.0550
16794W        W32263   3.300   8.622   5.347 -0.1124 -0.1117  0.2270
16795W        W32264   9.604  15.292   1.820  0.1789 -0.0313 -0.0655
16796W        W32265  10.154   9.816  11.155 -0.1404 -0.0912 -0.0688
16797W        W32266   3.323   5.404   3.972 -0.0224 -0.2597 -0.1691
16798W        W32267  11.474  11.320  15.053  0.0573  0.1822 -0.0369
16799W        W32268   2.842   0.279  10.895  0.0873  0.1831  0.2123
16800W        W32269  12.792  17.395   3.552  0.1284 -0.1211  0.2318
16801W        W32270   1.493  16.038   0.012 -0.1142 -0.3349 -0.2414
16802W        W32271  10.582   0.142   4.387  0.0339  0.1912  0.0399
16803W        W32272   0.127  15.526  10.612  0.2699 -0.1928 -0.2906
16804W        W32273   3.834   5.755  10.919 -0.0444 -0.0944  0.2850
16805W        W32274   5.462   6.507  12.493  0.2638 -0.2861 -0.2645
16806W        W32275   7.491   6.839  12.614  0.0430  0.0468 -0.1312
16807W        W32276   2.397  13.324  11.682  0.0178  0.1569  0.1757
16808W        W32277  12.408   5.564  13.945  0.0219  0.1392  0.3657
16809W        W32278   0.621   6.404   5.038  0.0537 -0.1397  0.0256
16810W        W32279   1.690  14.495  11.812  0.2141  0.3017  0.3387
16811W        W32280  13.639   8.055   2.672 -0.1090  0.0254  0.3551
16812W        W32281  14.706   9.203   4.368  0.1116  0.1948  0.0922
16813W        W32282  14.894   5.809   3.890  0.1372 -0.0754  0.1699
16814W        W32283   4.096   5.182   1.972  0.4550 -0.0237  0.1265
16815W        W32284   9.786  18.604  15.378  0.6819  0.0265  0.2149
16816W        W32285  15.886   6.667  13.930  0.0382  0.0537 -0.1469
16817W        W32286  11.759   4.144   2.528  0.0403  0.1315  0.1723
16818W        W32287   1.607  18.688   1.140  0.1504 -0.3865 -0.0093
16819W        W32288  18.534   2.766   2.886  0.1518  0.2852 -0.0315
16820W        W32289  13.316  18.892  13.923  0.1336 -0.3188  0.0435
16821W        W32290  10.692   9.251  10.954  0.0122  0.2418  0.0747
16822W        W32291  12.924   9.879   2.885  0.1252  0.0175  0.0705
16823W        W32292   4.526   9.869  12.806  0.2198  0.0636 -0.0395
16824W        W32293  16.730  17.987  13.028 -0.0361  0.0567  0.1731
16825W        W32294  18.273  11.808   0.463  0.2611 -0.0084  0.0762
16826W        W32295  18.546   9.841  11.687  0.2195 -0.1188  0.4545
16827W        W32296   8.418   4.870   2.670  0.2995  0.2173 -0.2123
16828W        W32297  15.016  10.807  13.014 -0.1106 -0.1138 -0.3569
16829W        W32298   2.626   2.482   4.504  0.1024 -0.0068 -0.2763
16830W        W32299   4.317   0.303  13.672  0.0185  0.1030  0.1490
16831W        W32300   1.912   0.805  15.104 -0.0898  0.1499 -0.3474
16832W        W32301   5.536   3.217   1.429 -0.2141 -0.4208 -0.2119
16833W        W32302  11.050  17.424  12.879  0.2032 -0.1494 -0.0121
16834W        W32303  13.782   4.918  14.767  0.0656 -0.1558  0.0320
16835W        W32304   1.186  12.349  10.346 -0.1153 -0.3115 -0.1175
16836W        W32305   1.419   4.261  13.405 -0.0844 -0.0762  0.1271
16837W        W32306   7.275   1.062  10.764  0.0858  0.1317 -0.0424
16838W        W32307  12.003  17.004   0.018  0.0005 -0.0607 -0.1539
16839W        W32308   4.746   1.038   0.666 -0.1463  0.1648  0.1581
16840W        W32309   6.473   2.795  10.641  0.2268  0.3268 -0.1606
16841W        W32310   8.646  16.001  14.973 -0.0046  0.1398  0.0166
16842W        W32311  18.419   4.426  15.129  0.3356  0.2232 -0.2163
16843W        W32312  11.158  11.719  14.044 -0.2180  0.1886 -0.1701
16844W        W32313  18.719   9.682  11.223 -0.2949  0.0706  0.1606
16845W        W32314   8.389  10.069   0.614  0.2046 -0.0056 -0.0204
16846W        W32315  14.917   4.183  14.565  0.3074  0.2396  0.0260
16847W        W32316   3.503   8.943   9.770  0.0345  0.2792 -0.2858
16848W        W32317  16.076  16.701   3.021  0.0475  0.0811 -0.0804
16849W        W32318   5.001  16.837   0.973  0.0882 -0.0297  0.3656
16850W        W32319   2.171  10.333   2.675 -0.2768  0.1124 -0.0888
16851W        W32320   9.747   4.465  14.915 -0.0930  0.1996 -0.0137
16852W        W32321   3.514  15.289   5.296 -0.2754 -0.2413 -0.1251
16853W        W32322  15.066   2.174  12.166 -0.1416 -0.0439  0.2542
16854W        W32323  15.060  18.308  10.578 -0.0663 -0.2794  0.0674
16855W        W32324  13.074   1.974  13.397 -0.2898  0.0530 -0.1287
16856W        W32325  12.686  18.234   4.674 -0.0053 -0.1069  0.0133
16857W        W32326   0.960   8.615   1.775 -0.2590 -0.1315  0.1276
16858W        W32327   9.917   6.944   4.609 -0.0594  0.0418  0.0477
16859W        W32328  14.661   6.592   4.110  0.1459  0.2117  0.1923
16860W        W32329   6.507  13.564   3.873  0.0743  0.3865 -0.0011
16861W        W32330  17.375  10.105   1.243 -0.1181 -0.2452  0.3373
16862W        W32331  16.327   2.738  13.949  0.3244  0.0175  0.0938
16863W        W32332   2.466   6.997   3.168 -0.0917 -0.2565 -0.0258
16864W        W32333  12.850   3.990  14.919 -0.0694  0.0824 -0.2602
16865W        W32334  17.212  12.523  14.093 -0.3793 -0.0104 -0.2540
16866W        W32335   3.532  14.570   0.385 -0.1818 -0.2959 -0.1005
16867W        W32336  14.970   0.241  15.120 -0.0054  0.0990  0.2022
16868W        W32337  17.552   4.538  12.794  0.1931 -0.1740 -0.2235
16869W        W32338  11.399   2.110  14.169 -0.3433  0.1747 -0.1049
16870W        W32339  14.924  10.416   2.155 -0.0000 -0.0008  0.0164
16871W        W32340   0.887   5.630  10.034 -0.0998 -0.0878 -0.0428
16872W        W32341  15.983  11.694   1.772 -0.3484  0.2771  0.2044
16873W        W32342   7.619   6.935  10.205 -0.2296  0.1100  0.0247
16874W        W32343  10.546  17.524   1.110 -0.0314 -0.3093 -0.3427
16875W        W32344   9.340   4.380  13.518 -0.2494 -0.3424 -0.1483
16876W        W32345   1.084   1.855  15.339 -0.0230  0.2884 -0.0538
16877W        W32346   4.866   9.032   3.290 -0.2659  0.0641 -0.1023
16878W        W32347   9.505   9.431   3.524  0.2305  0.2265 -0.3252
16879W        W32348   7.574   7.188   1.982  0.2571 -0.3356 -0.5965
16880W        W32349   2.442  10.335  15.326 -0.0093  0.2809 -0.1268
16881W        W32350   6.651   8.571   4.811 -0.3046 -0.1299  0.3323
16882W        W32351   6.635  11.075  14.105  0.2301 -0.0872  0.0343
16883W        W32352   9.490  17.349   0.318  0.0219  0.1449  0.2181
16884W        W32353  11.425  18.015   2.288 -0.0870  0.0683  0.3215
16885W        W32354   8.820  11.188   3.869 -0.0810  0.1633 -0.0171
16886W        W32355   5.623  17.051  14.363 -0.4206  0.0013 -0.0300
16887W        W32356   2.558  17.598  12.433  0.1196  0.0358 -0.1357
16888W        W32357   4.542  16.869  12.992 -0.0827 -0.0734 -0.0912
16889W        W32358   8.402   5.167   4.692  0.1521 -0.1369  0.0238
16890W        W32359  15.804   2.393   4.389 -0.2410  0.0068 -0.0618
16891W        W32360  17.421   7.254  11.546  0.4609 -0.1575 -0.1388
16892W        W32361  17.163   6.764  10.251  0.1282 -0.1569  0.0238
16893W        W32362  14.344  12.764  15.443  0.1314  0.1632  0.1371
16894W        W32363   4.367   0.119   6.135 -0.1763 -0.0353 -0.1151
16895W        W32364  15.703   1.086  11.189 -0.1843  0.1538 -0.1371
16896W        W32365  18.810   5.662  14.036 -0.1145 -0.1507 -0.1164
16897W        W32366  18.138   1.080   1.368 -0.1091  0.0311  0.0751
16898W        W32367  12.897  10.770  12.216  0.0382  0.3879 -0.0655
16899W        W32368  16.233  12.357  13.027  0.1893  0.0974  0.3295
16900W        W32369  15.191   9.478   3.238 -0.2093  0.1429  0.0428
16901W        W32370   7.973   6.139  10.330  0.1646 -0.1411  0.0419
16902W        W32371  11.805  12.023   9.465 -0.2437 -0.3483 -0.1593
16903W        W32372   6.668   0.916  10.975 -0.4208 -0.4933  0.1893
16904W        W32373  16.282  11.906  13.879  0.0102  0.5954  0.0137
16905W        W32374   3.235   9.314   5.839  0.1601 -0.2180 -0.2337
16906W        W32375   9.310  13.354   4.682 -0.0094  0.0438 -0.1579
16907W        W32376   3.131  14.316   4.581 -0.0231  0.0979  0.0201
16908W        W32377   4.806   3.487  15.050 -0.0821  0.1431 -0.0933
16909W        W32378  18.154   5.242  15.075  0.0980  0.3088 -0.2932
16910W        W32379  14.996   2.084  10.440  0.4448  0.3267  0.2416
16911W        W32380  16.528  11.180  13.441  0.0599 -0.1858  0.3615
16912W        W32381  15.327   7.027   0.118 -0.0774 -0.0380  0.0014
16913W        W32382   1.548  10.205   2.137 -0.4193 -0.0256  0.0005
16914W        W32383  13.702  14.748  14.670 -0.0072 -0.0446  0.0010
16915W        W32384   4.493   1.602  11.207  0.2192  0.0295  0.0739
16916W        W32385   5.107  13.748   4.858 -0.1390 -0.2431 -0.1818
16917W        W32386   6.376   3.825  12.577 -0.2021  0.1420  0.4047
16918W        W32387  16.451  18.609   4.002  0.3514  0.1030 -0.0306
16919W        W32388   0.770  15.894  10.872  0.1078  0.0504 -0.1661
16920W        W32389   8.451  15.643   4.547  0.2970 -0.0945  0.2891
16921W        W32390  16.312   2.355  13.576  0.1792  0.0472  0.0183
16922W        W32391  17.249  11.684   3.943 -0.4790 -0.3377  0.2919
16923W        W32392   3.144  13.360   3.062 -0.0259  0.2206 -0.2044
16924W        W32393  10.352   9.748  13.390  0.1254  0.1247  0.1154
16925W        W32394  13.010  14.199  14.702 -0.1166 -0.0299  0.0483
16926W        W32395   0.445  16.303   1.288  0.1369  0.0323 -0.0119
16927W        W32396  10.734  16.171   3.510 -0.0232 -0.2709 -0.0765
16928W        W32397   8.842   6.931   4.530  0.3508  0.1395  0.1498
16929W        W32398  11.997  15.854  14.974 -0.1827  0.2521 -0.0584
16930W        W32399  11.798   2.969   1.848 -0.2653 -0.0819  0.0393
16931W        W32400  11.287  18.565   4.935 -0.0781 -0.1084  0.2530
16932W        W32401  13.684   9.288  14.726 -0.0547  0.2949 -0.1235
16933W        W32402  16.319  15.155  12.120  0.0781 -0.2267  0.1000
16934W        W32403   9.397   6.499   1.512 -0.0329 -0.1780 -0.0004
16935W        W32404   7.662   8.809  14.835  0.0676  0.3488  0.2892
16936W        W32405  11.657   8.206   0.045 -0.0955  0.0456 -0.1130
16937W        W32406  12.995  11.791   1.856 -0.1482 -0.1980  0.1073
16938W        W32407   4.925  11.286  12.640 -0.1272 -0.2559 -0.0875
16939W        W32408  14.678  17.144  11.684 -0.0587  0.0588 -0.1026
16940W        W32409   6.230   9.833   0.176  0.1750 -0.1514  0.2266
16941W        W32410  12.762   9.959   4.817  0.0592 -0.1371  0.1005
16942W        W32411  18.719  17.964   0.344  0.1483 -0.2435  0.4846
16943W        W32412   9.879   8.825  10.100 -0.0164 -0.1449  0.0475
16944W        W32413   4.237  11.788   2.603  0.1137  0.2847  0.1026
16945W        W32414   9.729   1.712   3.386 -0.1570  0.1307 -0.3371
16946W        W32415   4.023   4.342   1.002 -0.0198  0.1519  0.0005
16947W        W32416  11.463  11.388   2.437  0.0035 -0.1433  0.0160
16948W        W32417  18.406   5.657   1.106 -0.0869 -0.4878  0.0991
16949W        W32418  10.154   2.633  11.581  0.0502 -0.1317  0.0116
16950W        W32419   2.795  17.967   1.302 -0.1533 -0.4480  0.0388
16951W        W32420   6.132   9.748   4.425 -0.0834 -0.0021 -0.1152
16952W        W32421  15.446   6.266   1.643 -0.0890  0.2632  0.0536
16953W        W32422  11.757  18.079  12.538 -0.0692  0.2068 -0.0896
16954W        W32423  17.301  14.390   1.649  0.2519 -0.0898 -0.0253
16955W        W32424   2.634   1.777   4.898  0.0303 -0.0490 -0.1960
16956W        W32425   0.076   5.180  11.175 -0.3758 -0.3658 -0.1623
16957W        W32426  11.031  16.861   5.027 -0.0419 -0.3024 -0.3657
16958W        W32427  13.090  13.681   0.215 -0.0417 -0.2029 -0.2279
16959W        W32428  18.762  12.428  12.346 -0.2499 -0.0320  0.0462
16960W        W32429  15.384  17.141  14.799 -0.4624 -0.2322  0.2585
16961W        W32430  17.299  15.408   4.794  0.0484 -0.3419 -0.1119
16962W        W32431  10.587   4.334   3.715 -0.0354  0.3826 -0.0608
16963W        W32432   1.733   9.749   3.087 -0.0600 -0.1182 -0.0249
16964W        W32433   2.394   7.859  13.826  0.2804  0.0613  0.1405
16965W        W32434   7.649   8.296  13.834  0.0024  0.0242  0.0325
16966W        W32435   4.410  18.522   5.092  0.1883  0.1037 -0.4188
16967W        W32436   9.170  17.161   3.368  0.0924  0.0510  0.2096
16968W        W32437  12.313  17.664   1.861  0.2872  0.1763  0.6312
16969W        W32438   6.879   8.239  14.126  0.0479 -0.2787 -0.0466
16970W        W32439   3.466  11.229  13.387 -0.1296  0.1169  0.4080
16971W        W32440   7.403   1.245   3.960 -0.1391 -0.0530 -0.2588
16972W        W32441   2.665   7.922   2.597 -0.2022 -0.0940 -0.2302
16973W        W32442   1.623   3.999   3.130  0.2994  0.0967  0.0845
16974W        W32443  17.469   7.339   4.913  0.1502 -0.0779 -0.3330
16975W        W32444  10.611   0.854   5.737 -0.1850  0.2309  0.0197
16976W        W32445   2.182   8.000   1.374  0.0758 -0.1084 -0.0262
16977W        W32446  18.047  16.545  12.642  0.1292  0.1769 -0.1241
16978W        W32447  12.801  13.519  12.199 -0.0529  0.1666  0.3344
16979W        W32448   9.154  17.654  10.487 -0.0546 -0.1055  0.1285
16980W        W32449  18.219  10.438   4.232 -0.1648  0.0003 -0.0668
16981W        W32450   9.256   9.624  14.517  0.0754 -0.2767 -0.1227
16982W        W32451  13.497   9.879   3.826 -0.0923  0.0203 -0.0577
16983W        W32452  15.992  11.046   4.746 -0.0115 -0.2362  0.1026
16984W        W32453   4.678  14.711  13.165 -0.0410 -0.1867  0.2220
16985W        W32454   5.081   2.977   1.458  0.1792 -0.0714 -0.0336
16986W        W32455   2.001   5.557   2.432 -0.4855  0.1537  0.3005
16987W        W32456   8.930   4.878   2.614 -0.2051 -0.0153  0.1765
16988W        W32457  11.216   8.837  11.540 -0.0760  0.2873 -0.1468
16989W        W32458   9.323   4.716  14.288  0.0454 -0.3089 -0.1723
16990W        W32459  18.720  17.538  14.829 -0.1512 -0.2166 -0.0511
16991W        W32460   4.845  10.248   4.737 -0.1544 -0.2257  0.1016
16992W        W32461   2.285  18.192   5.066 -0.2221 -0.3492 -0.1389
16993W        W32462   2.475  10.967  11.967 -0.0676  0.0187 -0.2277
16994W        W32463   9.638  10.695  13.690  0.2636  0.0146  0.0782
16995W        W32464   1.801  12.524  14.593 -0.1909 -0.3094  0.1039
16996W        W32465   8.726  10.507   4.757 -0.1088  0.1107 -0.0995
16997W        W32466  16.805   5.120  12.315  0.1506 -0.0880  0.3063
16998W        W32467   3.286   0.700   9.780  0.1348  0.2129  0.1611
16999W        W32468   3.276  13.964  12.922  0.0243  0.2249  0.0630
17000W        W32469   5.965   4.538  12.424  0.3343 -0.2799  0.0359
17001W        W32470  15.000   3.113   1.268 -0.0142 -0.1887 -0.1663
17002W        W32471   9.762   1.234   1.576 -0.1448  0.2850 -0.2941
17003W        W32472   0.810  12.128  13.665  0.0277 -0.2153 -0.1334
17004W        W32473   6.836  16.617   3.262 -0.2009 -0.0483 -0.0111
17005W        W32474   9.593  16.872   2.092  0.1261 -0.3260 -0.1665
17006W        W32475  18.660   2.369   2.326 -0.4606 -0.2632 -0.3790
17007W        W32476  14.903  14.304  11.143  0.0897  0.3220 -0.0008
17008W        W32477  10.399   2.170  15.124  0.4165  0.0375  0.1093
17009W        W32478   4.392  14.438  11.612 -0.1130 -0.0591 -0.0895
17010W        W32479  13.570  18.462  14.541 -0.1381  0.0672  0.3073
17011W        W32480   6.958  16.742  12.573 -0.0093 -0.0036  0.0404
17012W        W32481   3.677  17.590   0.569  0.0056  0.6109  0.0044
17013W        W32482  18.541   6.845  12.958 -0.1640 -0.3513  0.1378
17014W        W32483   1.167  13.748   0.503  0.0002  0.1360 -0.1611
17015W        W32484   0.169  10.668  10.895 -0.0234  0.0387 -0.2649
17016W        W32485  18.414  16.713   3.346  0.4193  0.0378  0.3460
17017W        W32486   2.045   8.494   1.915 -0.1188 -0.4477 -0.0080
17018W        W32487   9.928   7.754   0.799  0.2024 -0.0639 -0.2105
17019W        W32488   3.805  11.876  13.229  0.0977  0.0016  0.2257
17020W        W32489   6.456   8.770  14.917  0.1552  0.1427 -0.3763
17021W        W32490   0.096  18.196   1.766  0.2354 -0.2808  0.1347
17022W        W32491   8.407   5.626   1.531  0.1857 -0.0645  0.2076
17023W        W32492   3.547  13.814   9.884 -0.0477  0.4268  0.2251
17024W        W32493  17.511  16.699   3.807 -0.0837  0.0215  0.0264
17025W        W32494   5.068   9.322   2.052  0.1178 -0.0218  0.5061
17026W        W32495   7.185  17.408   5.758  0.1551 -0.0367  0.0764
17027W        W32496  18.594   7.302  11.360  0.1094 -0.1906 -0.1838
17028W        W32497   2.359   1.518   4.419  0.0492  0.1452  0.4113
17029W        W32498   6.620   9.255   2.776 -0.2194  0.0252  0.2248
17030W        W32499   9.375  15.299   0.432 -0.2812  0.1014  0.0376
17031W        W32500   1.641   2.665  13.285  0.0327 -0.1359  0.0139
17032W        W32501   8.834  18.295   1.606  0.2160  0.0158  0.0638
17033W        W32502   6.046  18.527   9.830  0.1247  0.1017 -0.1293
17034W        W32503  15.856  13.854   3.659  0.1290 -0.0917 -0.1627
17035W        W32504   0.207   6.165   4.300 -0.2199 -0.2466 -0.1571
17036W        W32505  15.602   1.743   4.588 -0.0207  0.2090  0.2878
17037W        W32506  10.454  10.054  14.639  0.1415 -0.0720  0.0193
17038W        W32507  17.775   3.209  12.278 -0.2584 -0.1094 -0.0290
17039W        W32508   3.207   6.355   1.112 -0.0106  0.3050 -0.1295
17040W        W32509  17.885   1.562   2.136 -0.0992 -0.0596 -0.0805
17041W        W32510  17.512  16.361  15.318 -0.2011  0.1965 -0.1323
17042W        W32511   5.927  15.929   5.302  0.1043  0.0252  0.0729
17043W        W32512  15.772   0.004  13.177  0.0778 -0.1595  0.2560
17044W        W32513  14.734   3.201  10.428 -0.0912 -0.2594 -0.1274
17045W        W32514  15.022   5.516   1.226 -0.1406  0.2185  0.2849
17046W        W32515   3.876   2.861   4.444 -0.2377  0.2323 -0.3112
17047W        W32516  18.122   3.677   0.170 -0.0789 -0.2788 -0.1437
17048W        W32517  11.738  16.072   5.275 -0.4258 -0.0436 -0.2197
17049W        W32518  12.080   6.499  11.374  0.1892 -0.0102 -0.1122
17050W        W32519  17.234   0.502  12.059  0.1394  0.0635  0.0449
17051W        W32520  17.299  11.596  11.356  0.1853  0.1207 -0.0366
17052W        W32521   9.320   5.993   2.083  0.1106  0.1762 -0.2290
17053W        W32522  13.631  13.619   1.603 -0.0777 -0.1257  0.0805
17054W        W32523  15.199  17.670   4.555 -0.0310  0.0405  0.0249
17055W        W32524   5.799  10.087   1.275  0.1416 -0.0365  0.0667
17056W        W32525   1.596   7.737   5.878  0.1657 -0.1531  0.3502
17057W        W32526   3.114  10.108   1.313  0.0554  0.1723  0.0029
17058W        W32527   0.738  13.185   4.730 -0.2628  0.1345 -0.0335
17059W        W32528   5.704  18.133   1.773  0.3193 -0.4283 -0.0612
17060W        W32529   2.820  16.929   1.531  0.1151  0.2995  0.0618
17061W        W32530  13.294   1.251  14.937 -0.1905 -0.2177  0.1603
17062W        W32531   3.585  10.262   3.053 -0.1097 -0.0922 -0.0668
17063W        W32532   7.045   7.439   0.964  0.0097  0.0334  0.0230
17064W        W32533  13.544  15.704  12.455  0.1965 -0.0742 -0.0803
17065W        W32534   8.484  13.480  15.333 -0.0341  0.1624  0.0445
17066W        W32535   6.141  11.947   5.131  0.3936 -0.1477 -0.4526
17067W        W32536   6.102   4.200  15.393  0.1212  0.3313  0.0826
17068W        W32537   1.944  12.058  15.403  0.1615 -0.2312  0.3600
17069W        W32538   9.976  10.522  10.569 -0.2656  0.1019 -0.4081
17070W        W32539   5.627  17.208  12.304  0.1113  0.0727 -0.2819
17071W        W32540  17.899  12.731  12.899 -0.0310 -0.0577 -0.0178
17072W        W32541  16.907  16.171   3.814  0.1182  0.0304  0.1306
17073W        W32542  10.430   3.512   0.584  0.4993 -0.0886 -0.0364
17074W        W32543  13.163   9.851  11.865  0.3693  0.2682  0.2990
17075W        W32544   7.140   1.914   0.628 -0.0769 -0.1211 -0.0979
17076W        W32545   4.260   3.051   0.764  0.5528  0.1435 -0.1485
17077W        W32546   6.166  17.938  13.563  0.1197  0.0968 -0.1695
17078W        W32547   8.842  16.376  14.590  0.2626  0.3437 -0.0834
17079W        W32548   0.528  14.584  14.506  0.2147 -0.0925  0.0971
17080W        W32549  17.376   0.703  15.122  0.1192 -0.1596 -0.0801
17081W        W32550  12.766  16.338   3.900  0.1884 -0.2809  0.4626
17082W        W32551  18.817   6.636  14.879 -0.2525 -0.0315  0.0879
17083W        W32552  14.088   1.772  10.169  0.1709 -0.0484  0.0093
17084W        W32553  12.156  16.153   4.288 -0.1682  0.2057 -0.3015
17085W        W32554   2.414  13.536   0.708  0.1763 -0.0997  0.0573
17086W        W32555   0.815  11.265  12.736 -0.0189  0.2194 -0.1546
17087W        W32556   8.237   6.368  14.014  0.0883 -0.1977 -0.0518
17088W        W32557  11.050   4.175   1.920  0.1181 -0.0995 -0.1124
17089W        W32558  12.263   9.651  11.556  0.2375  0.3794 -0.1183
17090W        W32559   3.379  11.202  11.311 -0.0377 -0.0940 -0.1146
17091W        W32560  15.327  14.201   5.499  0.3940 -0.2528 -0.0961
17092W        W32561   7.921  12.783   3.100 -0.0821  0.1866  0.0767
17093W        W32562   3.708   6.309   2.310 -0.0886  0.5252  0.2217
17094W        W32563   0.575  10.556   1.885  0.0990  0.2905  0.1404
17095W        W32564  12.009  10.799  12.586 -0.1690  0.0703  0.0457
17096W        W32565   3.500   0.867  10.843 -0.0749 -0.2209 -0.2045
17097W        W32566   9.012  13.340   3.726 -0.0272 -0.2406  0.0043
17098W        W32567  14.848  11.937   1.807  0.2673  0.2268  0.1105
17099W        W32568   9.234   0.515   4.807 -0.0360 -0.3019  0.0978
17100W        W32569   9.092   9.348   3.106 -0.0464 -0.1229  0.0934
17101W        W32570   8.419   0.156   2.740  0.3714  0.3081  0.3050
17102W        W32571  13.803  16.485   0.878  0.0239 -0.1003 -0.0678
17103W        W32572   0.558  16.810   3.510  0.1548 -0.0370  0.0960
17104W        W32573  10.435   0.779  11.140  0.1816  0.0590 -0.1423
17105W        W32574   9.187   0.148   1.278 -0.1140 -0.2075  0.2106
17106W        W32575  16.782   5.645  13.357  0.0924 -0.1010 -0.5224
17107W        W32576   2.390   7.741  15.179 -0.0319  0.2245  0.2351
17108W        W32577  11.859  10.243   1.171 -0.2850 -0.1275  0.0219
17109W        W32578  18.113  10.396  10.573 -0.1993 -0.1121  0.0978
17110W        W32579   9.652  11.754  10.455  0.0016 -0.0345 -0.2457
17111W        W32580  16.423  13.834   1.122 -0.1368  0.2049 -0.0736
17112W        W32581  14.582  17.030  11.230  0.1075 -0.4806 -0.1064
17113W        W32582  11.758   4.361  13.872  0.0683 -0.2459  0.2116
17114W        W32583  14.974   9.611   1.886 -0.2224 -0.0201  0.2057
17115W        W32584   6.910   9.850  13.891  0.2006 -0.4736  0.1781
17116W        W32585  13.953  11.698  14.969 -0.2462 -0.0119 -0.0110
17117W        W32586   6.773   4.760  14.980  0.1096  0.1743 -0.2421
17118W        W32587  16.851   7.592  12.801 -0.2000 -0.4387  0.1835
17119W        W32588   5.492  13.630  13.925 -0.1477  0.0381  0.1208
17120W        W32589  12.167   1.164  11.398 -0.2243  0.1095 -0.2107
17121W        W32590  10.194  18.160   5.548  0.0777 -0.0194 -0.0192
17122W        W32591   1.489  15.271  11.975 -0.0972  0.1761 -0.2642
17123W        W32592   4.007   7.771   3.378 -0.0195 -0.1793  0.1287
17124W        W32593  16.750   9.087   4.104 -0.0162 -0.0948  0.1510
17125W        W32594  11.008  10.895  13.663 -0.0377  0.2775 -0.0291
17126W        W32595  13.960  17.594  12.801 -0.0513  0.1157  0.1430
17127W        W32596  10.901   0.421  11.068 -0.2497  0.2041  0.2362
17128W        W32597  15.751   2.688   3.167  0.1970 -0.0438  0.0841
17129W        W32598   1.978  12.047  14.824 -0.1886 -0.0987 -0.1184
17130W        W32599  13.130  15.697   0.791  0.3714  0.1917  0.1347
17131W        W32600  17.799   6.632  13.184 -0.1737  0.0620  0.0974
17132W        W32601  14.359   7.374  10.919 -0.0877 -0.1393 -0.0971
17133W        W32602  14.270   3.110  10.613  0.1590 -0.0263  0.1492
17134W        W32603  13.273   2.175   3.958  0.1312  0.0471 -0.2418
17135W        W32604  12.274  13.481   3.738  0.2535 -0.0083  0.0770
17136W        W32605  12.919  11.626  12.576  0.1760  0.1494  0.2313
17137W        W32606  16.815  14.039   2.923  0.4140  0.0607  0.0529
17138W        W32607   9.749  17.848  12.017  0.0853 -0.2228  0.0682
17139W        W32608  13.151   7.750  12.407  0.0094  0.2212  0.3049
17140W        W32609  12.920  12.132   2.268 -0.1122  0.0716 -0.2368
17141W        W32610  14.754  16.337   3.397 -0.0951 -0.3012 -0.1349
17142W        W32611   4.563   3.590   5.407  0.0261  0.1086 -0.0463
17143W        W32612  17.247  14.639  13.869 -0.0517 -0.0629  0.0872
17144W        W32613   0.367  15.593   0.515  0.0115  0.2974  0.3404
17145W        W32614   7.410   2.597  12.337 -0.1270  0.0494  0.0961
17146W        W32615  12.453   8.792   3.346 -0.0127  0.1530  0.0532
17147W        W32616   7.860  15.483  14.543 -0.1465 -0.3300 -0.0460
17148W        W32617  18.806   5.871   3.973  0.0841  0.3344 -0.1670
17149W        W32618  13.676   8.579  13.722 -0.0636 -0.1319 -0.0663
17150W        W32619   2.543  18.874  12.120  0.0834 -0.1789 -0.0518
17151W        W32620  13.132   5.703   3.726 -0.0318  0.0825 -0.0096
17152W        W32621  12.950  10.376   2.859  0.0429  0.0461 -0.2394
17153W        W32622  17.849  12.718   1.149 -0.1292 -0.1609 -0.1628
17154W        W32623  18.573   8.476  10.652  0.2079 -0.1346 -0.0178
17155W        W32624  11.588  13.310   0.751 -0.2809  0.3992 -0.5493
17156W        W32625  17.435   2.748   4.769 -0.1908  0.0812 -0.0506
17157W        W32626   5.003  13.671  12.863  0.3841 -0.1863  0.3226
17158W        W32627  17.385  12.491  12.461  0.0910 -0.3099 -0.0236
17159W        W32628   0.157  10.204   2.184  0.0695  0.0238 -0.1485
17160W        W32629  14.903   1.477   0.415  0.0342 -0.0761 -0.0727
17161W        W32630   9.687  14.755   4.780 -0.0147 -0.0173 -0.3232
17162W        W32631   7.312  16.644   2.274  0.0188 -0.0303  0.3673
17163W        W32632  11.658   5.245  13.019  0.0442 -0.0233  0.2219
17164W        W32633   5.878  15.190   0.009  0.4091 -0.0522  0.0450
17165W        W32634  10.562   0.450  15.486 -0.0181 -0.2580 -0.0108
17166W        W32635   2.616   3.692   3.297  0.2149 -0.0150 -0.0903
17167W        W32636   8.549   1.515  13.619  0.2160 -0.1876 -0.0072
17168W        W32637  14.632   4.541  10.876  0.0858  0.1611 -0.1250
17169W        W32638  18.137  13.804  11.075 -0.1764  0.1668  0.0323
17170W        W32639   7.715   9.667   1.846  0.0692  0.1090 -0.0292
17171W        W32640  13.436   7.708   5.060 -0.1872 -0.3602 -0.0530
17172W        W32641   2.919   8.951   0.615 -0.0779 -0.3556 -0.3253
17173W        W32642  10.523  16.443  15.177  0.0413 -0.1696  0.0018
17174W        W32643  18.573   9.924  13.381  0.0388  0.1256  0.1590
17175W        W32644   8.655   8.422  10.084 -0.1010  0.1708  0.0255
17176W        W32645  15.486  18.900  14.287 -0.0776  0.1063  0.1595
17177W        W32646   9.687  10.427  14.756  0.0871  0.1425 -0.5651
17178W        W32647  17.675  13.967   3.191  0.0901 -0.4446  0.0820
17179W        W32648   8.917   9.237   0.500 -0.3130  0.2917 -0.1197
17180W        W32649  14.205  11.809  12.829 -0.0648 -0.0260  0.2697
17181W        W32650  17.589  18.103  13.257 -0.1690  0.1721 -0.1750
17182W        W32651  14.216  12.983  14.287  0.2250  0.2899  0.1809
17183W        W32652  12.298  11.416   3.427  0.0920 -0.1149 -0.2405
17184W        W32653  13.236  13.730   9.899 -0.0028 -0.1058  0.0791
17185W        W32654  16.813  11.620   3.540  0.0257  0.1641 -0.0555
17186W        W32655   3.085   0.088  12.286 -0.0645  0.0170  0.2854
17187W        W32656  13.080   9.116   3.901 -0.1849  0.1372 -0.5050
17188W        W32657  17.528   8.140  14.392 -0.1511  0.0740  0.4876
17189W        W32658   7.386   6.035  14.481  0.1512  0.0848 -0.2372
17190W        W32659   0.202   1.543  14.329 -0.1026  0.4537 -0.0128
17191W        W32660   0.274   5.308   1.070  0.1583 -0.0013 -0.1023
17192W        W32661  12.414   1.085   3.864 -0.0119  0.2822 -0.2144
17193W        W32662  18.662  18.212   1.466  0.2189 -0.2194  0.1623
17194W        W32663   2.832   5.525  11.072 -0.0204 -0.0663  0.2070
17195W        W32664  10.297   4.712  10.903 -0.2472 -0.1183  0.2225
17196W        W32665   9.750  14.529   4.191 -0.1940  0.0167  0.0058
17197W        W32666   7.578  13.307  10.510  0.0836  0.1763 -0.3653
17198W        W32667   4.229   1.835   1.784  0.1761  0.0869  0.1502
17199W        W32668   5.956   8.827  14.218  0.1879  0.0624  0.1643
17200W        W32669  13.687  11.314   2.169 -0.1387  0.1727  0.3138
17201W        W32670   3.291  18.702   2.140 -0.2169 -0.1845 -0.0440
17202W        W32671  10.927   3.867   1.396 -0.0042 -0.1863 -0.2483
17203W        W32672  15.506   0.145   4.987 -0.0819 -0.2506  0.1352
17204W        W32673  11.253   1.183   1.821 -0.1521 -0.0039  0.0566
17205W        W32674   9.722  15.436   2.977 -0.1822 -0.0109  0.1799
17206W        W32675   2.709  14.409  14.752  0.0563 -0.0456 -0.0884
17207W        W32676   5.037  16.958  13.739 -0.1698  0.0116  0.0548
17208W        W32677   0.796  18.154   4.987  0.1914  0.0229 -0.1237
17209W        W32678   3.531  12.993   0.497  0.2968  0.2047 -0.2689
17210W        W32679  10.055   4.761   5.217  0.0871  0.1006 -0.2773
17211W        W32680  18.871   1.838   1.247  0.3413 -0.1449  0.1567
17212W        W32681   4.182  10.676   4.124 -0.0902  0.2685 -0.1052
17213W        W32682   3.657  13.749  12.662 -0.0636  0.3321  0.1972
17214W        W32683   3.925   9.622   2.551 -0.2254 -0.4329 -0.0928
17215W        W32684  14.261   5.082   5.902  0.4014 -0.1903  0.0443
17216W        W32685   3.335  10.234  13.191  0.0470 -0.4054 -0.0847
17217W        W32686   5.837  13.320   3.056 -0.2361 -0.2516  0.2280
17218W        W32687   1.164   1.377   0.596 -0.4454  0.1245  0.3921
17219W        W32688   1.721  16.698  11.086 -0.0681 -0.0813 -0.1372
17220W        W32689   7.220  15.936   4.569  0.3065 -0.0925 -0.4090
17221W        W32690  10.561   6.696  12.082 -0.0666  0.0437 -0.0715
17222W        W32691  17.211  11.221   0.467 -0.1313  0.1542 -0.0674
17223W        W32692  13.261  17.590  14.111  0.0521 -0.1585  0.1590
17224W        W32693   7.662   3.398   4.057 -0.2750  0.2557  0.0470
17225W        W32694   3.297   0.400   4.638  0.0172  0.2510 -0.0431
17226W        W32695   7.745  12.975   5.672  0.0468  0.1293  0.0825
17227W        W32696   8.118  11.129  13.782  0.1611 -0.2177 -0.0637
17228W        W32697   0.671   1.222  12.457 -0.0361  0.1366 -0.0136
17229W        W32698  16.555  10.595   5.375 -0.0066 -0.1036 -0.4002
17230W        W32699   6.326  11.398   1.025 -0.0118  0.0248 -0.0622
17231W        W32700   2.808   6.260   2.624 -0.2786 -0.3183 -0.0833
17232W        W32701   9.169   9.235   1.972  0.2231 -0.1093  0.2555
17233W        W32702   8.035  11.246   0.243 -0.1233  0.0385 -0.1385
17234W        W32703   7.651   3.878   1.303 -0.1331 -0.3307  0.3301
17235W        W32704  11.056   7.380   1.844  0.1229 -0.3432 -0.3752
17236W        W32705   9.079  16.707  14.252 -0.2546 -0.1358 -0.0512
17237W        W32706  15.954   2.785  10.759  0.0052 -0.1540 -0.0865
17238W        W32707  17.339   2.445   0.094  0.1531 -0.2487  0.1353
17239W        W32708  11.038  17.792   5.574 -0.1432 -0.0525  0.0638
17240W        W32709   0.406  15.353   4.730 -0.1391 -0.0435 -0.0535
17241W        W32710  16.460  11.097   3.316  0.1789 -0.0345  0.1490
17242W        W32711  17.262  12.871  12.181 -0.0075 -0.0590  0.2815
17243W        W32712  16.029   1.413  11.946 -0.0595  0.1440  0.1117
17244W        W32713  15.498   0.824  13.342  0.0421  0.1849 -0.3326
17245W        W32714  12.637  16.007   4.439  0.2722 -0.0159 -0.0034
17246W        W32715   8.291  10.067   2.443  0.2211 -0.1530  0.0631
17247W        W32716  18.880  17.549  13.844  0.0979  0.1450 -0.0613
17248W        W32717   7.979  10.716  11.628 -0.3569  0.3178  0.1693
17249W        W32718  11.480   6.316   4.558 -0.1110 -0.1505  0.0347
17250W        W32719   5.186   8.633   0.712  0.2016  0.1947 -0.0718
17251W        W32720  10.133   6.548   4.949  0.1643 -0.1118 -0.0845
17252W        W32721  18.193  17.912   4.120 -0.0350 -0.3601  0.0048
17253W        W32722  18.669   3.105  12.232 -0.1017  0.1003  0.2499
17254W        W32723  10.869  15.375   1.470 -0.2711  0.2539 -0.1434
17255W        W32724   1.347   6.205   2.637 -0.0563  0.2661  0.0601
17256W        W32725   9.799  15.375   0.014 -0.4002  0.1826 -0.0297
17257W        W32726  17.993   2.579  14.428 -0.0709  0.0258 -0.1208
17258W        W32727   2.671  12.129   4.401 -0.1771 -0.2182  0.2872
17259W        W32728   7.699   2.177  12.528  0.1944  0.0370 -0.0376
17260W        W32729   1.865   7.733   1.134 -0.0935 -0.1282 -0.2970
17261W        W32730   2.277   1.022  14.801 -0.2845  0.0420  0.0458
17262W        W32731   9.212  17.514  14.047  0.4818  0.0763 -0.1656
17263W        W32732  13.478   4.426   3.140  0.1523 -0.0282 -0.1372
17264W        W32733   9.195  12.879  14.069  0.1409  0.1369 -0.2204
17265W        W32734  13.933  18.864  14.711  0.2959 -0.1588 -0.4328
17266W        W32735   1.489   7.357   4.525 -0.1892  0.0321  0.0203
17267W        W32736   3.238  18.902   5.575 -0.0072  0.0265 -0.0115
17268W        W32737  11.847   8.942   1.968 -0.1543  0.1713 -0.0028
17269W        W32738  14.810   8.051   5.243  0.2944  0.1833  0.0020
17270W        W32739  17.310   1.382  13.196 -0.0777  0.0457 -0.0572
17271W        W32740  13.553   4.004  11.749 -0.0911  0.1187  0.0608
17272W        W32741  13.637  10.516   1.564 -0.3670 -0.0930 -0.0813
17273W        W32742  17.547   5.837  13.334 -0.1165 -0.2137  0.1066
17274W        W32743  14.784   2.767  14.859 -0.2638  0.0456 -0.2637
17275W        W32744   7.555   1.105  11.716 -0.0667 -0.1600 -0.0098
17276W        W32745   3.577   1.394   3.533 -0.1310 -0.0024 -0.3423
17277W        W32746  14.702   5.054   2.431 -0.1930  0.1487  0.2921
17278W        W32747   9.488   2.880   5.758 -0.1668 -0.2247 -0.2145
17279W        W32748  15.848   2.459  12.228  0.0897 -0.1057  0.4324
17280W        W32749  12.918   0.783  12.207 -0.0400  0.1658 -0.4355
17281W        W32750  13.722   0.837   3.589 -0.0753  0.0500 -0.0287
17282W        W32751  12.206  12.972   2.543  0.1265  0.4335  0.0691
17283W        W32752  11.644   6.820  11.499  0.0498 -0.0033 -0.0708
17284W        W32753  15.284  17.800   1.084 -0.1000  0.0693 -0.0102
17285W        W32754   4.802   0.078  12.896 -0.0709  0.1162  0.1098
17286W        W32755  10.302  15.026  15.476 -0.1885  0.0339  0.0494
17287W        W32756  16.791   1.116   0.720  0.2410 -0.2608  0.0195
17288W        W32757  10.321   6.192  11.355  0.4399  0.1034 -0.1789
17289W        W32758  11.065   2.079  11.084 -0.1685 -0.1733  0.1842
17290W        W32759   4.145  12.779  14.123  0.2885 -0.0338 -0.0853
17291W        W32760  14.049   4.853  13.392  0.3949 -0.3404  0.0393
17292W        W32761   9.730   8.148   4.081 -0.2368  0.0535  0.1881
17293W        W32762  11.702  12.068  11.114  0.5074 -0.2120 -0.1639
17294W        W32763   2.047   2.965  11.530 -0.0676 -0.0073 -0.1871
17295W        W32764   0.404  10.002   5.340  0.1534 -0.0287  0.3183
17296W        W32765  13.274   4.938   3.082  0.0082  0.1505 -0.0582
17297W        W32766  12.932  16.174   5.839  0.1780 -0.2243  0.0772
17298W        W32767   1.305   3.883  11.828 -0.0920  0.2295  0.1731
17299W        W32768   8.833  15.536  11.810 -0.0070 -0.1261  0.3279
17300W        W32769   2.340  18.492  12.408 -0.0065 -0.1119 -0.0850
17301W        W32770  11.006  13.879  12.967 -0.4336  0.3258  0.4033
17302W        W32771   3.024  16.219  11.320  0.1511  0.0383 -0.0400
17303W        W32772  11.088   4.113  10.492  0.0608 -0.1185 -0.1533
17304W        W32773   3.443   3.907   1.625  0.2485  0.2870  0.1621
17305W        W32774   8.945  15.965   3.972  0.1358  0.2114 -0.1080
17306W        W32775  12.352   8.934  12.148  0.2479  0.0020 -0.3200
17307W        W32776  14.044   9.243  15.066 -0.3140 -0.1107 -0.0726
17308W        W32777   3.531  15.260  13.117 -0.0509  0.1648 -0.0605
17309W        W32778  10.737  16.250   5.468 -0.1409 -0.2118  0.2193
17310W        W32779  11.074  10.691   0.306  0.3234  0.2477  0.0501
17311W        W32780  12.861   5.954  13.410  0.2364 -0.1735 -0.1128
17312W        W32781   6.047  14.112   3.316  0.2951 -0.1942  0.3113
17313W        W32782   5.045  16.345   5.088 -0.1434 -0.1432  0.1954
17314W        W32783  17.724   0.522   2.979 -0.4251 -0.0296 -0.1758
17315W        W32784  17.771   1.751  12.476 -0.2536  0.1414 -0.3048
17316W        W32785  11.174  17.766  10.457  0.0769  0.1326 -0.1742
17317W        W32786   9.743  17.979  12.488 -0.0419  0.0527 -0.2548
17318W        W32787  14.835  14.826  10.873 -0.2520 -0.0266 -0.4307
17319W        W32788   0.826   6.522   2.682  0.2536  0.0522 -0.0134
17320W        W32789  15.184   7.340  11.317 -0.1122  0.2559  0.1671
17321W        W32790   8.194   0.053  11.916 -0.2567 -0.2063 -0.3024
17322W        W32791  13.113  16.187   0.776 -0.0063 -0.0476  0.2097
17323W        W32792   8.429   8.355   5.201  0.1587  0.0786 -0.0112
17324W        W32793  14.041  10.811   1.196 -0.1541 -0.1513 -0.2720
17325W        W32794   8.846   2.579   1.191  0.0937  0.2482 -0.0885
17326W        W32795  12.833   2.612   4.849  0.0587 -0.3680 -0.1807
17327W        W32796  14.944  15.761   4.178 -0.0526  0.1353  0.1290
17328W        W32797  12.713   0.044   5.614 -0.1161  0.1542  0.0510
17329W        W32798  14.801  10.799  10.399  0.1679 -0.1142  0.2282
17330W        W32799   5.502   8.541   4.124  0.0414  0.1680  0.1186
17331W        W32800   7.752  18.913  12.663 -0.0054  0.0895 -0.1173
17332W        W32801   9.730   5.716   1.120  0.0807 -0.3051 -0.0505
17333W        W32802   4.101  18.617  14.741 -0.2923  0.0660 -0.0266
17334W        W32803  17.703  15.031   3.116  0.0362  0.2425  0.0155
17335W        W32804   6.021   1.041  14.733  0.5119  0.0238  0.5207
17336W        W32805  17.483  15.030   0.244  0.1911  0.1094  0.1718
17337W        W32806  16.052   3.421  12.390  0.0645  0.2936 -0.1960
17338W        W32807  12.270  13.707   0.347 -0.1426  0.1137  0.2498
17339W        W32808  16.060   7.852   3.038 -0.0830  0.0277 -0.0312
17340W        W32809   7.968   9.079  15.149 -0.4903 -0.0641 -0.0124
17341W        W32810   6.148  11.957  14.294  0.0135 -0.0634 -0.2556
17342W        W32811  10.403  15.908  10.997  0.0052  0.1131 -0.1764
17343W        W32812  10.961   4.525  12.057  0.2010  0.0345  0.4105
17344W        W32813   7.852  16.975   2.917  0.1712 -0.4293 -0.0551
17345W        W32814   3.807  15.509  15.503 -0.1147  0.1898  0.2885
17346W        W32815  13.723  15.284  11.611  0.3545  0.0245 -0.2146
17347W        W32816   3.767  15.448  12.737  0.2136 -0.1989  0.2804
17348W        W32817   4.652   8.205   2.238 -0.5060 -0.1555 -0.0627
17349W        W32818  11.221  14.249   5.169  0.0100  0.0769  0.1455
17350W        W32819  12.940   0.740   0.550  0.2986  0.1780  0.1378
17351W        W32820   0.026  15.564   3.950 -0.1808 -0.0446  0.1889
17352W        W32821  13.165   5.229   3.994  0.0396  0.2097  0.0687
17353W        W32822   6.838   9.223  13.910 -0.1808 -0.2166 -0.1848
17354W        W32823  15.942  17.663   4.887  0.0720  0.0704 -0.1700
17355W        W32824   1.346   5.526   4.750 -0.2348 -0.0388  0.3559
17356W        W32825  17.143   4.433   5.331  0.1879 -0.0663 -0.0802
17357W        W32826   4.114   9.738  11.492  0.1396  0.2238 -0.2714
17358W        W32827  11.125  12.946   4.494  0.0703  0.0985  0.2702
17359W        W32828   1.984   1.280   1.974  0.0259  0.1724  0.0829
17360W        W32829  18.196   8.432   2.629 -0.3223  0.2689 -0.1950
17361W        W32830   1.432  18.153  12.041 -0.0645 -0.0484  0.2430
17362W        W32831   1.997   8.989  11.915  0.2151  0.0752  0.0623
17363W        W32832  18.271   0.480  13.615 -0.1700 -0.0737  0.3450
17364W        W32833   0.850   6.016  10.503 -0.0089 -0.0347  0.2713
17365W        W32834   1.791  12.420  13.645 -0.0629  0.1214  0.0148
17366W        W32835   4.935   7.516   3.242 -0.1987  0.2145  0.1615
17367W        W32836   1.419  14.974   2.853 -0.0277 -0.2944  0.1336
17368W        W32837  15.834  17.043  12.404  0.0526  0.3280 -0.0440
17369W        W32838   4.325  10.561   9.573 -0.2025 -0.2056 -0.1540
17370W        W32839   8.790   2.380   1.720 -0.0577 -0.3385 -0.0437
17371W        W32840   0.868  16.430   4.376 -0.0770  0.1704 -0.0652
17372W        W32841  14.866   2.139  11.377 -0.2522  0.1636  0.2214
17373W        W32842  11.143  10.780   4.693 -0.1508 -0.2863  0.1874
17374W        W32843  17.634  17.721  12.744  0.2452 -0.2205  0.0836
17375W        W32844   0.792  13.246   2.389 -0.2030  0.0063 -0.0640
17376W        W32845   4.252   2.966   3.496 -0.1768 -0.0420 -0.1128
17377W        W32846   4.818   5.726  14.390  0.1335 -0.0274 -0.4470
17378W        W32847  14.015  13.079  13.348 -0.1714 -0.0054 -0.0721
17379W        W32848   0.390   5.687   3.348  0.0561  0.3204  0.5464
17380W        W32849   6.794  11.922  12.512 -0.1781 -0.0280  0.1642
17381W        W32850   5.172   8.901  11.586 -0.2990 -0.0924  0.0705
17382W        W32851   7.665  16.398  15.070 -0.1223  0.0386  0.1385
17383W        W32852   0.167  16.457  14.947  0.1721 -0.4774 -0.2021
17384W        W32853  14.786  16.356  13.657  0.0444 -0.0887 -0.1611
17385W        W32854   0.762  11.808   2.505 -0.3589 -0.0998  0.1162
17386W        W32855  12.912   8.379  11.192 -0.1308 -0.2025 -0.0872
17387W        W32856  14.051   3.303   4.970  0.0948 -0.3576  0.3879
17388W        W32857   1.716   5.220   2.135 -0.1263  0.0639  0.0026
17389W        W32858   4.935   7.714  11.191  0.0297  0.3209  0.1180
17390W        W32859  15.477   2.108   3.436 -0.0858  0.0045 -0.2765
17391W        W32860   4.258   2.139  11.462  0.1368  0.1408  0.3096
17392W        W32861   2.909  18.494  14.920 -0.5798 -0.1202  0.1502
17393W        W32862   5.333  10.798   5.432  0.0411 -0.0773 -0.2441
17394W        W32863   8.554   6.208   4.680 -0.1480  0.3115 -0.1826
17395W        W32864   3.705   2.150   3.682  0.3086 -0.1046 -0.0167
17396W        W32865   1.417  10.223  13.064  0.1842  0.2056  0.1568
17397W        W32866  13.988   0.536  10.761 -0.0818 -0.3277 -0.2035
17398W        W32867   2.314   0.390  12.707 -0.0372  0.2789 -0.0134
17399W        W32868   4.521  10.138  10.640  0.0815 -0.1480 -0.4627
17400W        W32869   1.373  12.033  12.958  0.1189 -0.0463 -0.1319
17401W        W32870   4.772   6.972  12.462 -0.0176  0.0268  0.2899
17402W        W32871   6.505   3.763  15.289 -0.2866 -0.3776 -0.6140
17403W        W32872   9.835   0.860   0.038 -0.1679  0.1082 -0.5587
17404W        W32873  16.858  15.315  12.224  0.0250  0.1920 -0.0054
17405W        W32874   7.434   6.026  13.439  0.0465  0.1757 -0.0224
17406W        W32875   3.184   7.857  10.488  0.2721 -0.0418 -0.0715
17407W        W32876  14.563   1.498  11.813  0.0500 -0.1820  0.0644
17408W        W32877  12.677   1.457   0.858  0.2076 -0.0085  0.0264
17409W        W32878  14.546   3.476  10.796  0.1429 -0.1040 -0.2436
17410W        W32879   9.066   5.338  12.918 -0.3628  0.2444  0.1395
17411W        W32880   0.089   3.863   4.880 -0.2428 -0.0597 -0.1053
17412W        W32881  17.860   8.122   0.503  0.2696  0.0738  0.1853
17413W        W32882  14.976  17.828  11.926  0.3626  0.2635  0.1224
17414W        W32883  16.616  16.483   1.044 -0.0720 -0.2659 -0.0516
17415W        W32884   7.034   9.434   3.578 -0.0166 -0.1001  0.0861
17416W        W32885  14.038   0.655   2.748 -0.1739  0.0740  0.0291
17417W        W32886   7.853  18.279   0.172 -0.1675 -0.2131  0.1118
17418W        W32887   0.802  18.247  10.800 -0.1811 -0.1240  0.0641
17419W        W32888   7.550   4.634   4.959 -0.0019  0.1289 -0.0679
17420W        W32889  10.448  13.193  14.073 -0.2196  0.0304 -0.2847
17421W        W32890   1.492   1.750  13.963 -0.1446  0.3144 -0.2596
17422W        W32891   4.522  14.588  12.287 -0.3529  0.0285  0.0491
17423W        W32892  11.053   4.952   5.082 -0.1706  0.2660 -0.1795
17424W        W32893  11.625  17.946   1.104  0.1106 -0.0963 -0.0175
17425W        W32894  11.047  12.350  11.520  0.2194 -0.0076 -0.0404
17426W        W32895   8.284   5.956   3.825 -0.1806 -0.2227  0.0557
17427W        W32896   3.212  14.816  12.120  0.1638  0.2577  0.3028
17428W        W32897  13.362   1.020  11.221 -0.1735  0.1882  0.3606
17429W        W32898   0.262  13.171   2.319  0.0247  0.0783  0.2059
17430W        W32899   0.447   1.065  15.177 -0.2205  0.1286 -0.2800
17431W        W32900  10.327  12.823   3.412  0.0096 -0.1410 -0.0191
17432W        W32901  13.804   4.330   0.080 -0.2494 -0.4046  0.0751
17433W        W32902   5.785   6.061  12.260  0.0646  0.1422  0.0146
17434W        W32903   3.142  16.685   2.167 -0.0076 -0.0430  0.0579
17435W        W32904  15.527  11.684  10.365 -0.0805  0.2383  0.3186
17436W        W32905   0.189   6.547   1.764 -0.0297 -0.1446  0.2049
17437W        W32906   8.573  17.147   1.432  0.0211 -0.0044  0.1782
17438W        W32907  16.147   5.272   1.848 -0.3268 -0.0088 -0.0332
17439W        W32908   6.689  10.437   0.687 -0.0104 -0.0944  0.1089
17440W        W32909   1.401   8.947   2.439 -0.0847  0.1756  0.2152
17441W        W32910  12.169   0.477  10.687 -0.2221  0.0766 -0.1472
17442W        W32911  17.934  18.391   0.437 -0.1918  0.2736 -0.0509
17443W        W32912   3.303  12.676   1.200 -0.0761 -0.1200  0.2800
17444W        W32913  16.252  13.390   3.339  0.1885  0.0501 -0.2794
17445W        W32914   5.399   7.518   1.583  0.1079 -0.1356  0.1247
17446W        W32915   6.300   3.528  13.038  0.1464 -0.1400 -0.1422
17447W        W32916  18.593   6.798   0.367 -0.1158  0.0365 -0.2158
17448W        W32917   2.247  16.902  13.681  0.0978  0.1130  0.2881
17449W        W32918   1.711  17.294   1.163 -0.2083 -0.1831 -0.1667
17450W        W32919  10.326   8.520   3.387 -0.0833 -0.2863  0.1193
17451W        W32920   2.941  15.941   0.286 -0.0217  0.1414 -0.1248
17452W        W32921   8.588   2.791   2.097  0.0248  0.0238  0.3650
17453W        W32922  14.464   3.275   1.036  0.2027 -0.0603 -0.2411
17454W        W32923   3.670   9.093  14.314  0.5007  0.0392  0.2421
17455W        W32924   6.912  10.751   4.515  0.1288 -0.2158  0.0519
17456W        W32925  10.393  15.322   1.357  0.3842  0.2040 -0.0645
17457W        W32926   2.257  13.047   0.292  0.0182  0.2367 -0.2383
17458W        W32927   4.559   1.017   1.534  0.3527 -0.0099 -0.2490
17459W        W32928   3.552   3.950   0.219  0.0232  0.1252  0.1175
17460W        W32929   6.862   6.483   3.312  0.0403 -0.0342 -0.0652
17461W        W32930   7.005   9.212   5.065 -0.0357 -0.0747 -0.1284
17462W        W32931   7.760  11.683   2.055  0.1441 -0.1938 -0.0194
17463W        W32932  11.624   6.310  15.297  0.5299  0.1072  0.1978
17464W        W32933   5.158   6.459   2.863  0.0364  0.1199 -0.2129
17465W        W32934   1.564   6.143  11.675 -0.1659 -0.1520 -0.1637
17466W        W32935   5.427   2.429   2.126  0.0566 -0.2033  0.2407
17467W        W32936   9.699  15.416   3.526 -0.3067 -0.0241 -0.3161
17468W        W32937  18.309  12.603  12.666  0.2210 -0.0073 -0.0448
17469W        W32938  12.702   6.125  10.633  0.0885 -0.0959  0.0947
17470W        W32939   0.694  13.783   3.299  0.2820  0.1180 -0.1650
17471W        W32940  10.718   8.811   0.364  0.3482 -0.0950 -0.0450
17472W        W32941   4.039  17.798   3.519  0.0364 -0.0163  0.0731
17473W        W32942  11.882   4.600   3.466 -0.2566  0.1105  0.1147
17474W        W32943  12.002  10.350   0.400 -0.0004 -0.0907  0.3797
17475W        W32944   2.172   8.583  12.253  0.1648  0.2078  0.1814
17476W        W32945   1.461  10.768  13.167 -0.0387 -0.0396  0.0299
17477W        W32946  13.231  11.630   5.878  0.0608  0.1440 -0.2892
17478W        W32947  11.143  17.812   4.928 -0.2178 -0.1211  0.2845
17479W        W32948   6.500   3.833   2.897  0.0880 -0.1416 -0.2113
17480W        W32949   1.889  13.694  15.257  0.1166 -0.0370 -0.0740
17481W        W32950   5.602   0.150   5.280 -0.1491  0.1862  0.2820
17482W        W32951   2.188   4.176  10.893 -0.1934 -0.2394 -0.2082
17483W        W32952  18.060   3.980   2.159  0.0572 -0.0239 -0.3158
17484W        W32953   2.647  14.439  13.410 -0.2640  0.0750  0.0716
17485W        W32954  11.492   2.653   4.743  0.1360  0.0050  0.0133
17486W        W32955   6.268  16.866  11.276 -0.0597  0.2079 -0.2066
17487W        W32956  15.190   9.801  12.430  0.3671  0.0136 -0.1764
17488W        W32957  16.301  13.395  11.272 -0.0154  0.1878  0.1153
17489W        W32958  16.119  17.307   5.844 -0.2960  0.0511  0.0570
17490W        W32959   6.119   0.107  15.085 -0.0211 -0.3476 -0.3400
17491W        W32960   7.743  17.335   2.533  0.0042 -0.0497  0.2658
17492W        W32961   5.472  15.369  10.443  0.0006  0.0450  0.0438
17493W        W32962   0.526  10.611  14.631 -0.0939  0.1474 -0.3505
17494W        W32963   9.383   5.632   4.333  0.1129 -0.1277 -0.2907
17495W        W32964  12.353   1.271  13.605 -0.2616 -0.1849 -0.0048
17496W        W32965   9.962  15.967  12.490  0.2897 -0.1188 -0.0738
17497W        W32966  11.718  11.728  10.632 -0.0099  0.2533  0.2311
17498W        W32967  10.694  12.425   1.238  0.0537 -0.0877  0.3436
17499W        W32968   4.289  16.713  10.846 -0.0416  0.2299 -0.0739
17500W        W32969   6.693   7.055   4.073 -0.3445  0.3140 -0.1594
17501W        W32970   2.053  13.578   3.402 -0.0509  0.0997 -0.0337
17502W        W32971   7.127   8.690   5.004 -0.0937 -0.0930  0.2019
17503W        W32972  11.686  14.145   2.873  0.0346  0.1812 -0.3219
17504W        W32973   7.149   5.334   3.633  0.1343  0.2672  0.2405
17505W        W32974   0.021  11.085  12.608  0.1607 -0.0546 -0.3434
17506W        W32975  11.491  14.044  14.729 -0.2690  0.0430 -0.2871
17507W        W32976   9.471   9.589   4.023 -0.0449  0.1351 -0.1945
17508W        W32977   9.040   6.615  13.712 -0.2775 -0.1037  0.3021
17509W        W32978   6.001  14.368   1.288 -0.0312 -0.3603 -0.1929
17510W        W32979   5.608  17.945  11.757 -0.3767 -0.2792  0.0926
17511W        W32980  12.567  10.474  11.341 -0.0770 -0.1101  0.0791
17512W        W32981   7.711  10.510  10.971  0.0175 -0.1976  0.1480
17513W        W32982  13.964   9.011  13.609  0.1540 -0.0454 -0.1042
17514W        W32983  11.618  14.165  13.189  0.0716  0.2228 -0.2400
17515W        W32984   1.523   9.678   2.454 -0.0600  0.1929 -0.1351
17516W        W32985  10.384   8.765  13.262  0.1912 -0.0338  0.1205
17517W        W32986  18.625  15.330  12.280  0.1960 -0.2995 -0.2966
17518W        W32987  12.723   5.150  11.526  0.1501 -0.0099  0.1087
17519W        W32988   9.468  14.882   2.146  0.1058  0.1534  0.3134
17520W        W32989  11.623  15.810  10.707 -0.2287 -0.1954 -0.0072
17521W        W32990   7.698   3.888   4.091 -0.3673  0.2915 -0.1378
17522W        W32991   5.336  14.516  12.626 -0.0761  0.2509 -0.0312
17523W        W32992   6.953  12.430   1.105 -0.2098 -0.0154 -0.4376
17524W        W32993   6.533   6.518   3.995  0.0712 -0.1180  0.0526
17525W        W32994  15.935  18.047   1.481 -0.3016  0.1696 -0.0633
17526W        W32995  12.028  10.005  14.204 -0.0945 -0.1169 -0.1025
17527W        W32996   2.700  15.930   4.021  0.0497  0.4907 -0.0751
17528W        W32997   4.026   2.338   2.059  0.0835  0.0168 -0.0458
17529W        W32998   2.813  13.863   1.708 -0.2559  0.3131  0.0283
17530W        W32999   5.512  12.402  14.609 -0.1270  0.0779 -0.3346
17531W        W33000   6.823  16.340   5.338 -0.2175 -0.0515 -0.3366
17532W        W33001   1.176   1.402  12.115  0.3279 -0.1527 -0.0361
17533W        W33002  11.970  10.572  11.871  0.3852  0.1623 -0.3450
17534W        W33003   3.125   0.136   3.422 -0.1205 -0.0630  0.0555
17535W        W33004   1.571  14.358   1.675  0.1630  0.1577  0.3830
17536W        W33005  16.097   3.352  14.666  0.1868 -0.0772  0.2017
17537W        W33006   4.355   6.680  14.575 -0.0260 -0.4392 -0.0697
17538W        W33007   4.927   4.462  13.492  0.1322  0.1621 -0.0775
17539W        W33008  17.846  17.151   2.293 -0.0710  0.1501 -0.0086
17540W        W33009   0.288   3.755  10.619  0.0382  0.0693  0.2627
17541W        W33010  10.987   6.949   3.959 -0.0700 -0.1370  0.1370
17542W        W33011   4.600  13.804  15.204  0.0693  0.1191  0.0268
17543W        W33012  15.655   3.273   0.655 -0.2668  0.2559  0.1032
17544W        W33013   1.810   0.325  10.478  0.2086 -0.1513 -0.1883
17545W        W33014   9.336  10.717   5.402 -0.2379  0.3619  0.2015
17546W        W33015  17.899   0.019   3.088  0.0707  0.0392  0.1533
17547W        W33016   4.359  16.226   2.687 -0.1624 -0.1768 -0.1990
17548W        W33017   0.978   2.706   1.244 -0.3158 -0.0646 -0.1595
17549W        W33018   6.516  18.660   1.649  0.0100  0.3733  0.1411
17550W        W33019   6.409   0.541  14.820 -0.0783 -0.3327 -0.0113
17551W        W33020  14.675   8.188   3.737 -0.0373 -0.1424  0.0390
17552W        W33021  12.297  16.197   5.297  0.1177 -0.1207 -0.0449
17553W        W33022  10.929  15.997  11.052  0.1514 -0.0153 -0.0041
17554W        W33023  11.884  15.762  11.291 -0.0460  0.1222  0.0842
17555W        W33024  18.528   3.665   2.315  0.1167  0.1079  0.0927
17556W        W33025  14.438  12.311  13.753 -0.1366 -0.1715  0.1224
17557W        W33026   9.133   0.939   1.932  0.1866 -0.3109  0.2326
17558W        W33027  16.546   1.718   4.235 -0.1561 -0.1104  0.3587
17559W        W33028   8.090  17.335   4.689 -0.2827 -0.2525 -0.0104
17560W        W33029   3.046   2.000   2.940  0.1922 -0.0715 -0.0190
17561W        W33030  12.226  11.416   1.407  0.1813 -0.0881  0.0452
17562W        W33031   0.925  12.719   2.326  0.1599  0.1405 -0.1231
17563W        W33032  12.359   7.364   1.720  0.0962 -0.0685  0.1000
17564W        W33033  10.153  18.673  11.340  0.2282 -0.1659 -0.0552
17565W        W33034   8.306   6.272   2.386 -0.0896 -0.0471  0.4822
17566W        W33035   4.995  10.483   3.687  0.0269  0.3233  0.1846
17567W        W33036  15.002   8.353  12.834  0.0684 -0.0407 -0.1669
17568W        W33037   8.446  15.801   3.920 -0.1453 -0.1579 -0.0783
17569W        W33038   3.398   0.177  14.546  0.2453 -0.3387 -0.6098
17570W        W33039  15.771   4.590  10.290 -0.4586 -0.1668 -0.2312
17571W        W33040   0.231   1.241   1.586  0.0343  0.1904 -0.3673
17572W        W33041   5.345  10.881   0.617 -0.3547  0.1949 -0.2590
17573W        W33042  10.685  14.126   3.466  0.0817  0.1234 -0.2603
17574W        W33043  12.585  17.981   0.972  0.2393 -0.3693 -0.1440
17575W        W33044  10.561   6.281  15.352 -0.1173  0.1788  0.0485
17576W        W33045  16.416  12.340  10.424 -0.1778 -0.1090 -0.0483
17577W        W33046   0.081   3.634   1.137 -0.2632 -0.1651  0.0710
17578W        W33047   8.287   3.268  15.433 -0.0186  0.3106  0.3218
17579W        W33048   8.183  13.878   5.442 -0.0941 -0.2364 -0.0236
17580W        W33049   9.716  16.357   2.133  0.0440 -0.1467  0.2462
17581W        W33050   8.390  14.918   2.873 -0.1353 -0.1284  0.3077
17582W        W33051  18.682   4.589   4.377  0.2598 -0.0190  0.1502
17583W        W33052   1.983  17.716  11.006  0.0372  0.0675 -0.3696
17584W        W33053  11.775   6.821  11.001  0.1140 -0.1241  0.0173
17585W        W33054   0.658   2.062  11.794 -0.3351  0.3113  0.0418
17586W        W33055   1.061  17.205  10.890 -0.5402  0.1101 -0.1920
17587W        W33056  15.190   5.703   1.765 -0.1227 -0.2428  0.1566
17588W        W33057  13.974  11.693  11.654 -0.1363 -0.3226 -0.0418
17589W        W33058   6.261  11.272   5.287 -0.2438 -0.1708  0.1266
17590W        W33059   5.789  16.380  13.070  0.2554  0.0952  0.0320
17591W        W33060  11.584   7.316  12.365  0.1128  0.3336 -0.2662
17592W        W33061   6.611  10.890   0.183  0.1302  0.1869  0.0587
17593W        W33062  18.290   0.870   2.900 -0.1498  0.0715  0.3005
17594W        W33063   8.589  17.357   1.957  0.0623 -0.2109  0.0148
17595W        W33064   9.186   5.675   0.728  0.0011 -0.3841  0.2895
17596W        W33065  16.036   4.300   1.608 -0.0174 -0.4526  0.0161
17597W        W33066  15.781   7.118  14.771 -0.0442 -0.0036  0.1946
17598W        W33067  12.872  11.624  10.637 -0.0033 -0.1887 -0.4509
17599W        W33068   4.078   1.733   3.825  0.1939 -0.1335  0.0480
17600W        W33069   4.938   7.661   1.361  0.1197 -0.2252  0.3213
17601W        W33070  15.647   1.495  15.047  0.1681  0.2719  0.6071
17602W        W33071  17.536  14.448   0.780  0.1160 -0.0617 -0.1205
17603W        W33072   9.759  10.907   3.873 -0.1484  0.0865  0.6312
17604W        W33073   0.723   5.448  15.294  0.2166  0.0339 -0.1482
17605W        W33074  11.625   0.286   2.958 -0.1848 -0.1448 -0.1360
17606W        W33075   9.293  10.388   3.320 -0.0205  0.0988 -0.2239
17607W        W33076  17.463   5.777   0.532  0.0430 -0.2255 -0.7302
17608W        W33077   9.553   3.638  13.870 -0.2326  0.2844 -0.0125
17609W        W33078   0.039   7.407   1.212  0.0951  0.1008 -0.1212
17610W        W33079   9.686  11.674   3.626  0.0599 -0.3121  0.1836
17611W        W33080   1.254  14.195   4.711 -0.0190 -0.0874 -0.1658
17612W        W33081   5.788   1.459  10.586 -0.2114 -0.1923  0.0352
17613W        W33082  11.899   3.781   0.715  0.0577  0.1639 -0.1555
17614W        W33083   9.176  17.797  15.203  0.0834  0.0073 -0.0558
17615W        W33084   8.513   9.107  12.989 -0.1380  0.3006 -0.0733
17616W        W33085   9.425   9.724   5.945  0.0792 -0.3082  0.0991
17617W        W33086   2.437  11.573   5.781  0.1422  0.2454  0.0132
17618W        W33087   3.433  18.062  14.159  0.0427  0.3327 -0.3309
17619W        W33088   6.318  17.694   2.276 -0.1403  0.3471 -0.1090
17620W        W33089  17.955  12.535   0.127  0.1412 -0.0302  0.0653
17621W        W33090  14.316   3.149  13.824  0.1575 -0.0750  0.1227
17622W        W33091  18.383   9.683  12.499 -0.1594 -0.0723 -0.1392
17623W        W33092  13.338  12.300   3.969 -0.0364 -0.0219  0.0431
17624W        W33093   4.708  13.099  11.187  0.3268 -0.1233  0.0591
17625W        W33094  18.628   7.359   5.052  0.1330 -0.2427  0.1723
17626W        W33095  14.774  12.462  15.411 -0.3406  0.5501 -0.0039
17627W        W33096   2.122   1.590  13.466  0.0770  0.2244 -0.2122
17628W        W33097  10.252   4.295   5.042 -0.4208  0.1217  0.0226
17629W        W33098   6.747   3.291   0.947 -0.1789  0.1245 -0.3430
17630W        W33099  13.843  16.296   3.355 -0.0696 -0.0507 -0.0006
17631W        W33100   6.943   1.173   3.826  0.2577 -0.1833  0.0911
17632W        W33101   9.107   5.005  12.213  0.2768  0.0256 -0.0026
17633W        W33102  17.664   4.166   1.945 -0.0738 -0.2077  0.0447
17634W        W33103   1.982  18.543   4.632  0.1160 -0.0738  0.1025
17635W        W33104   2.065   0.581   3.423 -0.2702  0.2468 -0.0910
17636W        W33105  14.604   1.497   4.721  0.1328  0.2123 -0.1266
17637W        W33106   4.004  18.875  15.256  0.0633 -0.3550 -0.0056
17638W        W33107   8.514   8.916   2.635  0.4094 -0.1248 -0.3316
17639W        W33108  11.126  14.883  15.036 -0.1875  0.1485  0.1412
17640W        W33109   0.863  13.978   1.242  0.1800  0.1513  0.0794
17641W        W33110   1.085  11.107  14.209  0.0612  0.2930  0.2420
17642W        W33111  12.525  10.614   2.027  0.1757  0.0243 -0.0204
17643W        W33112   4.074  18.508  14.154 -0.0023  0.0781 -0.0539
17644W        W33113   2.770  18.809   1.573 -0.3147 -0.0921 -0.1286
17645W        W33114   1.220   1.307   3.354 -0.0491 -0.0258  0.2367
17646W        W33115  14.191  11.120  14.888 -0.0655 -0.2496  0.0068
17647W        W33116   9.915  15.111   5.153  0.2160  0.1305 -0.0279
17648W        W33117   4.817   4.452   5.368 -0.2353 -0.0852  0.1487
17649W        W33118   8.737   3.418  13.575  0.2967 -0.0782 -0.1981
17650W        W33119  13.932  16.115  13.343 -0.0176  0.0269  0.3258
17651W        W33120   4.373  17.242  10.696  0.1693 -0.0810  0.0473
17652W        W33121  16.858   1.836   4.614 -0.4185 -0.0239 -0.1320
17653W        W33122  10.920   9.885   1.523 -0.1803 -0.1180 -0.0342
17654W        W33123  18.130   6.448  14.115  0.0700  0.0941 -0.0688
17655W        W33124  18.718   6.531  11.736  0.1038 -0.3022 -0.0379
17656W        W33125  15.039  15.812  14.265  0.0466  0.1644 -0.1049
17657W        W33126   1.240   7.089   0.826 -0.1957 -0.1539  0.1700
17658W        W33127   1.908   8.912   1.325  0.0362  0.0795  0.1221
17659W        W33128  17.501  13.794  10.437  0.2027  0.2778  0.1744
17660W        W33129   0.594   1.218   5.691 -0.2096  0.0774 -0.1149
17661W        W33130  13.177   4.916  13.688  0.1908 -0.0335 -0.0298
17662W        W33131   5.490  17.606  12.091  0.1908 -0.0750  0.0970
17663W        W33132  13.040   1.591  13.814  0.3068 -0.3510  0.0676
17664W        W33133   1.180  16.474   5.339  0.0808 -0.1128 -0.0148
17665W        W33134   3.548   6.409  10.408  0.0938 -0.1079 -0.3588
17666W        W33135   4.547  16.257  14.851  0.0592  0.0184 -0.2349
17667W        W33136  15.490  14.993  13.296 -0.0873 -0.0395  0.0093
17668W        W33137  18.462   3.433  10.325  0.3086 -0.1205  0.1047
17669W        W33138  14.419  18.288   4.951 -0.2840 -0.0654  0.0806
17670W        W33139  12.482   0.370  14.371  0.1118  0.0629  0.2453
17671W        W33140  12.691  17.617  11.921 -0.0067 -0.1664  0.1145
17672W        W33141   0.426  11.455  11.267  0.3718 -0.1856 -0.4404
17673W        W33142  11.433  16.704  10.886 -0.0163 -0.1224 -0.1397
17674W        W33143  15.191   8.272  15.419 -0.1068  0.1071 -0.0219
17675W        W33144   1.089   8.161  13.442 -0.1218  0.1742 -0.0616
17676W        W33145   2.379  13.794   5.353 -0.2301  0.0234 -0.2623
17677W        W33146  16.643   8.212  13.019  0.2193  0.2004 -0.0958
17678W        W33147  13.709   8.642  10.264 -0.0237  0.1843 -0.0657
17679W        W33148   9.772   8.471  11.664  0.1250 -0.2084 -0.1288
17680W        W33149   5.527  15.917  13.057 -0.2184 -0.2606 -0.1135
17681W        W33150  10.191  18.142   0.410 -0.2115  0.1496 -0.2160
17682W        W33151   1.130  13.562   1.951 -0.1565  0.2774 -0.1235
17683W        W33152  10.238  10.726  15.322  0.3490  0.2938  0.0221
17684W        W33153   0.467   7.340  14.604 -0.0808 -0.0274 -0.0366
17685W        W33154  10.412   7.064  10.350  0.2111  0.3253  0.1899
17686W        W33155  16.427   1.579  13.488 -0.0876 -0.3282 -0.2752
17687W        W33156  11.958   4.655   2.873  0.1425 -0.2061 -0.2443
17688W        W33157   3.514   3.954  14.942 -0.3173  0.2640 -0.0995
17689W        W33158   3.381   6.968  13.117  0.2005 -0.1356 -0.1955
17690W        W33159  12.104   2.406   4.324 -0.2089  0.0497 -0.0148
17691W        W33160  18.117   4.776  14.884 -0.0853 -0.0245  0.1277
17692W        W33161   8.459  14.672  10.666  0.0693 -0.0093 -0.2140
17693W        W33162  16.434   6.754   2.379 -0.2849  0.1450 -0.0408
17694W        W33163  12.004  10.018  10.667 -0.1890 -0.0789 -0.0369
17695W        W33164   2.616   2.063   2.610 -0.2489 -0.2866  0.0936
17696W        W33165  13.317  13.722  13.942  0.0619 -0.2875 -0.0177
17697W        W33166   5.633   6.176  14.317 -0.0432 -0.0162 -0.0419
17698W        W33167  18.190  18.479  13.786 -0.3160 -0.0965 -0.0241
17699W        W33168   4.923  16.102  13.143 -0.1243  0.0884 -0.0134
17700W        W33169   1.166   2.257   1.985  0.3376 -0.3349 -0.2392
17701W        W33170  15.510  10.475   2.252  0.2172 -0.0743  0.0001
17702W        W33171   4.112  10.362  10.758  0.3881 -0.1445  0.0259
17703W        W33172   7.160   6.383   4.685  0.2395  0.0552 -0.0900
17704W        W33173  11.283   1.305  14.589  0.1842 -0.2383 -0.0218
17705W        W33174   7.624   8.267  10.357 -0.3862  0.1372 -0.1270
17706W        W33175  13.157  14.199   0.772 -0.0347 -0.0961 -0.0084
17707W        W33176  13.914  11.672   0.709 -0.2035  0.3259  0.4022
17708W        W33177   6.313  17.681   4.773  0.0741 -0.0664  0.0181
17709W        W33178   3.407  13.767  14.934  0.1320 -0.1482 -0.0713
17710W        W33179  16.365   8.066  11.171 -0.1252  0.3815  0.1275
17711W        W33180   4.585   5.547   1.273 -0.2556 -0.1402 -0.2586
17712W        W33181   2.967  13.527  12.946  0.0872  0.1473  0.0058
17713W        W33182   2.745  11.800   3.461 -0.0567  0.2512  0.0896
17714W        W33183  12.374  16.746   0.256 -0.0630  0.1830 -0.3630
17715W        W33184  17.352   5.956  14.970 -0.2066 -0.0323 -0.0378
17716W        W33185  12.367   1.369  12.391  0.0464  0.0627  0.0908
17717W        W33186   4.822   2.832   5.344 -0.0490 -0.1329  0.1880
17718W        W33187   9.447  12.252   1.371  0.1403  0.0332  0.0972
17719W        W33188   0.401   0.756  11.539  0.0309  0.1145  0.1638
17720W        W33189   5.082   0.911  15.426 -0.0007  0.2270  0.3150
17721W        W33190  13.020   7.538   0.482 -0.1526  0.1478 -0.0878
17722W        W33191  13.251   8.019   4.116  0.0423 -0.0969 -0.1380
17723W        W33192   5.244  12.356   9.910 -0.2017  0.4551  0.1068
17724W        W33193  14.972  15.086   3.416  0.0964 -0.1865 -0.1196
17725W        W33194   0.485   8.626  14.890  0.2976 -0.1670 -0.3631
17726W        W33195  15.633   3.569  14.761 -0.1436  0.1423 -0.0839
17727W        W33196  11.404  15.838   3.278  0.6259  0.1893  0.0916
17728W        W33197   9.131   8.318  10.879 -0.1893 -0.2796 -0.1998
17729W        W33198   6.661   4.821  11.048 -0.0424 -0.1071 -0.1230
17730W        W33199   7.623  17.316   5.488 -0.3773 -0.1645 -0.3097
17731W        W33200  12.686  15.916   4.908  0.1196 -0.1480  0.0276
17732W        W33201  16.160  11.021   1.736  0.3003  0.1326  0.2960
17733W        W33202  12.400   9.032  15.285  0.0264  0.0170 -0.0289
17734W        W33203   8.864   8.384   5.537  0.1677 -0.0010 -0.2804
17735W        W33204   4.407   7.135   4.951  0.1744  0.0997 -0.4053
17736W        W33205   1.928  13.414  14.823 -0.1386 -0.2036  0.3435
17737W        W33206  16.991  12.955  13.190 -0.0120 -0.0210 -0.0925
17738W        W33207  14.269   9.113   9.675  0.1151 -0.4132 -0.0303
17739W        W33208   1.695  10.747   4.956 -0.0512  0.1175 -0.0524
17740W        W33209   8.634   5.281  12.056  0.2956  0.1716  0.2754
17741W        W33210   2.451  16.098   1.973  0.2062 -0.0289 -0.0641
17742W        W33211   5.049   7.629  14.278 -0.0192 -0.1006 -0.1849
17743W        W33212  14.425  18.833   2.247  0.4923  0.3076 -0.1878
17744W        W33213  15.082  16.998   2.012 -0.0232 -0.3271  0.0995
17745W        W33214   3.606  10.673  13.147 -0.1793 -0.0808  0.0250
17746W        W33215   1.422  16.572  14.384 -0.0097  0.2329 -0.2489
17747W        W33216   2.730   5.629   0.964  0.0080 -0.5955  0.0221
17748W        W33217   9.208  18.766   5.458  0.3922  0.0321  0.0768
17749W        W33218   2.201  15.413   1.080  0.0286  0.0260  0.0308
17750W        W33219   3.680   9.010  11.094 -0.0937 -0.0022 -0.1738
17751W        W33220  11.196  14.881   5.253 -0.0981 -0.1013 -0.3109
17752W        W33221  11.090   6.177   0.601 -0.0214  0.2275 -0.1145
17753W        W33222  18.111  10.724  12.677  0.0543  0.2388  0.0505
17754W        W33223   0.687   1.430   4.331 -0.0392  0.2397 -0.2113
17755W        W33224  13.131   3.742  12.121 -0.3893 -0.1671 -0.0030
17756W        W33225   5.214   6.708   5.271  0.0067  0.2247 -0.4139
17757W        W33226  10.655   0.419   3.244  0.0336 -0.2092 -0.3314
17758W        W33227  16.670   4.412  11.730  0.0489  0.0390 -0.0360
17759W        W33228  18.254  14.295  13.348  0.3961 -0.0894 -0.0220
17760W        W33229   7.603   6.718  11.602 -0.1234  0.1406  0.0748
17761W        W33230  16.900   7.161   0.941 -0.0106  0.0555 -0.1794
17762W        W33231  12.021  11.667  13.665 -0.2117 -0.0857 -0.1637
17763W        W33232  14.929   6.429   1.066  0.1582  0.1083  0.4149
17764W        W33233   0.054  17.365  15.483  0.2143  0.2547  0.0371
17765W        W33234  14.178  11.362   5.643  0.1088  0.0154  0.0094
17766W        W33235   7.353  12.536   2.201  0.0306 -0.0457  0.3899
17767W        W33236  17.381  14.113  13.642  0.0322 -0.0195 -0.2179
17768W        W33237   3.764   5.663  11.805 -0.1959 -0.0206 -0.1124
17769W        W33238  15.423  11.419  12.550  0.0976  0.1439  0.0116
17770W        W33239   6.249  17.463   6.060  0.2538 -0.0998 -0.1047
17771W        W33240  13.537  13.930   4.268 -0.0804  0.2701 -0.1182
17772W        W33241   3.992  14.644   0.172  0.0165 -0.0152  0.1484
17773W        W33242  18.057  14.484  14.991 -0.0044 -0.1334  0.1229
17774W        W33243   2.779  11.639  14.104 -0.0910  0.0184  0.0250
17775W        W33244  12.085  13.542  14.736 -0.0839 -0.1271  0.0370
17776W        W33245   9.533   7.618   4.143 -0.0257  0.0379 -0.1787
17777W        W33246   9.220   0.762  13.665 -0.2251  0.0268 -0.0209
17778W        W33247   5.295  17.194   5.423  0.1881 -0.3070 -0.0510
17779W        W33248   5.558   2.534  10.681 -0.2394 -0.0380 -0.1759
17780W        W33249  16.120   8.880  10.588 -0.2485  0.3135  0.3252
17781W        W33250   0.186   9.391   0.530 -0.0454 -0.1516  0.0892
17782W        W33251   0.309  17.485  10.873 -0.0945  0.1113 -0.2448
17783W        W33252  18.185  17.467   2.483  0.1279  0.1171 -0.2642
17784W        W33253  17.565   0.484  13.677  0.1244  0.0144  0.1549
17785W        W33254  12.168  11.850   2.248  0.3147 -0.0173  0.0173
17786W        W33255   1.894   2.898   3.375 -0.1323 -0.1777 -0.3351
17787W        W33256   6.227  15.276   0.478 -0.0487  0.3240  0.4712
17788W        W33257   7.978  15.636   2.045  0.0352 -0.0333 -0.1452
17789W        W33258   2.192  10.824  10.530  0.0578 -0.1348  0.4418
17790W        W33259   7.849  15.535  11.165 -0.2041  0.1198  0.0920
17791W        W33260  15.541  14.245   3.613  0.2598  0.1607 -0.1892
17792W        W33261  13.322   4.892   9.804  0.1851  0.1320  0.0377
17793W        W33262   6.312   6.495   5.210 -0.0152 -0.3375  0.1001
17794W        W33263   1.736   6.566  10.858 -0.1564 -0.0291 -0.0474
17795W        W33264  17.480  17.736   2.993  0.1690 -0.3458 -0.1147
17796W        W33265   9.416   3.728  12.076  0.1301 -0.0038  0.1139
17797W        W33266   7.972   6.261  11.311  0.0672 -0.2408 -0.2382
17798W        W33267   2.051  12.413   2.775  0.1404 -0.3597 -0.3086
17799W        W33268   9.602   1.083  13.455  0.4366 -0.1476 -0.1201
17800W        W33269  14.941   2.657  12.209 -0.0792  0.1361  0.1528
17801W        W33270  17.403   8.783   0.636 -0.1310  0.5220  0.1703
17802W        W33271  12.698  14.363  13.792  0.1800 -0.3271  0.1687
17803W        W33272  15.211   4.064  14.054  0.0090  0.1273 -0.0997
17804W        W33273   6.046  11.709  11.114 -0.1594  0.2391  0.1669
17805W        W33274   2.082   3.723   2.344 -0.2573 -0.0236  0.1779
17806W        W33275  10.066   9.105   1.461  0.0069  0.2206 -0.0711
17807W        W33276   2.335  18.487   2.547  0.4242 -0.1707  0.0433
17808W        W33277  13.734   3.541  15.159 -0.2191  0.0043 -0.2112
17809W        W33278   4.938  14.047   3.505  0.0474  0.2606  0.1422
17810W        W33279  13.366   7.946  12.817  0.0878 -0.1969  0.2640
17811W        W33280  16.610   0.946   1.130  0.0476  0.0858 -0.2980
17812W        W33281   0.568   7.402  15.137  0.2156 -0.1888  0.1651
17813W        W33282  16.115  10.097   0.076  0.1930 -0.3096 -0.0524
17814W        W33283   0.191   9.844   0.806 -0.0367 -0.1963 -0.2250
17815W        W33284   4.101  14.227   1.992  0.1488 -0.0929 -0.2030
17816W        W33285  17.291  18.524  10.894 -0.0305 -0.0345  0.1367
17817W        W33286  12.955  17.130   2.986 -0.0864  0.3094 -0.0152
17818W        W33287   5.260   6.227   2.398 -0.4470  0.0075 -0.1505
17819W        W33288   9.848  16.981   4.116 -0.0261 -0.1120  0.2347
17820W        W33289  16.373   6.228   3.904 -0.0656  0.2160  0.0782
17821W        W33290  17.287   0.962  10.583 -0.0771  0.3230  0.1120
17822W        W33291  11.530   1.267  11.753  0.0679  0.1471 -0.1057
17823W        W33292  17.621   2.443   1.222 -0.4867  0.1234  0.2134
17824W        W33293   0.768   1.821  10.762 -0.2284  0.0465  0.3556
17825W        W33294   0.931  10.854   4.455 -0.1703  0.1010  0.2214
17826W        W33295  17.960   8.888  12.162 -0.1891  0.2613 -0.0339
17827W        W33296  12.367  10.836   1.130 -0.1233 -0.2393  0.2472
17828W        W33297   3.496  14.106  11.561  0.1471  0.0660 -0.2323
17829W        W33298   9.020   8.470  12.075 -0.1665  0.0790 -0.0840
17830W        W33299  12.024   9.792  12.542  0.0100  0.0844  0.0524
17831W        W33300  13.432  18.119   5.704 -0.0018 -0.3206 -0.1457
17832W        W33301  16.914  10.073  12.178 -0.0519 -0.1524  0.1084
17833W        W33302  14.118  13.647  10.194 -0.1364 -0.2214  0.2716
17834W        W33303   9.579  12.874   5.320  0.1878 -0.1412 -0.0135
17835W        W33304   8.974  15.356   0.785  0.0910  0.3760  0.3552
17836W        W33305   4.256  12.754  15.431  0.0873 -0.0178 -0.0933
17837W        W33306  10.561  16.178  13.068 -0.1148 -0.1794 -0.1221
17838W        W33307   7.050   8.192   3.641 -0.2951 -0.4206  0.0993
17839W        W33308   1.259  10.978  11.759  0.0500 -0.3537  0.1476
17840W        W33309  14.785   6.348   0.475  0.0836  0.1368 -0.1833
17841W        W33310   2.938  14.415   0.346 -0.2231  0.3420  0.1131
17842W        W33311   4.348   9.805  11.018 -0.3095  0.1611 -0.2234
17843W        W33312   6.581   7.838   2.465 -0.2690  0.0655  0.2204
17844W        W33313   6.987  16.245  13.231 -0.2139  0.0144  0.1132
17845W        W33314   1.181  13.542  13.517 -0.0743 -0.1458  0.3278
17846W        W33315   3.718   0.427   2.227 -0.1398 -0.1912 -0.0986
17847W        W33316   4.182   9.981   0.661 -0.0217 -0.0335 -0.4150
17848W        W33317  14.803  13.525   0.625  0.0882  0.0372  0.0720
17849W        W33318  15.484  16.868   4.175 -0.2185  0.1113 -0.1984
17850W        W33319  15.732  15.203   5.643  0.2178 -0.1673  0.2330
17851W        W33320   4.446  14.200  14.376  0.0732 -0.2176 -0.1632
17852W        W33321   1.205  11.715   2.212 -0.2413 -0.1615  0.1016
17853W        W33322   8.696  15.141  12.749 -0.0206 -0.4555 -0.2401
17854W        W33323   4.154  11.064  12.114 -0.3253  0.0260 -0.0146
17855W        W33324  16.347   4.608   9.543  0.4300 -0.0450 -0.1644
17856W        W33325   2.050   6.387  12.404  0.1205  0.0336 -0.1477
17857W        W33326   5.350  17.133   0.059  0.1093 -0.0160 -0.1774
17858W        W33327   6.454  12.056   9.847  0.1487  0.0108 -0.1862
17859W        W33328  13.253  16.342  13.785  0.0931 -0.2319 -0.0201
17860W        W33329   5.090  15.185   1.967  0.0987  0.3245  0.0355
17861W        W33330   1.475  10.069  11.462  0.0600  0.1127  0.1370
17862W        W33331  15.842   3.198   0.161  0.3342 -0.2197 -0.1010
17863W        W33332   2.822   8.786  13.897  0.1575 -0.1412 -0.3497
17864W        W33333  15.614   2.802   3.603  0.3622 -0.0256 -0.2461
17865W        W33334   8.734   9.941   2.734  0.3871  0.0213 -0.0683
17866W        W33335   3.668   3.234   3.494 -0.3187 -0.2493 -0.0760
17867W        W33336  18.888  13.822  13.974 -0.0597  0.1718 -0.0164
17868W        W33337   6.286   9.895  12.208  0.1919  0.0500  0.0860
17869W        W33338  13.981  11.710   0.208  0.0577  0.1177  0.0316
17870W        W33339   7.513  13.983  14.937 -0.0399 -0.0996 -0.3684
17871W        W33340   5.673  17.819  13.461  0.0268 -0.1129 -0.1731
17872W        W33341   9.630  10.160  11.866 -0.0917  0.1251  0.0977
17873W        W33342  13.004   9.782   3.721 -0.3323 -0.3743  0.2160
17874W        W33343   1.599  17.486  15.508 -0.1729 -0.3530 -0.2112
17875W        W33344   3.401   5.271  12.338  0.0658  0.1431 -0.1691
17876W        W33345   4.716  12.909   5.731 -0.0667 -0.1681  0.0156
17877W        W33346  10.472  14.332  15.488  0.0162  0.0644 -0.1226
17878W        W33347   0.003  10.295   5.955  0.1062 -0.0818 -0.4493
17879W        W33348  16.854  10.203  11.538 -0.0251 -0.0159 -0.0931
17880W        W33349   7.473   2.585   1.556 -0.2735 -0.2790 -0.1370
17881W        W33350   9.237  13.819   4.379  0.1049  0.5399 -0.1193
17882W        W33351  10.245  15.780   1.592 -0.1381 -0.0190  0.1914
17883W        W33352   3.584  14.688   2.401 -0.4456 -0.2420 -0.1997
17884W        W33353  14.735   5.734  14.583 -0.1114 -0.1969 -0.1153
17885W        W33354  15.872  17.662   6.102  0.2116  0.0538 -0.3160
17886W        W33355  11.049  13.232   3.389 -0.2720  0.1790 -0.0080
17887W        W33356  15.889  18.247  14.534 -0.1229 -0.1749 -0.0492
17888W        W33357   6.721   8.161  12.868 -0.1752  0.1867 -0.2838
17889W        W33358  16.790   5.950  12.694 -0.4449  0.0645  0.2056
17890W        W33359  11.885   2.721  12.210  0.1226 -0.4274  0.1517
17891W        W33360   2.334  11.904   9.217 -0.1484 -0.2581 -0.0721
17892W        W33361   4.262  13.715   3.068 -0.1541 -0.0996  0.0084
17893W        W33362  13.871   2.013   2.261  0.1569 -0.1241  0.2468
17894W        W33363   5.230   9.494   5.590 -0.1741  0.1169 -0.1890
17895W        W33364   2.510  10.971   0.154  0.0783  0.1640 -0.2239
17896W        W33365   6.614   0.062   4.974 -0.1190  0.0832 -0.0012
17897W        W33366  12.706  14.366  12.179 -0.5642 -0.7030 -0.1785
17898W        W33367   7.303  10.985   4.327  0.0601 -0.0912  0.0404
17899W        W33368   1.006   1.522   3.777  0.1861 -0.0509 -0.1194
17900W        W33369  11.809   0.841  11.671 -0.1825 -0.3047 -0.4187
17901W        W33370  13.270  14.866   2.073 -0.0906  0.1733  0.2757
17902W        W33371  16.094   6.189   3.258 -0.1876 -0.2929  0.1319
17903W        W33372   3.516  13.943   4.813 -0.2116  0.0641 -0.1441
17904W        W33373   2.876  15.775  14.885 -0.0360  0.4606 -0.2126
17905W        W33374   8.683   9.437   4.808  0.1319 -0.0742 -0.4579
17906W        W33375  13.944  18.807   3.894 -0.3288 -0.2628 -0.2244
17907W        W33376   5.122  14.775  14.886  0.0050 -0.1272 -0.2816
17908W        W33377  12.797  10.946   4.886 -0.1657  0.3393  0.1379
17909W        W33378   9.948  15.895   3.765  0.2097  0.1527  0.0862
17910W        W33379  18.315   1.857   0.591 -0.0651 -0.0178 -0.1226
17911W        W33380  13.727  16.719   3.813  0.2692 -0.1014 -0.0189
17912W        W33381   7.995   6.485   3.657 -0.1435  0.2737 -0.1702
17913W        W33382  12.372   8.509  12.459 -0.2426  0.0021  0.4069
17914W        W33383   8.660   4.085  13.521 -0.1490 -0.0938  0.1684
17915W        W33384   3.258   8.549  10.918  0.1380  0.1681 -0.1081
17916W        W33385  14.248  15.563   3.584 -0.1466  0.3868 -0.1464
17917W        W33386  13.476  16.973   4.823 -0.0962 -0.0144  0.0038
17918W        W33387   6.388  15.719   3.429  0.1860 -0.0046 -0.0385
17919W        W33388  13.680   2.194  14.913 -0.0596 -0.0706  0.2136
17920W        W33389   6.366  13.973  11.879  0.1401  0.0049  0.0973
17921W        W33390   0.205   2.893  14.368  0.2705  0.0948 -0.0853
17922W        W33391   8.958   9.311  10.955  0.0517  0.6192  0.1539
17923W        W33392   6.245  13.873   1.494  0.1573 -0.2681 -0.2812
17924W        W33393  15.420  18.631  13.330  0.1505 -0.1966 -0.1315
17925W        W33394   8.133  12.930   3.998  0.0355 -0.3154  0.0884
17926W        W33395   5.375  17.636   1.321  0.1775  0.0221 -0.0355
17927W        W33396  10.616  10.010  14.119  0.1446  0.2884  0.4052
17928W        W33397   4.376   8.936   3.703  0.1591  0.0803 -0.0892
17929W        W33398  13.265   4.673   3.715 -0.1408  0.3718  0.0975
17930W        W33399  11.739   6.451   1.812  0.0286  0.0983 -0.4774
17931W        W33400   8.963  18.613   2.165 -0.3561  0.1299  0.4063
17932W        W33401  10.500   4.851   0.982 -0.0940  0.1446  0.2588
17933W        W33402   8.100  16.792   1.302 -0.0914  0.1442 -0.0817
17934W        W33403  13.403   1.674  12.223 -0.1005  0.0463  0.2277
17935W        W33404  15.988  14.367   1.527 -0.1128 -0.3775  0.0262
17936W        W33405   7.297  16.827   3.184 -0.1489 -0.0378  0.0894
17937W        W33406  16.872  12.980   3.660 -0.1557 -0.1626 -0.1370
17938W        W33407  17.905   7.665   0.207  0.1280 -0.1220 -0.0830
17939W        W33408   1.612  18.934  13.611  0.1015 -0.0294 -0.2381
17940W        W33409   5.470   3.391   3.294 -0.0846 -0.2865 -0.2679
17941W        W33410   4.132   2.483   0.682 -0.0831 -0.4009  0.1576
17942W        W33411   4.440  12.267  10.897  0.1134 -0.0639 -0.1080
17943W        W33412  12.904  17.410   0.939  0.2244 -0.3517 -0.0019
17944W        W33413   1.299   6.410  11.304 -0.2098  0.2339 -0.2027
17945W        W33414  12.968   1.700  12.682 -0.2088  0.0482  0.0040
17946W        W33415   1.194  13.811  11.168 -0.1767 -0.1624 -0.0205
17947W        W33416  11.418   4.952  13.345  0.2120  0.0730  0.2224
17948W        W33417   8.725   4.556  13.268  0.2813 -0.1368 -0.5845
17949W        W33418  10.461  16.917   4.784 -0.1779 -0.0856  0.1727
17950W        W33419  14.324  16.545   0.826  0.2197  0.3606  0.1853
17951W        W33420   5.101  17.631   5.264 -0.1817  0.0120 -0.1500
17952W        W33421   2.751   9.330  12.526 -0.1987 -0.0902  0.0672
17953W        W33422  13.692   9.247   4.809  0.1805  0.0996 -0.2818
17954W        W33423  16.448  13.702   5.724 -0.2281 -0.1830 -0.3232
17955W        W33424  18.111  12.985   3.135  0.0300  0.1607 -0.1310
17956W        W33425  18.358  11.779  12.165  0.0912  0.3036  0.3134
17957W        W33426   3.397   5.410   3.469 -0.1874  0.0884 -0.1797
17958W        W33427   7.751   1.127  14.633  0.0119 -0.0016  0.0040
17959W        W33428   4.695   1.233  13.383  0.3504  0.3283 -0.0863
17960W        W33429  15.205  18.386  14.964  0.3754 -0.1203 -0.1702
17961W        W33430   9.262   8.533   1.162  0.0921 -0.1801  0.2336
17962W        W33431   2.817   2.143  14.512  0.0494 -0.0290  0.1821
17963W        W33432   8.639  15.330   2.775  0.0731 -0.2107  0.1185
17964W        W33433   5.394   8.762   0.250 -0.5643 -0.0501 -0.0659
17965W        W33434   5.359  18.525   1.787  0.0532 -0.2145  0.1136
17966W        W33435  18.203  12.361   1.343  0.0986 -0.1603 -0.2736
17967W        W33436  11.822   1.984   1.289  0.2960  0.2693 -0.1227
17968W        W33437   6.816   6.062  12.397 -0.2105 -0.3196  0.3039
17969W        W33438  15.043  16.577   1.651  0.1457  0.0446 -0.0667
17970W        W33439   3.595  14.401   2.020 -0.1287  0.1790  0.0416
17971W        W33440   4.655  15.486  11.897  0.3227 -0.0793  0.2053
17972W        W33441  17.484  15.971   2.395 -0.0985 -0.1559 -0.1058
17973W        W33442  11.408  16.486  13.040 -0.1652  0.1864  0.0461
17974W        W33443  13.704  11.958  10.429 -0.0101 -0.0521  0.2045
17975W        W33444   1.218   6.840  15.277  0.2999  0.0539 -0.2650
17976W        W33445   9.971  10.018  14.976 -0.0332 -0.0843 -0.0324
17977W        W33446  14.499   9.964   3.767 -0.0106 -0.1266  0.1663
17978W        W33447  14.086   9.443  11.581 -0.1746  0.0703  0.2841
17979W        W33448   9.306   1.408   1.834 -0.1086  0.0151 -0.1439
17980W        W33449   1.245   1.540   1.114  0.1249 -0.0600 -0.0080
17981W        W33450  12.390  13.862  10.301  0.0306 -0.1097 -0.1425
17982W        W33451   0.987   3.085  13.778 -0.0454 -0.0814  0.0046
17983W        W33452  15.027   5.035  13.469  0.0745  0.0371 -0.1647
17984W        W33453  13.734  13.922  10.430 -0.0416  0.0241  0.0736
17985W        W33454  17.502  13.281  11.154 -0.1105  0.1347  0.3774
17986W        W33455   7.965   8.349   3.930  0.2274  0.4757 -0.1489
17987W        W33456   1.034   0.725  13.072 -0.2050 -0.1887  0.2474
17988W        W33457  10.397   5.747  11.776  0.0979 -0.2376  0.3409
17989W        W33458   4.506  17.288  13.835 -0.0524 -0.1678  0.0369
17990W        W33459  18.264  10.564   3.782 -0.0250  0.3324 -0.1274
17991W        W33460   6.164  11.173  13.911 -0.2623  0.0394  0.1285
17992W        W33461   1.682   2.588  12.727  0.0481 -0.1076 -0.1835
17993W        W33462  11.859   2.797  12.826  0.0138 -0.0166 -0.2733
17994W        W33463   2.127  17.476  13.097 -0.1236  0.1478  0.2634
17995W        W33464  17.869  10.502  11.450  0.2143  0.1829 -0.1942
17996W        W33465  10.329   9.122  15.044 -0.1430  0.0710  0.2417
17997W        W33466  16.412  15.878  14.170  0.0122 -0.3774  0.0359
17998W        W33467   9.889  11.034   4.794 -0.2963  0.2697 -0.2830
17999W        W33468  17.910   3.298   2.734  0.1200 -0.0631  0.0396
18000W        W33469   7.788   5.644   4.859 -0.1814 -0.3035  0.2021
18001W        W33470   1.502   9.452   1.099  0.0704 -0.0319 -0.3430
18002W        W33471  18.676   3.233   3.158 -0.1863 -0.1604  0.1352
18003W        W33472   5.861  18.746  13.254  0.1692  0.0565 -0.2726
18004W        W33473  17.973   3.628   3.214 -0.0664 -0.1727  0.0006
18005W        W33474   2.986  18.071   4.212 -0.1596  0.0257  0.2848
18006W        W33475  10.247   5.976  14.535  0.0162  0.0394 -0.2180
18007W        W33476   3.359   5.142   0.309 -0.0634  0.1973 -0.2065
18008W        W33477   7.915   6.019  12.556 -0.0852  0.1852  0.2280
18009W        W33478  10.163  11.446   3.896 -0.1236  0.1590 -0.0174
18010W        W33479  10.917   8.082  10.868  0.0164  0.2818  0.0582
18011W        W33480   5.224  11.742  12.000 -0.0673  0.0450 -0.0097
18012W        W33481   3.859  16.131   2.668 -0.1955 -0.1819 -0.1092
18013W        W33482  15.610  18.007  12.794  0.0881 -0.1891  0.2075
18014W        W33483   9.104  10.418   4.128 -0.4658 -0.3187  0.1603
18015W        W33484   3.887  15.317   2.387 -0.1417  0.4965 -0.0244
18016W        W33485   2.350  14.245  10.517  0.0027 -0.2214  0.0841
18017W        W33486   6.543   5.044   0.371  0.0040 -0.2086 -0.1394
18018W        W33487   7.910  13.314   0.775 -0.3314 -0.1755  0.1091
18019W        W33488   8.670   7.487  10.911  0.4194  0.0525  0.1734
18020W        W33489   6.088  16.621  14.683 -0.3276  0.3250  0.0562
18021W        W33490   8.217  16.621   2.173  0.1691  0.1116  0.3099
18022W        W33491  10.961  14.841   1.978 -0.2060 -0.4184 -0.1283
18023W        W33492   2.201   5.200   1.649 -0.2852 -0.2359 -0.2618
18024W        W33493   0.280   4.107   3.501 -0.1208 -0.1698  0.0031
18025W        W33494  11.504  16.245  12.587  0.0771 -0.1024 -0.0072
18026W        W33495   6.462   5.628  14.566 -0.1094 -0.0127  0.1045
18027W        W33496  12.788  17.819   1.784  0.1017 -0.0155  0.3632
18028W        W33497   2.656   6.391  13.070  0.0167 -0.1512 -0.0572
18029W        W33498   8.875   8.548   4.798 -0.2062  0.5377  0.1689
18030W        W33499   5.449  10.256  11.928  0.0526 -0.4444 -0.1641
18031W        W33500  15.763   2.204   3.074 -0.1315  0.4141 -0.1971
18032W        W33501  15.971   6.900  10.689 -0.0185  0.3560  0.1110
18033W        W33502  18.028   2.187  10.626  0.1803  0.3469 -0.3734
18034W        W33503  11.073   6.667  11.320 -0.0486 -0.0354  0.0911
18035W        W33504  16.800  17.147   5.227  0.0344  0.0398  0.0754
18036W        W33505  18.840   0.677   3.987  0.0798 -0.0567  0.0703
18037W        W33506   3.786   3.577  12.902  0.3521  0.2558  0.1210
18038W        W33507   1.849  11.213  10.650  0.1639 -0.0634 -0.0052
18039W        W33508  11.199   7.913   2.889  0.0132 -0.1554 -0.2325
18040W        W33509  14.591  10.100  14.303  0.1480 -0.1100 -0.4707
18041W        W33510  16.311   6.918   2.829  0.3619  0.3413  0.3171
18042W        W33511   1.377  10.582  12.126  0.0431  0.3240 -0.3563
18043W        W33512  15.222   5.624   3.507  0.2015 -0.1878 -0.0083
18044W        W33513  13.110   5.034   0.859 -0.2562  0.0824  0.3089
18045W        W33514  15.067   3.985   4.358 -0.1729 -0.0964 -0.1650
18046W        W33515   1.261   8.648  11.433 -0.2492 -0.2107  0.1810
18047W        W33516   9.374   5.928  12.574  0.0654  0.0802  0.0153
18048W        W33517   9.634  15.952  13.093  0.1225  0.0313 -0.0467
18049W        W33518  14.675  13.758   3.364  0.1765  0.0605 -0.0583
18050W        W33519  11.938   6.051  13.581 -0.0105  0.1535  0.0123
18051W        W33520   4.524  17.009   9.432  0.0796  0.3531  0.1360
18052W        W33521   2.169  17.053   2.301  0.1371 -0.0978  0.2020
18053W        W33522  14.387  10.447  11.418  0.0810 -0.3400 -0.3285
18054W        W33523   4.364  15.289   2.132  0.0960  0.0419 -0.3613
18055W        W33524   5.779   8.867  12.719 -0.1703  0.0905  0.0962
18056W        W33525   7.942   0.526   9.666 -0.7115  0.0628  0.1081
18057W        W33526  16.690  12.976  15.430  0.0445  0.3471 -0.2568
18058W        W33527  18.629   8.466   2.292 -0.1536  0.3178  0.4502
18059W        W33528   9.081   5.172   3.584  0.3867 -0.0186 -0.0399
18060W        W33529   9.490  13.384  12.472 -0.1323 -0.3229  0.1196
18061W        W33530  13.352   2.509  11.175 -0.0898 -0.3164 -0.0807
18062W        W33531   6.675   2.104  12.621  0.2786  0.0355 -0.2082
18063W        W33532   8.290  14.499  10.258  0.0317 -0.2489 -0.0302
18064W        W33533   0.410  11.075   0.535  0.1451 -0.0694 -0.1496
18065W        W33534  11.941   0.233  13.712 -0.0793  0.3821 -0.1015
18066W        W33535   0.799   8.242  12.620 -0.1488  0.1580 -0.2412
18067W        W33536   9.621  10.351   0.534  0.0380 -0.2050 -0.0861
18068W        W33537  16.742  10.360  14.642  0.0597  0.2444 -0.4442
18069W        W33538  13.935   5.709   4.098 -0.0445 -0.0326 -0.2317
18070W        W33539  13.417   0.501  15.223  0.1981  0.0761  0.0427
18071W        W33540  18.654   3.907   2.778 -0.0681 -0.1083  0.0053
18072W        W33541   8.915  12.638   5.327  0.1003 -0.0380  0.2375
18073W        W33542   5.117  16.624   5.876  0.3647 -0.0573 -0.0981
18074W        W33543  14.631   5.799  11.635  0.0519 -0.2430 -0.1231
18075W        W33544  11.611  18.907   1.049  0.2437  0.0037 -0.1284
18076W        W33545   8.777   1.691   4.519 -0.2269  0.5121  0.1233
18077W        W33546   6.807   3.026  12.717 -0.1563 -0.2814 -0.1795
18078W        W33547   9.212  15.432  14.255 -0.3772  0.0640  0.0533
18079W        W33548  16.444  16.967   4.273  0.0026  0.1213  0.0223
18080W        W33549   1.321   9.329   3.918 -0.0399 -0.2655  0.2299
18081W        W33550  12.635  16.598  12.345  0.2843  0.3036  0.1224
18082W        W33551   2.694   5.584   3.705  0.1506  0.1273 -0.1229
18083W        W33552   1.778  11.725   5.022  0.2181 -0.0629 -0.3673
18084W        W33553   8.152  17.424  12.821  0.2061 -0.1202  0.1418
18085W        W33554  14.081   7.234   1.321  0.2555  0.0475 -0.0246
18086W        W33555   7.114  12.722   2.618  0.0453  0.0379 -0.0731
18087W        W33556   6.597  16.662   3.715  0.1905  0.2493  0.2384
18088W        W33557   4.594   1.089  13.852  0.1481 -0.0557 -0.2842
18089W        W33558  13.633   0.450   2.481 -0.3499 -0.2597 -0.1528
18090W        W33559  11.085   3.272  12.821  0.0889  0.1251  0.1722
18091W        W33560  17.072  18.451   2.917 -0.0881  0.0542 -0.3590
18092W        W33561  18.850   8.214   0.633  0.0380 -0.1936  0.1481
18093W        W33562  14.634  17.261   3.735 -0.0121 -0.2570 -0.1889
18094W        W33563   4.076  15.364   5.411 -0.0276  0.1981  0.1696
18095W        W33564  11.171   9.266  13.327 -0.0772  0.1084  0.4982
18096W        W33565   0.130  16.866  13.173  0.1666  0.2086  0.1021
18097W        W33566   1.057   5.979  13.623 -0.2650 -0.2942 -0.4723
18098W        W33567  10.109  17.732   1.226 -0.1171 -0.2225  0.0301
18099W        W33568  12.247  10.422  10.194  0.2622 -0.0670 -0.3239
18100W        W33569   8.238   4.639   4.569  0.1342  0.2161  0.1131
18101W        W33570  12.809  10.656   2.465 -0.0195  0.1262 -0.0251
18102W        W33571  10.181   1.243   1.257  0.1842 -0.4698  0.0639
18103W        W33572  12.215  18.466  12.687 -0.0129 -0.0094 -0.1020
18104W        W33573  17.167   1.357   2.933  0.1184 -0.2948  0.0767
18105W        W33574   4.364   2.683  14.748  0.3263 -0.0279  0.1241
18106W        W33575  15.326  16.931   1.303 -0.0860  0.1611  0.0167
18107W        W33576   5.099   5.470  13.259 -0.2076  0.2576 -0.1768
18108W        W33577   0.507   0.143  10.313  0.0385 -0.1568  0.0792
18109W        W33578  14.279  16.906  13.333  0.2351  0.3869 -0.1912
18110W        W33579  14.829  14.386   5.563  0.0333  0.2030 -0.1793
18111W        W33580  15.918   0.264   3.978  0.3206  0.1861 -0.3408
18112W        W33581  17.602  18.489   2.032 -0.0204  0.0110 -0.0534
18113W        W33582  12.120   6.047  14.141  0.3159  0.0744 -0.2279
18114W        W33583  12.258  17.518  12.195  0.1004 -0.1699  0.0704
18115W        W33584   5.456   0.954   2.632  0.2404  0.6775  0.1009
18116W        W33585  12.606   7.830   0.281  0.4175  0.0078  0.0866
18117W        W33586   1.400  10.033   3.356  0.0477  0.2456  0.2867
18118W        W33587  12.527   3.765  11.527 -0.1241  0.0065  0.1893
18119W        W33588   3.774  11.368   9.914  0.2519  0.1651 -0.1491
18120W        W33589  13.721  15.567   2.618  0.1691 -0.5608  0.1190
18121W        W33590   5.868  14.712   1.771  0.3035  0.1457  0.0033
18122W        W33591  11.847  17.647   5.132 -0.0767  0.0742  0.1002
18123W        W33592   2.742   2.293   1.037  0.1598  0.0161  0.3635
18124W        W33593   4.788   6.586   1.353  0.0630  0.2253 -0.2081
18125W        W33594  14.114   3.285   5.843 -0.0447  0.3294 -0.3336
18126W        W33595  13.655   8.788  13.172 -0.0496  0.4437 -0.1274
18127W        W33596  10.036  15.779   4.419  0.2200 -0.0490  0.2670
18128W        W33597   0.595  10.530   3.027  0.3737 -0.0063 -0.1158
18129W        W33598   2.606   1.768  12.716  0.3080  0.0438 -0.3167
18130W        W33599  12.220   7.574  12.071  0.0730 -0.0311  0.1304
18131W        W33600   7.730  14.654   2.994 -0.0837 -0.0615 -0.2100
18132W        W33601  16.390  10.678   4.920 -0.3205 -0.2272 -0.0697
18133W        W33602   7.568   7.091   4.183  0.0689  0.0119 -0.0759
18134W        W33603   0.081   8.156  13.409  0.2282 -0.0916  0.0966
18135W        W33604  15.526   5.793  13.849 -0.0343 -0.3672 -0.1539
18136W        W33605   1.970  16.675   1.415  0.0127 -0.0739  0.1756
18137W        W33606  15.188   9.526  10.605 -0.1902 -0.0394 -0.2675
18138W        W33607  11.075  10.548  12.905 -0.0410  0.0865 -0.0715
18139W        W33608  14.680   6.048  12.089  0.0404 -0.0673  0.0179
18140W        W33609   8.226   6.587  13.487  0.4092 -0.0875 -0.0416
18141W        W33610   5.799  12.872  13.653  0.3650 -0.2479 -0.2320
18142W        W33611   6.354   6.844  12.473 -0.1795  0.0333  0.2294
18143W        W33612   3.486   4.073  11.561  0.2960  0.0184  0.0266
18144W        W33613   7.048   5.167  13.448  0.5468 -0.3520  0.1615
18145W        W33614  13.927  11.310   4.150 -0.1993 -0.1955 -0.0269
18146W        W33615  15.227   8.639   2.013  0.0864 -0.0485 -0.0414
18147W        W33616  11.301   5.458  11.598  0.0225  0.2872  0.1398
18148W        W33617   5.619   6.290   3.754 -0.0550  0.0156  0.1329
18149W        W33618   6.430   9.794  14.245  0.1883 -0.0540  0.3463
18150W        W33619  16.978  10.872   4.405  0.1990 -0.0429 -0.1147
18151W        W33620   9.902   1.665   0.467  0.0986  0.0850 -0.1111
18152W        W33621   2.689  13.541  12.488  0.1193 -0.0437  0.0589
18153W        W33622   7.248  13.530  11.622  0.3333  0.0119  0.2974
18154W        W33623   2.227  12.039   3.393  0.5991  0.1259  0.0957
18155W        W33624  16.907  15.229  14.962  0.2260 -0.3257  0.0144
18156W        W33625   3.476  10.681  11.110  0.0082  0.4434 -0.0801
18157W        W33626   9.427   1.947  12.368 -0.0242 -0.1715 -0.0962
18158W        W33627  14.569   5.158   1.042  0.1349 -0.1861 -0.3875
18159W        W33628  18.244  16.216   4.197  0.2620 -0.0756 -0.1085
18160W        W33629   9.626   2.341   4.334 -0.1175 -0.0153 -0.1063
18161W        W33630   6.564   6.131   1.078 -0.2440 -0.2951  0.1595
18162W        W33631  16.704  11.113  12.972  0.2618  0.3111 -0.2554
18163W        W33632  18.135   9.596   5.139  0.2159 -0.1501 -0.2421
18164W        W33633   0.990   0.841  15.304  0.0149 -0.4288 -0.1898
18165W        W33634   6.399  18.910  11.170 -0.4244  0.0713 -0.4610
18166W        W33635   6.422  18.920   3.268  0.0173  0.1112 -0.0341
18167W        W33636   0.980   2.324   3.188 -0.1329  0.0379  0.1718
18168W        W33637   9.070   5.562   0.101 -0.0450 -0.0731 -0.0862
18169W        W33638   7.715  13.313   0.306  0.0715  0.0961 -0.0186
18170W        W33639   9.704  15.644  15.151  0.0351 -0.0376 -0.1015
18171W        W33640  15.855   9.721   2.815  0.0272  0.0839  0.2903
18172W        W33641  16.473   1.569  12.097 -0.0506  0.1656 -0.0220
18173W        W33642  17.499  14.171   5.416  0.2841 -0.2825  0.2133
18174W        W33643  15.254   5.143  11.687 -0.3134 -0.0426 -0.1203
18175W        W33644  12.655   0.261   0.805 -0.1731 -0.0686  0.0774
18176W        W33645  15.613   8.864   4.697 -0.0813  0.4393  0.1193
18177W        W33646  14.921  10.401  14.807  0.1578 -0.0356 -0.3122
18178W        W33647   0.261   3.963  15.394  0.1516  0.4379  0.1894
18179W        W33648   7.170  11.258   3.912 -0.2938 -0.0519 -0.2491
18180W        W33649  15.573   2.023   0.709  0.1980 -0.1232 -0.3436
18181W        W33650   3.791   7.062   0.283 -0.0298  0.0264  0.1435
18182W        W33651   3.003  15.153   0.840 -0.4767 -0.0499  0.0817
18183W        W33652   6.124  16.256   4.376  0.0958 -0.0720 -0.1917
18184W        W33653   4.569   0.542  15.200 -0.1721  0.0937 -0.1754
18185W        W33654  17.962   6.524  11.329  0.2215  0.1174 -0.1526
18186W        W33655   8.895   7.471  14.476  0.0098  0.2127 -0.0919
18187W        W33656  10.165  15.468  14.881  0.1405  0.1162  0.0520
18188W        W33657   5.688  16.763  12.803 -0.5271 -0.1170 -0.1119
18189W        W33658   0.972  11.100   0.524  0.1349 -0.3003  0.0375
18190W        W33659   9.073   8.075   0.991 -0.2535 -0.0353  0.1305
18191W        W33660  12.957   5.302   2.965  0.0045 -0.3308  0.3048
18192W        W33661  14.212  18.054  15.021 -0.1572  0.2750  0.0935
18193W        W33662  16.392  14.173   4.511  0.2350  0.1327  0.0044
18194W        W33663   1.543   9.602  13.853  0.1351 -0.1086 -0.2674
18195W        W33664   5.861   3.991   1.708  0.3014 -0.2997 -0.0849
18196W        W33665  12.170   8.713  11.602  0.0316 -0.1146  0.2597
18197W        W33666  14.477  11.523   1.344 -0.1688 -0.1256  0.1345
18198W        W33667  11.889   5.800   4.326 -0.3114  0.0450 -0.1286
18199W        W33668   1.393   7.811  11.266 -0.1576 -0.1203 -0.2312
18200W        W33669  14.276   2.594  14.190 -0.0935 -0.0202 -0.3050
18201W        W33670   4.012   6.258  12.671  0.1947 -0.0561  0.0561
18202W        W33671   7.238  17.214  13.805 -0.0078 -0.3928  0.1407
18203W        W33672   3.782   6.352   3.463 -0.0890  0.2405 -0.2900
18204W        W33673   7.275   4.320  10.092  0.0346 -0.0461 -0.2150
18205W        W33674  12.716  16.572  15.036 -0.2113 -0.2202 -0.0699
18206W        W33675   4.657  15.036   1.738 -0.0821  0.2174 -0.3807
18207W        W33676   3.563  16.290  14.788 -0.1208 -0.1115  0.1926
18208W        W33677   7.911   5.277  13.853 -0.1064  0.0520  0.2283
18209W        W33678  16.230   8.795  14.658  0.1296  0.2664 -0.3995
18210W        W33679   8.133  16.105  15.168 -0.0239  0.0656 -0.1129
18211W        W33680   5.024   9.527   1.104  0.0667  0.1393 -0.1704
18212W        W33681   5.429  13.345  12.868 -0.0882  0.0846  0.0720
18213W        W33682   6.490  11.061   2.473  0.0263 -0.0471  0.2761
18214W        W33683   6.382  14.687  13.693 -0.1504 -0.0223  0.3136
18215W        W33684   9.027   7.670   3.784  0.0083  0.2428  0.2085
18216W        W33685  18.242   3.472   0.592  0.2467 -0.0422 -0.1439
18217W        W33686   1.846   3.281   3.715 -0.0161  0.0473 -0.1101
18218W        W33687  12.736   6.446   4.441  0.0561  0.1631  0.2300
18219W        W33688  17.100   8.678   0.221 -0.1625  0.3814  0.0639
18220W        W33689  14.385   1.118  15.305 -0.2664 -0.0765  0.1309
18221W        W33690   2.623  10.054   1.170 -0.0785 -0.0706  0.2594
18222W        W33691   7.024   8.296  13.678 -0.0371 -0.1860 -0.3512
18223W        W33692  18.336   8.084   0.010 -0.3555  0.2041  0.3967
18224W        W33693  15.363  12.010  10.696 -0.1430  0.3289  0.1258
18225W        W33694  17.069  17.175   1.766 -0.2436 -0.2531 -0.1938
18226W        W33695   0.655  17.204  15.398  0.2122 -0.3367 -0.1185
18227W        W33696   1.653   2.704   0.542 -0.0036  0.0532 -0.4621
18228W        W33697  18.476  12.264   1.818 -0.1250 -0.2912 -0.1483
18229W        W33698   4.991   4.366  14.659  0.1117 -0.3823  0.4894
18230W        W33699  10.528   8.413  14.777 -0.5351  0.1634  0.2125
18231W        W33700   6.295   5.689   1.994 -0.0881  0.0596 -0.1921
18232W        W33701   2.869  18.514  11.388  0.5207 -0.4431  0.3702
18233W        W33702  11.948   6.240   4.596  0.0383 -0.2398  0.0056
18234W        W33703  17.203   8.459  14.881  0.0607  0.1207 -0.1286
18235W        W33704   8.225   9.056  13.498  0.1861 -0.1060 -0.2995
18236W        W33705   5.637   9.183   5.611 -0.0948 -0.0943  0.1884
18237W        W33706  14.131  16.401   0.032 -0.3260 -0.0596 -0.3289
18238W        W33707  14.825   6.856   3.535  0.3038 -0.3205  0.0376
18239W        W33708   1.369  18.708  11.915  0.1963  0.2330  0.0108
18240W        W33709   8.904   4.754  14.703  0.1021 -0.4155  0.2900
18241W        W33710  15.945   1.529  13.888  0.1048  0.0040 -0.3842
18242W        W33711  14.062   8.221  13.942 -0.4273  0.1156 -0.0817
18243W        W33712   8.374   5.689   9.680 -0.0167 -0.2172  0.1280
18244W        W33713   0.822   2.304  14.645  0.0241 -0.2165  0.0359
18245W        W33714  13.414  15.822  11.510  0.0668 -0.0880  0.0497
18246W        W33715   6.656  14.432  11.327 -0.0287  0.2243 -0.0696
18247W        W33716   6.683  14.970   9.644 -0.2347  0.2653  0.0464
18248W        W33717  12.622  16.028   1.521 -0.0767 -0.0924 -0.2049
18249W        W33718  11.570  15.453   0.819 -0.0334 -0.3616 -0.1537
18250W        W33719  17.572  18.391   3.039 -0.2639 -0.0822 -0.0558
18251W        W33720  12.897  14.173  11.334  0.0513  0.1336 -0.0396
18252W        W33721   8.189  17.964  11.961 -0.1487  0.0160  0.1305
18253W        W33722   6.878   9.677   1.295  0.0978 -0.0189 -0.3377
18254W        W33723   2.722  16.921   2.078  0.0190  0.2218  0.0894
18255W        W33724   2.820  16.487   1.818  0.1928 -0.2590 -0.0902
18256W        W33725  13.706   9.303   3.143  0.1055 -0.2102  0.0668
18257W        W33726  10.458  14.856   2.711 -0.3309 -0.0664  0.3444
18258W        W33727   1.411   4.225   0.077  0.2008  0.2252 -0.3734
18259W        W33728   9.212   7.147   0.927 -0.0766  0.2055 -0.2231
18260W        W33729   9.471   7.812  15.155 -0.2506  0.1269 -0.4017
18261W        W33730   0.479  15.366  14.286  0.2504 -0.4083  0.1533
18262W        W33731   1.506   6.467   2.264 -0.0804  0.3558 -0.0170
18263W        W33732  18.201   1.743   1.097 -0.0852  0.1041  0.1669
18264W        W33733   2.797  12.663  12.992  0.2422  0.0453 -0.0334
18265W        W33734  15.647  11.219  13.417  0.2239 -0.1200 -0.2342
18266W        W33735  17.434  13.827  12.869 -0.2447  0.1901  0.1312
18267W        W33736  12.986   8.740   4.793 -0.3057  0.3065  0.1796
18268W        W33737   0.615   1.757   5.301  0.0459  0.0103 -0.0346
18269W        W33738  18.862  17.086   4.203 -0.1768  0.2385  0.2806
18270W        W33739   8.242   0.260  14.594  0.2074 -0.0964  0.3407
18271W        W33740   3.166   4.339  10.973 -0.0088 -0.1609 -0.1702
18272W        W33741  16.040   1.986  14.783 -0.0157  0.1809 -0.0707
18273W        W33742   8.764  16.058   3.020  0.1143  0.2444 -0.0823
18274W        W33743  13.659  14.172  10.905  0.1180 -0.2294 -0.2766
18275W        W33744   8.466   3.417   1.673 -0.0298  0.0297  0.3264
18276W        W33745  12.663   0.908   4.729  0.0482 -0.1280  0.0118
18277W        W33746   9.232   8.319  13.042 -0.0232 -0.0514 -0.0200
18278W        W33747   7.489   5.542  10.272 -0.0594 -0.1193 -0.0235
18279W        W33748  16.280  15.710   2.747  0.0068  0.0075  0.2397
18280W        W33749  17.220   4.116  15.451 -0.1857  0.0499  0.0425
18281W        W33750   0.910   1.605   4.943 -0.1571  0.0416  0.2332
18282W        W33751  18.589  18.362  14.248  0.1710 -0.3101 -0.0889
18283W        W33752  15.205  11.015  10.704 -0.2209  0.0990 -0.0133
18284W        W33753   0.254   1.454  12.730  0.2195 -0.1656  0.0562
18285W        W33754  14.424  14.247   1.168 -0.0594 -0.2288  0.1580
18286W        W33755   7.872   8.610   2.879  0.0239 -0.4250  0.0335
18287W        W33756  17.095  13.144  11.441 -0.0305  0.0789  0.3569
18288W        W33757  15.523   0.600  11.258  0.3012 -0.1136 -0.0458
18289W        W33758   4.398  16.357  13.799 -0.0316 -0.3311  0.1759
18290W        W33759   0.122   1.349   2.065  0.1297  0.3862  0.2427
18291W        W33760  15.419   5.285   1.506 -0.1566 -0.1004  0.0435
18292W        W33761   3.229   6.294   2.322 -0.0520 -0.0945  0.4514
18293W        W33762   6.562   3.848   4.754  0.2233 -0.1433 -0.0003
18294W        W33763  17.517  16.663   1.567 -0.1537  0.1378 -0.1422
18295W        W33764  11.018   5.437   4.907 -0.3821 -0.0505  0.0497
18296W        W33765  11.313   3.373   0.161  0.3522  0.1331 -0.1020
18297W        W33766   6.918  10.323  10.675 -0.0721 -0.0414 -0.3488
18298W        W33767   8.059  12.509   4.368 -0.0246  0.0045  0.1168
18299W        W33768   4.826  16.874   9.869 -0.2403 -0.1296 -0.0722
18300W        W33769  12.515   7.754  13.438  0.3232 -0.3031 -0.0949
18301W        W33770  14.614  17.180  13.173 -0.3653 -0.1615 -0.0739
18302W        W33771   7.664   1.500  13.722 -0.1899 -0.1368 -0.0618
18303W        W33772  12.789  15.253  12.955  0.0562  0.0564 -0.0828
18304W        W33773   8.382   5.217   3.070 -0.2695  0.0132 -0.3021
18305W        W33774   4.848   5.262  14.182  0.0037  0.3449  0.0796
18306W        W33775   6.403  14.746   5.775 -0.2017  0.0760  0.0736
18307W        W33776   6.405  17.710  14.279  0.2376  0.4494 -0.3360
18308W        W33777   6.735  15.227  14.895  0.3760 -0.0495  0.2256
18309W        W33778  16.560   1.874   1.026 -0.1019  0.2240 -0.3308
18310W        W33779  16.231   2.554   3.027  0.0660 -0.2234  0.2999
18311W        W33780   6.637   6.814  14.203 -0.3746 -0.2325 -0.3823
18312W        W33781  16.391  15.157  14.094 -0.0580  0.0047  0.0953
18313W        W33782   4.628   5.992   5.200 -0.1261 -0.2310 -0.4390
18314W        W33783  11.922  18.029   2.410  0.1113 -0.1835 -0.1372
18315W        W33784  16.646   3.444  14.472  0.1440 -0.2348  0.0370
18316W        W33785   0.229  10.958   0.095  0.1844  0.1416  0.3340
18317W        W33786  12.855   0.708   3.950  0.4065  0.2315  0.1317
18318W        W33787   6.686   5.992   2.220 -0.1156 -0.0352  0.0692
18319W        W33788   0.074   8.246   2.519 -0.1276  0.0671  0.2246
18320W        W33789  11.799   8.113   5.591  0.1222 -0.4188 -0.2735
18321W        W33790   7.697   4.325   3.608 -0.1964 -0.3300 -0.1915
18322W        W33791   5.808  16.995   1.479 -0.0282  0.0093 -0.1299
18323W        W33792  10.284  17.342  15.281  0.3422  0.2052 -0.3102
18324W        W33793  15.858   2.615  12.800  0.0028  0.1873  0.1441
18325W        W33794   7.062   5.017   3.225  0.1724 -0.0073 -0.4045
18326W        W33795   4.505  18.027  12.729  0.1228  0.0391  0.3000
18327W        W33796  14.638   1.210  13.264  0.0908  0.0932 -0.1808
18328W        W33797  18.859   3.323   1.635 -0.3159  0.1854  0.0160
18329W        W33798  14.913  14.569  14.697  0.0182  0.1869  0.2727
18330W        W33799  16.981   8.752  15.159 -0.0554 -0.0814 -0.3734
18331W        W33800   1.485   8.852   4.033  0.1653  0.1197  0.0841
18332W        W33801  17.651   2.202   5.810  0.4620  0.1418  0.1854
18333W        W33802   5.067   1.582  11.590 -0.0471  0.2575 -0.3274
18334W        W33803   5.421   9.619  12.712 -0.1918 -0.1593  0.0917
18335W        W33804  11.165  14.134   3.738  0.3461  0.0736 -0.1870
18336W        W33805   4.193   0.835  13.741 -0.3403 -0.2532 -0.2298
18337W        W33806  18.349  13.555   3.197  0.1842  0.1767  0.4237
18338W        W33807  13.260   6.179   5.447 -0.2654 -0.0229  0.3550
18339W        W33808   0.369   5.908  12.205  0.0986  0.0682  0.0386
18340W        W33809   2.503   6.334  10.269 -0.1423 -0.0640  0.0181
18341W        W33810   2.629   5.207  13.363  0.0303  0.3798 -0.2608
18342W        W33811   1.233  10.171   0.249  0.2713  0.0316  0.0464
18343W        W33812  11.053  12.861   5.253 -0.1779  0.1503 -0.0261
18344W        W33813  13.618   6.166   4.127 -0.4609 -0.1006  0.2536
18345W        W33814   3.546   5.883   3.193 -0.2325 -0.1151  0.0357
18346W        W33815   4.085   7.685   0.821 -0.2248 -0.2201 -0.0895
18347W        W33816   2.793   6.587   1.922  0.0023 -0.0507  0.3399
18348W        W33817  17.387  14.217   2.552  0.1541  0.1370  0.0146
18349W        W33818   1.725   1.741   6.131  0.1063  0.1291  0.2156
18350W        W33819   0.913  14.560   4.561 -0.1267  0.1897  0.0748
18351W        W33820   3.474   8.675   3.748 -0.1035 -0.0928  0.1013
18352W        W33821   1.714   5.276   0.937  0.2249 -0.0908  0.0112
18353W        W33822   7.612   6.332   1.738  0.0886 -0.3318  0.2036
18354W        W33823   9.510  10.273   0.994 -0.0219 -0.0597 -0.2268
18355W        W33824  18.868  13.052  13.624  0.1879 -0.0126  0.2457
18356W        W33825  14.304   8.703  14.840  0.2199 -0.2908 -0.1863
18357W        W33826  18.412   2.477   3.913 -0.0961 -0.1812 -0.2532
18358W        W33827   8.976   9.931  10.748  0.2113  0.0958  0.1230
18359W        W33828   5.203   5.476  14.563 -0.0863  0.1071  0.1607
18360W        W33829   0.514   1.805  12.524  0.1436 -0.1291 -0.2814
18361W        W33830   7.691   1.680   3.809  0.2471 -0.0263  0.0119
18362W        W33831   8.430   1.819   1.546 -0.2763  0.0043  0.2611
18363W        W33832  13.210  11.211   4.762  0.0382 -0.3453 -0.1097
18364W        W33833   5.721  11.158  15.234 -0.0440  0.1226  0.0823
18365W        W33834   3.452   3.348   2.978  0.1549 -0.0017 -0.0671
18366W        W33835  18.781  17.882  15.385  0.3118  0.0337 -0.1706
18367W        W33836  14.383   4.039  12.603 -0.1951  0.6971 -0.4023
18368W        W33837  16.808  14.493  11.489 -0.2985 -0.1700 -0.1027
18369W        W33838  18.853  10.924  10.586  0.0599  0.1325 -0.0904
18370W        W33839   1.959  11.789   1.325  0.2118 -0.0799  0.0216
18371W        W33840   8.249   8.615  14.215  0.2009 -0.2603 -0.1778
18372W        W33841  14.998   9.352   0.025 -0.1097  0.0029 -0.0982
18373W        W33842  11.043   6.767  13.693  0.0927 -0.0321 -0.2340
18374W        W33843  14.081  10.322   3.699 -0.4738 -0.1191  0.0652
18375W        W33844   3.733   0.495   2.728  0.0720  0.0560  0.3909
18376W        W33845  15.590   2.562   0.794  0.0192  0.0705 -0.0395
18377W        W33846  12.555  11.289  10.755  0.2024 -0.2948 -0.1692
18378W        W33847   5.024   0.237  11.684 -0.3865  0.4197 -0.1944
18379W        W33848   5.726  18.771  12.113  0.0714 -0.0494 -0.2381
18380W        W33849  18.101  10.570  15.120  0.1005 -0.1405  0.0801
18381W        W33850  10.247   6.590  10.541  0.2695 -0.1890 -0.2978
18382W        W33851   8.366  17.091   0.011  0.0469  0.1232  0.0597
18383W        W33852   7.232   6.595   3.019  0.3051 -0.1637 -0.3488
18384W        W33853   5.504   6.533   0.112 -0.1483 -0.0287 -0.1068
18385W        W33854   9.057   0.193   1.955 -0.0286 -0.3584 -0.2082
18386W        W33855  15.224   3.810  11.465  0.1396 -0.2425  0.0738
18387W        W33856   2.556   2.576   1.854 -0.0607  0.1015 -0.2232
18388W        W33857   4.005  10.147   2.678  0.0566 -0.0129 -0.1663
18389W        W33858   8.633  12.732   5.715  0.1965 -0.0611  0.2581
18390W        W33859  16.957   1.241  12.759  0.2859  0.1500 -0.2283
18391W        W33860  18.746   2.944   2.424  0.0687 -0.0699  0.3125
18392W        W33861  12.202   7.881   1.161 -0.2782  0.1691  0.1754
18393W        W33862   3.554   8.892  15.501 -0.1285  0.0613 -0.0690
18394W        W33863   8.279  10.955   9.694  0.0053 -0.2125  0.1083
18395W        W33864   6.143  10.127  13.340 -0.1272 -0.1424 -0.1145
18396W        W33865   8.177  14.522  11.073 -0.1332  0.1174  0.5096
18397W        W33866  13.384  13.973   3.103 -0.3204 -0.0310 -0.0523
18398W        W33867  10.406   3.624   4.063 -0.2552 -0.1189 -0.1971
18399W        W33868  15.306   8.417  13.259  0.5106  0.0663  0.0558
18400W        W33869   1.089   5.943  12.330 -0.0996  0.2305 -0.2556
18401W        W33870  13.439   4.228   2.656 -0.0711 -0.3521 -0.1499
18402W        W33871   3.061  12.243  13.312  0.3868  0.2515  0.1234
18403W        W33872  17.702   8.013  12.681  0.3538 -0.0715 -0.1891
18404W        W33873   8.502   5.345  13.996 -0.0935 -0.1587 -0.2448
18405W        W33874   1.477  11.673   0.938  0.0198 -0.2861 -0.0622
18406W        W33875  14.111   0.463   1.726 -0.0235 -0.0181 -0.1569
18407W        W33876   2.342   0.579   2.105  0.0714 -0.0802 -0.0052
18408W        W33877  11.666  14.957   0.781 -0.3084 -0.1675 -0.1465
18409W        W33878   7.225  12.194   2.625  0.2714  0.2288 -0.0600
18410W        W33879  10.527   9.241   2.146  0.0518  0.0192 -0.2319
18411W        W33880  12.075   2.885  14.256  0.1755  0.1974  0.2516
18412W        W33881  16.872   7.362  13.313  0.0223  0.2005  0.2621
18413W        W33882   8.382   8.326   4.716 -0.2274  0.2755 -0.1628
18414W        W33883  12.338  14.710   0.639 -0.3360  0.0136  0.3240
18415W        W33884   5.738  11.545   0.368  0.0956 -0.0754 -0.0747
18416W        W33885   3.044  11.515   9.999  0.0616 -0.0135  0.0977
18417W        W33886  14.801  15.460   4.588  0.0358  0.1091  0.5386
18418W        W33887   8.549  18.769   0.612 -0.0345  0.2032 -0.0261
18419W        W33888  15.034  12.392   1.639 -0.0276  0.1237  0.0371
18420W        W33889   4.542  18.826  13.290  0.0155  0.0995  0.3131
18421W        W33890   6.856   2.579  15.338  0.2700 -0.1170  0.1432
18422W        W33891  12.521   5.677   0.715 -0.1326  0.0062 -0.1705
18423W        W33892  16.009  15.746   1.169  0.1928  0.1464  0.0368
18424W        W33893  14.890  15.417   1.974 -0.3634  0.3994 -0.0121
18425W        W33894   0.800   6.378  11.101  0.1152  0.0604  0.1460
18426W        W33895   8.069   5.090   4.066  0.2670 -0.0593  0.2764
18427W        W33896  11.580  14.376  10.534  0.0361 -0.2234  0.2197
18428W        W33897   3.346  11.561   9.631 -0.1781 -0.0500  0.0336
18429W        W33898  16.961   3.596  14.930  0.2128 -0.1351 -0.2768
18430W        W33899   7.901   0.832   1.349 -0.0838 -0.1451 -0.1807
18431W        W33900   5.930   7.397   0.641 -0.0262 -0.1031 -0.1053
18432W        W33901  16.367  17.918   4.732 -0.3478  0.2556 -0.1981
18433W        W33902   6.465  16.428   1.981 -0.1207  0.0268 -0.2943
18434W        W33903  17.128  16.035   5.616  0.0349 -0.0469  0.0145
18435W        W33904   9.561   8.736  12.078 -0.2265 -0.1240 -0.0110
18436W        W33905   4.018   0.602  13.279  0.1328 -0.0932 -0.2326
18437W        W33906  18.438  13.293  11.848  0.4075  0.0563  0.1716
18438W        W33907  11.103   6.269  15.422 -0.2015 -0.0233  0.2089
18439W        W33908   9.547   9.538   2.234  0.0786  0.3473 -0.0843
18440W        W33909  15.020   6.880  12.095 -0.0641  0.0796 -0.3739
18441W        W33910   4.114  10.218   1.550 -0.0664  0.0832  0.0561
18442W        W33911  12.000  14.653   4.641  0.0924  0.0962 -0.1425
18443W        W33912  17.957  15.723  15.442  0.0054 -0.1523  0.1981
18444W        W33913   2.655  11.889  10.170  0.0570  0.1441  0.0125
18445W        W33914  13.070   4.368  13.559  0.0966  0.4296 -0.2537
18446W        W33915   7.761   6.410  14.720 -0.0042 -0.2515 -0.1491
18447W        W33916  10.447  13.409  11.326  0.0003 -0.3808 -0.2007
18448W        W33917   3.066   3.837  13.582 -0.1295  0.1024 -0.1882
18449W        W33918  10.191  10.683  11.453  0.2892  0.4219 -0.2488
18450W        W33919   4.661   1.087   3.730 -0.0469  0.1904  0.2333
18451W        W33920   9.284   3.141   4.983  0.0727  0.1644 -0.2889
18452W        W33921  15.489   4.258   3.062 -0.0093 -0.1908  0.2299
18453W        W33922  17.911  15.175  13.902  0.1686  0.0663 -0.0313
18454W        W33923   7.555  10.346   5.261 -0.1221  0.0322  0.3119
18455W        W33924   6.240  17.338   2.731 -0.0539 -0.0801 -0.0531
18456W        W33925  12.200  14.342   1.227  0.2772 -0.0523  0.0274
18457W        W33926  18.918   8.692  14.990 -0.2229 -0.0213 -0.1886
18458W        W33927  16.079   1.392   2.139 -0.1413 -0.3128 -0.1534
18459W        W33928   4.089  12.443  13.630  0.2236 -0.0944  0.0577
18460W        W33929  12.957   7.401  13.487  0.0792  0.0221  0.3150
18461W        W33930   2.988   2.373  15.063 -0.0977 -0.0464  0.2840
18462W        W33931   1.411  17.971  15.386 -0.0840  0.1225  0.3292
18463W        W33932   5.757   7.147   1.559  0.0769 -0.0297 -0.0786
18464W        W33933  10.510   4.784  13.698  0.0691 -0.2722  0.0368
18465W        W33934   9.897  12.573  11.007  0.0804 -0.2867  0.1823
18466W        W33935  12.694  11.085   1.962 -0.0877 -0.0333 -0.1183
18467W        W33936  10.412  15.388   5.402  0.1573 -0.3845  0.1308
18468W        W33937   6.211   0.965   2.751 -0.1734  0.1466 -0.0892
18469W        W33938   4.103   3.359   1.725  0.2320 -0.0426  0.1071
18470W        W33939  15.008   8.222  14.970  0.1847 -0.0975  0.1946
18471W        W33940   3.821  14.774   3.290  0.1332  0.1358  0.0960
18472W        W33941   1.122   0.067   5.357  0.0831  0.2512  0.0547
18473W        W33942  10.933  14.361   5.945 -0.2244  0.2807 -0.2615
18474W        W33943  11.004   8.717  13.346  0.2102 -0.0332  0.0056
18475W        W33944  18.724  14.341   4.238  0.0063 -0.3478  0.0337
18476W        W33945  15.728  13.622  11.379  0.2294 -0.4282  0.0136
18477W        W33946   8.424  13.957  14.932  0.2400  0.0317  0.1257
18478W        W33947   6.942  14.352   1.963 -0.0859 -0.2293 -0.0801
18479W        W33948  13.212  12.305   0.526 -0.2094  0.0677 -0.1667
18480W        W33949  13.871   4.517  14.524  0.2276 -0.1122 -0.2623
18481W        W33950   7.950  13.790   0.501  0.2486 -0.0608 -0.2337
18482W        W33951  17.945  18.135  12.832 -0.2597  0.1501 -0.0110
18483W        W33952   3.884  13.370   0.457 -0.1627  0.1998  0.1433
18484W        W33953   8.852   6.741   0.577  0.1782  0.0976  0.1794
18485W        W33954   7.367  11.192  13.774  0.4569 -0.0717 -0.0938
18486W        W33955   1.600  11.781   1.781  0.3779 -0.0516 -0.0087
18487W        W33956   9.161   1.008   0.099  0.0537 -0.1484  0.3356
18488W        W33957  12.123   3.089   3.565  0.2536 -0.1146  0.5597
18489W        W33958  14.087  10.355   0.961  0.0941 -0.1873 -0.3289
18490W        W33959  12.993  18.681   2.634  0.3486  0.0403 -0.1056
18491W        W33960   0.920  17.132  12.910 -0.0218  0.0266  0.3325
18492W        W33961   6.009   3.557   3.044 -0.1184  0.2359  0.0490
18493W        W33962   0.644  12.431   1.140 -0.5345 -0.0211  0.0344
18494W        W33963  16.809   4.695  14.915  0.1122  0.0334 -0.0743
18495W        W33964  14.427  14.160  11.973 -0.1181  0.0699 -0.0970
18496W        W33965   3.963  11.073  11.563 -0.1949 -0.0270  0.1841
18497W        W33966  15.734  18.914  10.749  0.0632 -0.1365  0.2036
18498W        W33967   1.518  15.674  13.382 -0.3305 -0.0281  0.3989
18499W        W33968  11.688  12.158  13.314 -0.0775  0.0792 -0.0883
18500W        W33969  16.146  14.645   0.357  0.0074  0.1653 -0.0577
18501W        W33970   2.192   3.692   5.446 -0.1316 -0.1836  0.1222
18502W        W33971  10.615   1.498   1.069 -0.4308 -0.1000 -0.0301
18503W        W33972   7.176  14.729   1.179  0.0267  0.0781  0.1721
18504W        W33973  16.790   5.083   3.258  0.0607 -0.0677  0.0983
18505W        W33974  12.355  12.472  15.237  0.2264  0.0113 -0.1508
18506W        W33975   3.946  14.858  11.346 -0.0461  0.2486  0.1711
18507W        W33976   1.416   0.192   1.321  0.0633  0.0954  0.1390
18508W        W33977   6.954  18.181   0.530  0.0242  0.2243  0.0620
18509W        W33978   9.590  13.132   1.895  0.0430  0.3176 -0.0880
18510W        W33979  13.183  13.671   0.919  0.1089  0.1066 -0.0497
18511W        W33980   1.922   4.815   1.502  0.0262 -0.0563  0.2949
18512W        W33981  16.422   6.005  12.161  0.3887 -0.1358  0.2519
18513W        W33982  18.141   0.542   3.220  0.0803 -0.0672 -0.1553
18514W        W33983   3.827   6.118   4.181 -0.0484 -0.1302  0.0675
18515W        W33984   9.796   4.703  14.411 -0.0037  0.0256  0.1853
18516W        W33985   8.014  18.155   3.094  0.1889  0.0722  0.1007
18517W        W33986   7.294   1.231   3.408 -0.0120 -0.0800 -0.0732
18518W        W33987   6.490  16.918  12.579 -0.3354 -0.0913  0.1673
18519W        W33988  17.697  13.952   4.862 -0.1077 -0.1243  0.0563
18520W        W33989   7.871   0.313  13.016 -0.4504 -0.0754  0.0559
18521W        W33990  18.702  18.671  10.994  0.1160 -0.1826  0.3184
18522W        W33991  17.641  14.483   3.869 -0.0913 -0.1034  0.0274
18523W        W33992   4.581  13.482   2.735  0.0555  0.3571  0.2540
18524W        W33993   7.467   7.251   3.273 -0.2146  0.1290  0.4839
18525W        W33994  17.149  17.359   2.722 -0.0268  0.1105  0.1704
18526W        W33995  16.901  13.649   1.058 -0.0332  0.0664 -0.0872
18527W        W33996   4.756   2.934  10.958 -0.2017  0.1632  0.0028
18528W        W33997  18.479  14.924  13.311 -0.0121 -0.2282  0.0764
18529W        W33998   8.435   7.617   0.336 -0.2332  0.0668  0.2470
18530W        W33999  15.329   0.893   4.249 -0.1187  0.2630 -0.0451
18531W        W34000   5.176   3.318  13.350 -0.0069  0.0785 -0.2396
18532W        W34001   8.317  14.386   5.510 -0.0535 -0.3803  0.2473
18533W        W34002  11.042   9.986  11.668  0.1308  0.0618 -0.0501
18534W        W34003   5.685  17.963   4.424 -0.0933 -0.1328 -0.0307
18535W        W34004   6.706   1.170   0.867  0.1880 -0.2098  0.2677
18536W        W34005   8.827   6.076   2.190  0.0704  0.0136 -0.1765
18537W        W34006  12.750  13.842  10.852 -0.0786 -0.0430 -0.2559
18538W        W34007   6.740  10.971   0.669 -0.1320  0.0781 -0.1034
18539W        W34008  18.927  18.600   5.111  0.2013  0.3136 -0.2092
18540W        W34009  16.518   7.450  15.054 -0.0666  0.2695  0.0266
18541W        W34010   4.431  18.214   3.590 -0.1438 -0.0479  0.1604
18542W        W34011   8.388   3.801   1.315  0.1423  0.0481  0.0741
18543W        W34012   2.426  18.266  11.390 -0.1021  0.2372  0.0520
18544W        W34013  18.296  12.910  15.404  0.2022 -0.0540  0.3040
18545W        W34014  15.577  12.320   0.554  0.4455  0.0840 -0.2181
18546W        W34015   3.110  17.622   1.225 -0.0802 -0.1273 -0.0950
18547W        W34016   1.292  11.017   3.091 -0.0595  0.0733 -0.3751
18548W        W34017   1.074  12.186   1.121 -0.4692  0.0364 -0.2820
18549W        W34018  16.860  14.877  11.211 -0.1746  0.0487  0.0693
18550W        W34019   6.791  11.748   2.163 -0.0538  0.0184 -0.2867
18551W        W34020  17.837  18.115   0.038 -0.0901 -0.0509 -0.0096
18552W        W34021  11.120  18.245   0.968 -0.0236  0.1541  0.1567
18553W        W34022   7.949   3.501  15.139  0.4113 -0.3674  0.1627
18554W        W34023   2.756  14.721   3.716 -0.0190 -0.1073 -0.1202
18555W        W34024   4.122  13.199  12.929  0.0634  0.0769  0.2145
18556W        W34025  14.487   0.007  12.286  0.0445  0.1550  0.2576
18557W        W34026  12.365  13.335  10.129 -0.2660  0.1762 -0.1735
18558W        W34027  18.009  13.597  10.566 -0.0943  0.0649 -0.0048
18559W        W34028   5.243  17.126   9.547  0.0725  0.0608 -0.0121
18560W        W34029  16.349  18.268  14.081 -0.0350  0.1315 -0.1922
18561W        W34030  13.510  15.281   4.082 -0.0003  0.1477 -0.0570
18562W        W34031  12.377  17.664   4.973  0.2698 -0.1663  0.0630
18563W        W34032  15.279  16.161   9.637 -0.0105  0.0941  0.1909
18564W        W34033   1.331   4.978  14.736  0.1884  0.0412  0.0130
18565W        W34034  10.207   9.813  12.899 -0.1433 -0.1214  0.0403
18566W        W34035  13.045  10.763   1.944 -0.1983  0.0262  0.0882
18567W        W34036  14.492  18.734  11.248  0.2845 -0.1259 -0.0042
18568W        W34037   7.761  11.063  12.630 -0.1355 -0.1708 -0.3376
18569W        W34038   0.376   0.382   0.284  0.2657 -0.3636 -0.1075
18570W        W34039  11.279   6.371   1.068  0.0407 -0.0970  0.0009
18571W        W34040  12.937  16.576  10.796  0.0795 -0.0755 -0.2396
18572W        W34041   9.607  12.863  11.299 -0.1276  0.1929  0.0135
18573W        W34042  13.197   5.070  10.428  0.0098 -0.1960  0.1553
18574W        W34043   4.530  11.710  11.175 -0.1216 -0.3104  0.0998
18575W        W34044  12.955   0.177  14.234  0.1785 -0.1561 -0.1588
18576W        W34045  18.283  10.980   4.603  0.0619 -0.0167  0.2543
18577W        W34046  11.834  13.785   4.073  0.0748  0.0890 -0.0701
18578W        W34047   7.568   4.429   2.182  0.2321  0.2316 -0.0190
18579W        W34048   0.431  12.547  13.748  0.1200  0.0304 -0.1797
18580W        W34049  11.601   2.657  15.248 -0.1209  0.0053 -0.1501
18581W        W34050   4.102   9.755   4.851  0.0145 -0.0099  0.0993
18582W        W34051   8.759  12.657   2.046 -0.2746 -0.2477  0.1240
18583W        W34052  16.871  16.829   4.556 -0.0697  0.0036 -0.2954
18584W        W34053  13.759  15.108  12.113  0.1830  0.1220  0.4294
18585W        W34054   8.612   3.804  10.379  0.0285  0.1984  0.0526
18586W        W34055   6.637  16.768  10.005  0.1041  0.2023 -0.1308
18587W        W34056  10.242   3.433  12.326  0.5201 -0.2814 -0.0004
18588W        W34057   0.103  13.078  10.903  0.1966 -0.1555 -0.1880
18589W        W34058   2.872   8.924  12.781  0.0001  0.2735 -0.2258
18590W        W34059   3.505  18.283   5.760 -0.2206 -0.0364  0.1169
18591W        W34060  12.184   8.174   4.157 -0.1944 -0.1398  0.2974
18592W        W34061   0.631  12.472   4.047  0.1157  0.1157  0.0643
18593W        W34062  11.801   1.188   2.779 -0.4689  0.0384 -0.1317
18594W        W34063  15.030  10.772  12.133 -0.2620  0.1458  0.3625
18595W        W34064  16.297   3.065  13.513  0.1252 -0.0452 -0.0734
18596W        W34065   4.887   3.854   1.179 -0.0952  0.0473  0.4019
18597W        W34066   5.506   9.522   4.311 -0.1699 -0.1198  0.0098
18598W        W34067   7.992  18.440  12.752 -0.0561 -0.0298  0.0786
18599W        W34068   3.530  12.095   0.160  0.1002  0.0010 -0.2156
18600W        W34069   7.755   2.493  15.122 -0.0809 -0.0759  0.1118
18601W        W34070  18.462  10.688  11.535 -0.2319 -0.0979  0.0043
18602W        W34071   9.060  12.673   3.111 -0.1337  0.2157  0.1368
18603W        W34072   4.736   9.277   0.218  0.0749 -0.1230 -0.1850
18604W        W34073  18.582   9.234   4.429 -0.0667  0.2144  0.1603
18605W        W34074   6.714  10.219   5.906 -0.0033  0.0927  0.1131
18606W        W34075  16.419  11.987  12.216  0.1245  0.3864 -0.1322
18607W        W34076  11.600   6.549  10.465 -0.1893 -0.1488  0.1201
18608W        W34077  15.371  13.815   4.443 -0.0895 -0.1518 -0.3284
18609W        W34078   2.507  12.562   0.912 -0.3163 -0.0180 -0.1654
18610W        W34079  16.287  13.316  15.373  0.0296 -0.1423  0.1053
18611W        W34080   8.098  18.688  12.342  0.1653  0.1078 -0.2478
18612W        W34081   4.177  18.442  10.998 -0.1903  0.2000 -0.2938
18613W        W34082   5.021   2.043  13.031 -0.1389 -0.2991  0.4160
18614W        W34083   5.436  18.095   1.019 -0.0716 -0.2155 -0.0459
18615W        W34084   4.685   5.143  13.735 -0.1495 -0.0302  0.1123
18616W        W34085   8.533  11.286   1.689  0.1626 -0.1100  0.4039
18617W        W34086  11.321   3.930   4.668 -0.1430  0.1724 -0.1598
18618W        W34087   3.132   1.177   2.428 -0.0262 -0.0379  0.1579
18619W        W34088   8.784  13.242   2.907  0.1185  0.1571  0.3099
18620W        W34089   3.987  17.193   1.302 -0.1875  0.3224  0.1636
18621W        W34090  12.495   8.629  10.468 -0.4376  0.0163  0.2011
18622W        W34091   1.911  14.330   3.829 -0.0350  0.1790  0.0195
18623W        W34092   7.692   0.458   3.310 -0.0031 -0.0898 -0.1648
18624W        W34093  12.315   3.442   9.941  0.1262  0.1587 -0.1296
18625W        W34094   7.345  12.569   0.886  0.1130  0.1489  0.0663
18626W        W34095   9.291   4.166   3.540  0.1121 -0.1260 -0.1471
18627W        W34096   6.706  13.029   3.941 -0.1287 -0.1262  0.3007
18628W        W34097  17.341  10.232   4.776  0.2210  0.2467 -0.0859
18629W        W34098  12.011   5.894   0.595 -0.1933  0.1263 -0.1011
18630W        W34099  15.607   5.869   2.366 -0.1054 -0.0135 -0.1111
18631W        W34100   9.608  10.438   3.988  0.0344  0.0370  0.1434
18632W        W34101   4.171   2.675  13.811 -0.0533 -0.0731  0.1147
18633W        W34102  14.097   2.493   2.954  0.0507  0.0269 -0.2776
18634W        W34103  12.137   7.489  15.121 -0.1301  0.0697 -0.1858
18635W        W34104   5.564  12.065   2.145 -0.2645 -0.0516 -0.5075
18636W        W34105   5.761   1.311   1.934 -0.2263 -0.1764 -0.3427
18637W        W34106   3.962  13.461  14.139  0.0113 -0.1853  0.0282
18638W        W34107  16.894   2.526  15.327  0.1745  0.1707  0.1114
18639W        W34108  11.912  12.557   2.329 -0.0473  0.2050  0.0643
18640W        W34109  12.699   3.334   3.566  0.0602 -0.0928 -0.0333
18641W        W34110  10.645   8.870   4.512 -0.3342 -0.0745  0.1426
18642W        W34111  10.889  16.830  13.633 -0.1884  0.0744  0.0953
18643W        W34112  18.414   1.354  13.080  0.0531  0.0444  0.2587
18644W        W34113  10.125  16.341  14.876 -0.0243 -0.1502  0.2675
18645W        W34114   2.236  15.596  14.112  0.0471  0.0972  0.2513
18646W        W34115   2.525   2.514  13.569 -0.3128  0.0521  0.1862
18647W        W34116  16.558  11.538   3.059 -0.0350  0.2822  0.2882
18648W        W34117  16.807   5.175   1.494 -0.1025  0.3003 -0.0024
18649W        W34118   3.388  11.629  15.424  0.1866 -0.0274 -0.0181
18650W        W34119  18.938   0.747   1.751 -0.1101  0.2779 -0.0593
18651W        W34120  15.452  16.837  14.342 -0.1244  0.1033 -0.0244
18652W        W34121   2.551   7.912   3.737 -0.3147 -0.2448  0.0834
18653W        W34122  18.554  15.918  15.362 -0.1941  0.0543 -0.2248
18654W        W34123   0.103  18.005  14.930  0.3302 -0.2011  0.1792
18655W        W34124   8.725  18.058   1.158  0.0822 -0.3394 -0.0173
18656W        W34125  10.366  10.437   3.617  0.2638  0.1554  0.0918
18657W        W34126  11.243  15.875  15.242 -0.3077 -0.1611 -0.0355
18658W        W34127   1.556  16.546   2.749  0.1533  0.3415 -0.0556
18659W        W34128   2.478  13.603   2.360  0.0299 -0.2741  0.0472
18660W        W34129  13.973  11.403  11.226  0.1833  0.0991 -0.0564
18661W        W34130  14.628   4.957  14.085 -0.0819  0.1678 -0.0094
18662W        W34131   1.693   9.862  10.279  0.0649 -0.2749  0.0103
18663W        W34132  17.061  14.737   5.036  0.2141  0.0880 -0.6223
18664W        W34133  11.786   6.806  15.085  0.0440  0.2539  0.2262
18665W        W34134   2.179   5.554  12.574 -0.0814  0.1885  0.1884
18666W        W34135   8.514   2.916   0.163 -0.0384 -0.1334  0.0182
18667W        W34136   7.366  12.151  11.754  0.0248 -0.0649 -0.1810
18668W        W34137  16.388   6.476   1.210 -0.1767  0.0383  0.3758
18669W        W34138   0.743   8.037   2.265 -0.0548 -0.1391  0.1852
18670W        W34139   3.621   8.025   4.537 -0.2273 -0.1998  0.0337
18671W        W34140  14.826  10.492  13.410  0.2955  0.1169  0.0022
18672W        W34141  11.768   2.803   3.207 -0.1934 -0.2932  0.1084
18673W        W34142  17.274  18.498  14.148 -0.2769  0.2269  0.2854
18674W        W34143   5.036  17.230  11.238 -0.0396 -0.2300 -0.1005
18675W        W34144   9.084  16.222  14.996 -0.2586 -0.2892  0.0828
18676W        W34145   2.782  14.469  15.246  0.4150  0.0709  0.2180
18677W        W34146   3.375  16.190   5.492  0.1204  0.1710  0.0138
18678W        W34147   2.248   5.497  10.332 -0.2918 -0.1393  0.2744
18679W        W34148  16.356  15.434  14.893 -0.1757  0.1315  0.3339
18680W        W34149  15.301   5.415   2.172  0.0422 -0.0529 -0.0416
18681W        W34150   8.477   4.155   4.100  0.1267  0.1890  0.0758
18682W        W34151  11.372  10.272  13.728 -0.2081  0.2338  0.2366
18683W        W34152   9.196  17.632  11.695  0.0931  0.4608  0.1550
18684W        W34153   4.968   5.922   0.460  0.2519  0.3200 -0.1753
18685W        W34154   9.872  15.465  13.119  0.0370 -0.1045 -0.1736
18686W        W34155  15.713  18.773  12.693  0.0143  0.0991 -0.2818
18687W        W34156  11.249  16.018  13.010  0.0380  0.2108  0.1062
18688W        W34157   6.491  10.600  11.512  0.0775  0.0642 -0.0158
18689W        W34158  12.747   3.363   1.054  0.1227  0.2421 -0.0074
18690W        W34159  18.083   2.467   1.462  0.4615 -0.2216 -0.0295
18691W        W34160  10.021  10.843   1.730 -0.1481  0.0502  0.3944
18692W        W34161  10.027  13.619   2.555  0.1355 -0.2399  0.0783
18693W        W34162   9.477   3.670   4.455 -0.1283 -0.3025  0.1669
18694W        W34163  13.899  14.111  13.274  0.0588 -0.1490  0.1137
18695W        W34164  17.173   3.080  12.856 -0.0984 -0.1720 -0.2781
18696W        W34165  10.113  15.348   1.976  0.0165 -0.2786 -0.1541
18697W        W34166   4.807   9.609   0.541 -0.2397 -0.0556  0.1848
18698W        W34167   4.467  18.342   2.023  0.2546  0.3142 -0.1222
18699W        W34168   9.320   6.283  11.690  0.2164 -0.0823  0.0367
18700W        W34169   3.433   4.042   4.949  0.1627  0.0988 -0.1626
18701W        W34170  12.564   2.485  10.462  0.3595  0.0481 -0.3119
18702W        W34171  18.286   9.011   3.282 -0.1388  0.0822  0.1846
18703W        W34172  18.138  13.627   2.397 -0.0324  0.0374  0.1576
18704W        W34173   2.507   6.068  14.864 -0.4325 -0.1023 -0.2710
18705W        W34174  10.899  12.104  12.920 -0.2051  0.3073  0.3126
18706W        W34175   8.305   2.776  12.568 -0.1805 -0.2458 -0.2190
18707W        W34176  18.716  16.466  15.322 -0.2367  0.0334 -0.1440
18708W        W34177   1.461   7.118   2.859 -0.4448  0.0843  0.1478
18709W        W34178   8.623   1.973  11.546 -0.1975 -0.2567 -0.0879
18710W        W34179  18.121  12.209  14.175  0.1588  0.2798  0.0279
18711W        W34180  11.069   8.331  13.014  0.1374  0.0690 -0.0196
18712W        W34181  16.493   3.312   2.406  0.1262 -0.0042  0.0270
18713W        W34182  15.989  15.097   1.773  0.4446  0.2586 -0.2976
18714W        W34183  10.458  12.669   4.269  0.4041 -0.0378 -0.0270
18715W        W34184  16.048   2.418  15.078  0.0011 -0.0445 -0.3654
18716W        W34185   8.568   2.141   4.833  0.0578  0.0466 -0.0893
18717W        W34186   0.527   0.308   0.786 -0.1125  0.0301 -0.1617
18718W        W34187   2.189  18.072   1.438 -0.3288 -0.0270  0.2063
18719W        W34188  14.120   3.845  13.521  0.2182 -0.2110  0.0222
18720W        W34189   2.539   0.778   5.178  0.1378 -0.3702 -0.0657
18721W        W34190   6.907  17.644  15.211  0.0561  0.0962  0.1653
18722W        W34191  14.738   3.315   3.945 -0.1173  0.0242 -0.0261
18723W        W34192  10.476  17.923  13.629  0.0635 -0.0145  0.0596
18724W        W34193   0.972   4.326   2.483  0.3487 -0.0850  0.1110
18725W        W34194  13.168   6.259   2.478 -0.2249  0.0088 -0.2263
18726W        W34195   2.665   6.109   4.532  0.0862  0.1393 -0.5456
18727W        W34196   6.421  14.748  14.209 -0.0567 -0.1755 -0.1797
18728W        W34197  14.244  14.254  12.426  0.0435 -0.3885  0.0035
18729W        W34198   9.231  12.727  15.133 -0.0363 -0.0281 -0.2273
18730W        W34199  15.448   6.333   3.480 -0.0551  0.1535  0.2705
18731W        W34200  12.808   3.263   4.768  0.1097  0.4638  0.1476
18732W        W34201   9.109  14.626   3.912 -0.2295 -0.0565  0.0309
18733W        W34202  15.510  13.390   4.784 -0.0863 -0.1238 -0.0665
18734W        W34203  13.477  18.403  13.861  0.2850 -0.0323  0.0505
18735W        W34204  14.398   7.582  11.810 -0.0042  0.0298 -0.1040
18736W        W34205   3.865  17.647  12.309 -0.0609 -0.1908 -0.0320
18737W        W34206   6.971   3.048   5.991  0.0515 -0.0860 -0.0355
18738W        W34207  15.597  13.948  12.200  0.1336 -0.1943  0.1139
18739W        W34208  10.329  12.772   5.962  0.1325 -0.4638  0.2089
18740W        W34209   0.809   4.156   1.611 -0.4316 -0.0136  0.0823
18741W        W34210   5.607   5.179  12.807  0.1187  0.0872  0.2182
18742W        W34211   1.445   3.540  15.354 -0.4993 -0.0803  0.2045
18743W        W34212  17.338  16.783   3.328  0.0295 -0.3057  0.1423
18744W        W34213   5.424  18.487  12.394  0.1167 -0.4171 -0.4999
18745W        W34214   3.791   6.797   1.719  0.1186 -0.2348 -0.3451
18746W        W34215   0.329  10.014   3.083  0.3376  0.0626  0.1183
18747W        W34216   6.327   4.191   2.604 -0.0563  0.0754  0.0699
18748W        W34217  10.713   4.526   1.969 -0.1394  0.0274 -0.1371
18749W        W34218  16.579  13.310   0.300 -0.4450 -0.3475  0.0241
18750W        W34219  15.934   1.520   5.481  0.2253 -0.0698  0.0459
18751W        W34220  13.448   7.815   0.176 -0.0025  0.0587  0.0319
18752W        W34221  16.221  15.229   2.194  0.0097 -0.2151  0.2049
18753W        W34222   2.906  18.921   4.633  0.0996 -0.2387 -0.3846
18754W        W34223  15.264   5.761   0.440  0.4321  0.0722 -0.0010
18755W        W34224   0.641  13.941  13.627 -0.0583  0.0952 -0.0477
18756W        W34225  13.037  17.754  15.042 -0.0124 -0.1195 -0.1970
18757W        W34226  18.466  18.019  15.036 -0.0141  0.1846  0.0516
18758W        W34227   7.988  12.021  13.500  0.2141  0.1916 -0.0112
18759W        W34228  14.833  14.852  11.501  0.1242 -0.0769  0.1164
18760W        W34229  18.734  16.778   2.410  0.1575  0.1734  0.0918
18761W        W34230  10.014  16.300   0.355  0.1951  0.0147 -0.1379
18762W        W34231  13.159   9.246  14.645  0.1508  0.1644 -0.1076
18763W        W34232  13.717   4.421  11.484  0.3119  0.0869  0.1744
18764W        W34233  15.709  12.435   3.433 -0.1005  0.3600  0.2632
18765W        W34234   5.986   6.737  15.341 -0.0898 -0.2206  0.1330
18766W        W34235   0.309  16.734   1.873  0.1251 -0.0616 -0.1662
18767W        W34236   8.382   3.392  10.361 -0.1057 -0.1219 -0.2218
18768W        W34237   0.683   4.724   2.768  0.0487  0.0824 -0.2442
18769W        W34238  12.744   3.878   2.123 -0.1897  0.0644  0.2404
18770W        W34239   3.314   4.609   1.952 -0.3732 -0.1750 -0.3859
18771W        W34240   6.566  10.140   1.717  0.1390 -0.1073  0.0531
18772W        W34241   8.151  16.832  11.020 -0.1704  0.3063  0.1119
18773W        W34242   2.162  13.084   3.333 -0.3006  0.0314 -0.3056
18774W        W34243  12.661   0.929   2.558 -0.1058 -0.0674  0.1117
18775W        W34244   8.523  13.942   2.116 -0.2149 -0.2174  0.0519
18776W        W34245   6.192  10.592   3.270 -0.4744  0.0367 -0.0472
18777W        W34246   0.538   0.852   2.475 -0.1477  0.0591  0.2295
18778W        W34247   0.128  11.633  13.524  0.1643  0.0616  0.4083
18779W        W34248   4.570  15.707   0.080 -0.1631  0.3129 -0.1816
18780W        W34249  13.034   9.824   2.433 -0.2869 -0.1163  0.1034
18781W        W34250  10.377  14.492   3.592  0.1879  0.4854  0.0977
18782W        W34251   0.890   2.602   1.710  0.3029 -0.1022  0.1169
18783W        W34252  18.331  14.180  12.837 -0.0720 -0.0907  0.2971
18784W        W34253   1.833  10.211   3.581  0.2370  0.0040 -0.0572
18785W        W34254  14.373  18.569   6.110  0.1845 -0.2992  0.1911
18786W        W34255  12.812   5.185   4.673  0.2906 -0.2336 -0.2424
18787W        W34256   1.180   3.407   2.281  0.2128  0.0911  0.2833
18788W        W34257  17.608   5.260   4.539 -0.3182  0.1795 -0.0949
18789W        W34258  14.070   1.815   1.258  0.0126  0.0512 -0.1706
18790W        W34259   7.728   5.282  11.184  0.0786 -0.0035 -0.2802
18791W        W34260   5.388  12.219   3.993  0.1732 -0.1242 -0.1154
18792W        W34261  12.115  10.658   3.986  0.1776 -0.0461 -0.2779
18793W        W34262  13.056  15.809  13.723 -0.3746  0.0444 -0.0643
18794W        W34263   5.675  15.159  14.215 -0.1760  0.0697 -0.1031
18795W        W34264  18.721   0.830  12.793  0.2540 -0.0603 -0.0425
18796W        W34265   2.892  15.978   3.455  0.0139  0.0258 -0.0143
18797W        W34266  15.134  11.481  13.419 -0.4637  0.0904 -0.0663
18798W        W34267  13.424   6.678   2.118  0.3930 -0.0762  0.2570
18799W        W34268   3.080   3.528   3.210  0.0072  0.0876 -0.1490
18800W        W34269   8.318  16.575  12.504 -0.0451  0.0289 -0.4147
18801W        W34270  11.184  18.343   2.877  0.1302 -0.0228  0.3624
18802W        W34271   7.803   9.579   0.770  0.0743  0.2705 -0.2814
18803W        W34272  16.737   9.442   1.150 -0.3088 -0.2277  0.1978
18804W        W34273   0.962   5.784   1.737  0.2980 -0.2515 -0.2508
18805W        W34274  18.390   2.863   4.318  0.2699 -0.2299  0.2505
18806W        W34275  12.498   3.082  10.823  0.6460  0.0538  0.0942
18807W        W34276   8.259   9.691  13.716  0.0880 -0.1370 -0.0751
18808W        W34277  18.121  18.329   1.773  0.0143 -0.1436  0.1066
18809W        W34278   6.486   2.359   0.610  0.0190  0.3345  0.0453
18810W        W34279  18.065   5.874   3.137 -0.1885 -0.0112 -0.3044
18811W        W34280  11.115  17.484   4.328 -0.3168  0.2902  0.2369
18812W        W34281  13.204   1.553   1.371 -0.0391  0.1415  0.1650
18813W        W34282   1.004  10.208  15.298 -0.1691 -0.3824 -0.1248
18814W        W34283  10.630  14.104   0.426 -0.2099  0.3097  0.1514
18815W        W34284  13.998  10.781  13.228  0.0997  0.3484  0.4203
18816W        W34285   5.908  18.785   3.288 -0.1012 -0.0817  0.3307
18817W        W34286  18.589  15.425  13.151 -0.1016 -0.0191 -0.1717
18818W        W34287  14.954  11.477   1.244 -0.1358  0.4357 -0.4596
18819W        W34288   1.821  17.215  12.845 -0.0400  0.1848 -0.0099
18820W        W34289  13.988  15.062   0.048  0.2872 -0.0873 -0.2049
18821W        W34290   3.282  11.317  14.985  0.1301 -0.2329 -0.1374
18822W        W34291   3.079   5.364  14.863  0.0164  0.1367 -0.2224
18823W        W34292   7.016   2.082   4.047 -0.0475  0.3494 -0.0161
18824W        W34293  15.522  14.924  11.510 -0.4354  0.0742 -0.1768
18825W        W34294  13.480  11.225  14.315  0.1696 -0.0854  0.3122
18826W        W34295   6.195   2.238  14.626  0.1753 -0.5473 -0.1696
18827W        W34296   9.672  15.929  13.669  0.0301 -0.1209  0.2772
18828W        W34297  11.122   3.428  12.306 -0.1315 -0.1816 -0.0418
18829W        W34298   2.279   7.523   2.706 -0.0726 -0.5359 -0.1557
18830W        W34299   5.989   2.858  10.957  0.0477  0.1010 -0.1404
18831W        W34300  16.956   4.947  14.024  0.3256  0.4129 -0.1843
18832W        W34301  15.512   8.225   1.870  0.1582 -0.0882 -0.4520
18833W        W34302   9.615  16.682   5.395 -0.1267  0.1743  0.0672
18834W        W34303  12.778   1.222  12.662  0.1488 -0.3533  0.1440
18835W        W34304  17.267  16.863  10.389 -0.1843 -0.0097  0.0441
18836W        W34305  12.559  18.519  13.268 -0.2511 -0.3950  0.2003
18837W        W34306   5.669  18.382   4.094 -0.0612 -0.0026 -0.1176
18838W        W34307  15.381   7.966   2.334 -0.1964 -0.3897 -0.0355
18839W        W34308   1.108  18.722   1.355  0.0541 -0.0516  0.0319
18840W        W34309  12.950  17.020  12.113 -0.1223  0.1400 -0.0306
18841W        W34310  10.269   3.605  11.779 -0.1804  0.2030  0.0668
18842W        W34311   9.186   4.749  13.848 -0.1952  0.1369  0.0849
18843W        W34312  15.143  17.796   2.400 -0.1306  0.0801  0.3086
18844W        W34313   3.780   3.301  11.973  0.1126  0.1762 -0.3651
18845W        W34314   4.571   5.308  12.465 -0.1766  0.2842 -0.3451
18846W        W34315   4.603   0.285   3.152 -0.0644 -0.0524 -0.1303
18847W        W34316  12.084  18.347  14.724  0.2069 -0.0617  0.0914
18848W        W34317  11.934  17.803   9.675  0.0121 -0.1818 -0.0062
18849W        W34318   7.907   3.479   1.055  0.1116 -0.0757 -0.3689
18850W        W34319   8.502  16.615   4.319 -0.3305 -0.0054  0.0130
18851W        W34320   4.621   7.498  13.732  0.0932 -0.1698  0.2088
18852W        W34321   7.181  17.409   5.220  0.1445 -0.0416 -0.0762
18853W        W34322  18.471  10.204   5.311  0.2956 -0.0591  0.2828
18854W        W34323   9.527   0.111  15.295  0.0705  0.1233 -0.0953
18855W        W34324  17.995   3.172  13.139 -0.4505  0.1134  0.1983
18856W        W34325   3.332  12.214  11.018  0.1744  0.1681  0.1973
18857W        W34326   9.413   2.924  13.143 -0.0812 -0.2012  0.2349
18858W        W34327  14.215   3.533  14.792 -0.1105  0.0298  0.4216
18859W        W34328   7.501  15.923  12.410  0.3034 -0.1186 -0.2029
18860W        W34329  13.461   4.064  14.299  0.0480  0.2189 -0.0502
18861W        W34330  12.153  14.360   0.310  0.2769 -0.2305  0.1734
18862W        W34331  12.026  16.256  13.410 -0.1912  0.1095 -0.1672
18863W        W34332   7.190   6.818   4.325  0.1737  0.1474 -0.2325
18864W        W34333  10.100   5.047   4.826 -0.0812  0.1709 -0.0060
18865W        W34334   3.265  13.908   0.352  0.0112  0.1537 -0.1351
18866W        W34335   1.317   0.031   0.703  0.1729  0.3223  0.1119
18867W        W34336   2.882  13.974  13.274  0.0003 -0.0956  0.3102
18868W        W34337  10.321   8.518  12.460 -0.1061 -0.0458  0.2181
18869W        W34338  10.748   3.162   0.168  0.0813  0.2391  0.0193
18870W        W34339   2.407  16.626  13.294  0.4015 -0.1831 -0.1826
18871W        W34340   3.623   4.591  13.655  0.0160  0.0044  0.2697
18872W        W34341  13.558   6.845  12.211  0.0757  0.3278  0.0015
18873W        W34342   0.484   8.922  13.435  0.0792 -0.2399 -0.0771
18874W        W34343   6.117   0.196   5.106  0.0854 -0.3660  0.0485
18875W        W34344  11.125  10.955  14.978 -0.1734  0.0385  0.1610
18876W        W34345  18.520   6.846  10.376  0.1687  0.3056  0.1579
18877W        W34346  11.823   9.745   1.272 -0.0510  0.0149  0.0613
18878W        W34347  15.854   0.618   4.382  0.2316  0.2035 -0.1377
18879W        W34348   0.713  11.132   3.133  0.0222 -0.1213  0.3010
18880W        W34349   7.574  13.310  12.721 -0.0047 -0.0086 -0.1557
18881W        W34350  12.652   9.179   3.049  0.3417 -0.0208  0.0980
18882W        W34351  15.460  18.615   2.153  0.3364  0.0494 -0.1401
18883W        W34352  15.558  18.797   0.092  0.0956  0.0966 -0.0909
18884W        W34353   8.823  14.535  10.339 -0.1046 -0.2786 -0.0962
18885W        W34354  14.682  16.516  12.355  0.2881 -0.0744 -0.0359
18886W        W34355   1.868   9.342   2.443 -0.1462 -0.0396 -0.1145
18887W        W34356  15.807  13.575  11.841 -0.1389  0.0004  0.0049
18888W        W34357   9.055   8.647  10.334 -0.0790  0.0576  0.1116
18889W        W34358   1.039   6.152  14.902  0.0596 -0.1375  0.1923
18890W        W34359   4.015  15.783  10.706 -0.0583 -0.2374  0.0733
18891W        W34360  18.669   9.389  12.128 -0.1739 -0.0499 -0.0479
18892W        W34361   2.128   5.581   2.928 -0.1855  0.1972  0.1707
18893W        W34362  18.063   3.351   1.164  0.0138  0.4309 -0.0356
18894W        W34363   0.112   4.180   5.660 -0.0336  0.2817 -0.2118
18895W        W34364  12.745  12.526   1.293 -0.0453  0.2604  0.1834
18896W        W34365   8.439  13.769  10.564 -0.1147  0.2648  0.1445
18897W        W34366  15.859   2.399  13.866 -0.2929  0.0554  0.0856
18898W        W34367   3.501   7.441  11.865  0.2510  0.4287 -0.0736
18899W        W34368   3.361  12.757  13.081 -0.2029  0.0516 -0.0656
18900W        W34369   7.942   1.234  13.116  0.0834  0.0787  0.4439
18901W        W34370   7.258  13.410   1.909  0.0957 -0.0242 -0.1040
18902W        W34371   9.167  10.771   2.961 -0.0282  0.2529  0.0944
18903W        W34372  11.421   3.120  14.024  0.1044 -0.2382  0.2512
18904W        W34373  17.617   1.249  15.445 -0.1295  0.1950 -0.1017
18905W        W34374   4.763  10.158  13.720 -0.2711 -0.4454 -0.2599
18906W        W34375  13.454  16.897   3.125  0.0056  0.1167 -0.2665
18907W        W34376   4.593   2.465  13.205 -0.1606  0.1642  0.1609
18908W        W34377  11.205  13.723   3.399 -0.0122  0.0165  0.2207
18909W        W34378  18.273   7.666   3.405 -0.0581  0.0115 -0.1430
18910W        W34379  13.329  16.902  13.091  0.0020  0.0918 -0.3795
18911W        W34380  10.451  18.783  12.753  0.1263  0.0925 -0.0227
18912W        W34381  11.355  12.660   4.882  0.2422 -0.2346 -0.0590
18913W        W34382   8.469   1.534  13.097  0.0103  0.0867  0.2752
18914W        W34383   7.819  14.286  12.356  0.4710  0.1803 -0.2497
18915W        W34384  10.065  18.649  13.078 -0.1125  0.0816  0.0412
18916W        W34385  14.711  11.425   4.257  0.1005  0.1453 -0.0793
18917W        W34386  10.753  12.622  11.907 -0.2057  0.3553 -0.0004
18918W        W34387   5.691  13.236  10.962  0.0175 -0.1328  0.1950
18919W        W34388   7.947  13.338  14.463  0.4856 -0.0309 -0.3804
18920W        W34389   0.986  18.714   3.303  0.2162 -0.0960 -0.0332
18921W        W34390   0.579  13.547   2.752  0.0678 -0.1149  0.2383
18922W        W34391   9.157   0.223   0.313  0.1133  0.2946  0.2158
18923W        W34392  14.235  15.186   1.246  0.0469 -0.2512  0.5173
18924W        W34393   0.051   8.795   2.336  0.0398  0.1369 -0.1960
18925W        W34394   6.418  16.676   0.199  0.0501 -0.0044  0.0624
18926W        W34395  16.829   4.718   9.574  0.0687  0.1403  0.0084
18927W        W34396  16.436   1.469  14.004 -0.4492  0.1153  0.2276
18928W        W34397   5.302   1.603  12.304  0.1999  0.0476 -0.1339
18929W        W34398   2.854   3.708  12.653  0.0184 -0.1661  0.0715
18930W        W34399  15.958   3.625   0.481  0.0576 -0.0673 -0.0249
18931W        W34400   3.266  14.291  13.342 -0.0485  0.2812  0.2695
18932W        W34401   5.207  13.037   4.101 -0.3142  0.3759  0.1503
18933W        W34402  18.692   3.775   3.956 -0.0851  0.3743  0.1701
18934W        W34403  15.034   4.886   3.881 -0.1194 -0.0308  0.2628
18935W        W34404  11.097  10.125   0.362  0.0392  0.2213 -0.1481
18936W        W34405   0.028   6.758  12.692  0.0495 -0.2613  0.0914
18937W        W34406  11.150  16.512   3.232  0.0333  0.0356  0.3613
18938W        W34407   7.125  16.725   3.724 -0.3558  0.1593  0.0737
18939W        W34408  14.017   8.879   1.528  0.0521 -0.3675  0.2725
18940W        W34409  11.778   5.473   3.970 -0.1095 -0.1612 -0.2296
18941W        W34410   6.860   8.444  15.335  0.0869 -0.0344  0.1057
18942W        W34411   4.473   8.697  15.013 -0.0389  0.2552  0.4141
18943W        W34412   3.003   4.363  11.494  0.0518  0.2816 -0.4129
18944W        W34413  12.154  15.287   5.612 -0.0263 -0.4472  0.4168
18945W        W34414  12.595   1.785   3.078 -0.0512  0.2218  0.2049
18946W        W34415  15.939  12.002  12.184  0.1535 -0.0948 -0.0864
18947W        W34416   5.132   8.993  13.472  0.1988 -0.5051  0.0134
18948W        W34417  17.457   2.639  12.932 -0.2299  0.1240 -0.1534
18949W        W34418   5.489   7.689  14.591 -0.2939  0.0036 -0.2547
18950W        W34419  18.108  11.732   3.972 -0.1599  0.2554 -0.0128
18951W        W34420  14.376  18.425   3.105  0.0997 -0.1560 -0.1061
18952W        W34421   6.907  18.155  14.984 -0.2135  0.1990 -0.0510
18953W        W34422   3.243  17.616   3.076  0.2039 -0.3213  0.0357
18954W        W34423  12.210  14.798   5.466 -0.0683 -0.2284 -0.0171
18955W        W34424   1.121  11.423   3.204 -0.2047 -0.0284 -0.3460
18956W        W34425  11.673   2.707  10.217 -0.1469  0.0840  0.1738
18957W        W34426  18.020   7.990  11.072  0.0425  0.3031 -0.1784
18958W        W34427  17.358   2.564  15.112  0.3585  0.0085 -0.2107
18959W        W34428  18.288   6.127  13.717 -0.0148  0.2737 -0.0334
18960W        W34429  13.382  18.105  12.540 -0.2107  0.2283  0.2113
18961W        W34430   0.070   8.607   2.866 -0.2287  0.0872 -0.0160
18962W        W34431  14.538  14.217  11.495 -0.3066 -0.1241  0.3968
18963W        W34432  15.454   0.915  12.636 -0.0698  0.1424 -0.2861
18964W        W34433   9.943   6.073   2.455 -0.0327 -0.0811 -0.1228
18965W        W34434   6.649  11.638   3.306 -0.1335 -0.2121  0.1489
18966W        W34435  12.718   5.125   4.186 -0.0739  0.2826  0.0933
18967W        W34436   0.223   6.122   5.207  0.2392 -0.0106  0.3045
18968W        W34437  13.473   1.255   3.563 -0.1569 -0.3330 -0.1231
18969W        W34438   5.461   9.230   0.927  0.3471  0.0614 -0.1288
18970W        W34439   4.600   2.741  12.096  0.1987 -0.0126  0.0635
18971W        W34440  12.255   2.845  11.214 -0.1488  0.1889  0.1163
18972W        W34441  16.358   0.290   0.810 -0.0364 -0.0767 -0.0151
18973W        W34442  17.694   6.861   9.866 -0.0476  0.1863 -0.2105
18974W        W34443  11.087   9.560   2.551 -0.0926  0.0485  0.0963
18975W        W34444  16.756   1.630   3.792  0.1311 -0.1211 -0.2225
18976W        W34445   4.030   0.049  13.332 -0.1986 -0.1622  0.2300
18977W        W34446  17.485   4.375  14.581  0.2312 -0.0261  0.1425
18978W        W34447   6.973   2.612   1.855 -0.1483 -0.2382 -0.3217
18979W        W34448   6.826   9.016   3.949  0.0386  0.0030 -0.0861
18980W        W34449   0.576   3.208   3.456  0.2045  0.3554 -0.1585
18981W        W34450   4.315  15.756   3.575  0.0757 -0.3152 -0.3616
18982W        W34451  18.241  10.255  11.712  0.3046 -0.1213 -0.0606
18983W        W34452  18.531  16.914  13.271 -0.1224  0.1503  0.1593
18984W        W34453   3.384   1.221   0.594  0.0171 -0.0602 -0.2994
18985W        W34454   0.605  14.724  13.088 -0.0015  0.2770 -0.1273
18986W        W34455  12.064   0.223  15.408  0.2011 -0.1307 -0.0365
18987W        W34456  15.897   9.486  10.610  0.0342  0.2112  0.2297
18988W        W34457  14.857   9.517   3.934 -0.0533  0.0116  0.0747
18989W        W34458  16.611  14.941   0.311  0.0994 -0.1806 -0.3026
18990W        W34459   5.422   2.941   3.560 -0.0259  0.2379 -0.1338
18991W        W34460   5.240   1.092   3.573 -0.2502  0.0378  0.0654
18992W        W34461   0.282  18.559  15.255 -0.1249  0.1228 -0.0563
18993W        W34462  14.204   6.267  13.199 -0.2871 -0.3334 -0.0012
18994W        W34463  11.834  12.436   4.923 -0.5099 -0.1571  0.1445
18995W        W34464  12.825   5.407   1.803 -0.0250 -0.0217  0.2535
18996W        W34465   8.194   1.902   2.591 -0.4321 -0.3977  0.0588
18997W        W34466  14.465  13.212   0.444 -0.3615 -0.0487 -0.2479
18998W        W34467   0.016   9.080  13.294  0.1798 -0.0283 -0.1239
18999W        W34468  13.385  18.069   3.847 -0.1335  0.1222 -0.0088
19000W        W34469   9.699   3.685   9.558 -0.0524  0.0408  0.2914
19001W        W34470  15.399  11.329   2.852  0.0290 -0.2488 -0.1874
19002W        W34471  12.370   1.829  14.535 -0.1913  0.0300 -0.2692
19003W        W34472   4.488   5.635  13.775  0.1089  0.2515 -0.0838
19004W        W34473   9.186  17.248  15.392 -0.0383 -0.2194 -0.0186
19005W        W34474  16.281   4.573  11.397 -0.0193  0.0699 -0.1464
19006W        W34475  11.327  16.334   3.638 -0.2525 -0.0770 -0.2411
19007W        W34476  11.164   7.905  13.231 -0.1365 -0.1631  0.1791
19008W        W34477   6.453   8.237  13.815 -0.0945  0.1275  0.0191
19009W        W34478   9.848   5.281  15.237 -0.2497  0.1217 -0.0480
19010W        W34479  11.256  16.148  10.685  0.2039  0.2395  0.4387
19011W        W34480  11.385   5.513   1.295 -0.2818  0.5153 -0.1649
19012W        W34481  11.833  11.656  11.470 -0.1623  0.1112  0.3681
19013W        W34482   0.686   0.473   3.538 -0.1665  0.3577  0.2493
19014W        W34483  10.590   7.476  10.061  0.1053 -0.2044 -0.2047
19015W        W34484   4.227  17.546  11.475 -0.0909 -0.0865 -0.0725
19016W        W34485   1.700   2.618   3.021 -0.0831 -0.0132  0.1288
19017W        W34486   4.837   6.890   0.589 -0.0914 -0.0761 -0.1224
19018W        W34487   2.181  14.130   4.279  0.0292  0.0536  0.1717
19019W        W34488  18.143   4.344   4.696  0.1914 -0.3166  0.0118
19020W        W34489  10.989  11.407  11.237 -0.0662  0.1945  0.2782
19021W        W34490  16.394  14.336  13.536  0.1352 -0.0167 -0.3074
19022W        W34491   7.659   0.118  11.080  0.1160  0.5049  0.0353
19023W        W34492  11.994   2.578   3.601  0.2124 -0.3185  0.0477
19024W        W34493  10.431  13.463  11.908 -0.2308  0.4315 -0.3536
19025W        W34494   8.508  12.358  12.036  0.0459 -0.6901 -0.1619
19026W        W34495  15.854   3.661   9.608 -0.0837 -0.0032 -0.2307
19027W        W34496   2.497   0.626   4.144 -0.0312 -0.2627  0.0669
19028W        W34497  16.045  10.842  11.003  0.2490 -0.1614  0.1849
19029W        W34498  18.175   6.397   2.439  0.0405  0.0146 -0.0021
19030W        W34499   1.920  13.029  11.190  0.4064  0.3521 -0.4029
19031W        W34500   3.093   4.389   4.257 -0.0283  0.2037 -0.0174
19032W        W34501   6.562   5.905   0.493 -0.0225 -0.1098 -0.0719
19033W        W34502   2.721  10.416  13.898 -0.1556 -0.0675  0.2413
19034W        W34503  15.009  14.784  15.175  0.0576  0.1738  0.0320
19035W        W34504  11.772  13.323  12.736  0.2282  0.5076 -0.0363
19036W        W34505  11.733  18.264   1.975  0.0820  0.0936 -0.0185
19037W        W34506  13.385  16.379   9.605  0.0150 -0.2163  0.3655
19038W        W34507  18.909   3.302   4.888 -0.0108 -0.2933 -0.3440
19039W        W34508  15.592  18.142   0.650 -0.0902  0.0429 -0.0439
19040W        W34509  17.834   0.717  14.786  0.1061 -0.0562 -0.0456
19041W        W34510   6.715   6.692   4.461 -0.0570 -0.3244  0.1712
19042W        W34511  12.128  13.965  13.302  0.3533 -0.0387  0.0334
19043W        W34512  17.043   5.427  14.022 -0.1745  0.0531 -0.0271
19044W        W34513   4.755   8.264  14.377  0.2481  0.2208  0.2911
19045W        W34514   5.125   3.621  12.007 -0.1419 -0.0238  0.0715
19046W        W34515  12.886  10.147  12.849 -0.1169 -0.0648  0.6264
19047W        W34516   7.329  16.018  15.198  0.3621  0.2571 -0.4533
19048W        W34517  17.515  15.125   4.366 -0.3220 -0.5015 -0.2271
19049W        W34518  10.171   9.546   0.679  0.1538 -0.2729 -0.0480
19050W        W34519  17.908  16.832   0.506 -0.0506 -0.0080  0.1159
19051W        W34520  16.462   7.482   0.067  0.0227  0.0988  0.0340
19052W        W34521   2.645  17.252  12.786 -0.1961 -0.1436  0.2427
19053W        W34522  14.240   6.279  14.776  0.0025 -0.0787  0.1834
19054W        W34523  14.643   4.348   0.800  0.0805  0.0057 -0.3069
19055W        W34524  13.928   2.067   0.800  0.0972 -0.0198  0.0010
19056W        W34525   8.418  16.504  11.983 -0.3483  0.2355  0.3798
19057W        W34526   6.552  15.744  14.791 -0.3367 -0.1198 -0.2523
19058W        W34527   8.598   2.085   2.838  0.1886  0.1521  0.0431
19059W        W34528  11.367   8.486   5.734  0.3173  0.0919 -0.0640
19060W        W34529  12.360  17.384  14.464 -0.0338  0.1161 -0.3040
19061W        W34530  10.835   0.242  12.437 -0.3205 -0.0374 -0.0869
19062W        W34531  15.120   5.874  15.396  0.0604  0.0600 -0.3353
19063W        W34532  14.280   2.439   3.425  0.0055  0.1057 -0.2056
19064W        W34533   6.124  11.552   3.190  0.3809  0.0437  0.0776
19065W        W34534   7.153  14.011   0.675 -0.0039  0.1016 -0.2561
19066W        W34535   0.258   9.724   2.382  0.1774 -0.2011  0.1072
19067W        W34536  11.276  18.625  14.497 -0.2836  0.0696  0.3344
19068W        W34537   0.453   4.323  11.604 -0.0095  0.1815 -0.1705
19069W        W34538   1.214  16.176  13.004  0.0065  0.0352  0.2958
19070W        W34539  15.817  18.122   2.762 -0.0831 -0.2717  0.2323
19071W        W34540  14.646  10.180   2.641  0.0442 -0.1180  0.0390
19072W        W34541   7.863  12.432  13.808  0.0404  0.0600  0.2468
19073W        W34542   1.451   4.544   1.458  0.1886  0.2786 -0.0333
19074W        W34543   9.012  16.964   4.520  0.0671  0.0786  0.0887
19075W        W34544  10.397   8.289   4.930 -0.0084  0.1608  0.2749
19076W        W34545  12.653  15.429   5.454  0.0664  0.1835  0.1226
19077W        W34546   9.293  10.937   2.169  0.0530 -0.0127 -0.2486
19078W        W34547  12.610  17.500   0.362  0.1670 -0.2700 -0.1687
19079W        W34548  17.384  15.754   1.146 -0.2665  0.1787  0.1877
19080W        W34549   2.498   3.522  12.253  0.0142 -0.0538 -0.0554
19081W        W34550  17.891   6.180  15.073  0.1897 -0.2301  0.0167
19082W        W34551  10.587   8.148  12.715 -0.0154  0.1002  0.0715
19083W        W34552  10.598  18.865  14.741  0.2390  0.0323 -0.0849
19084W        W34553  10.841   0.707   2.483  0.2997  0.1310  0.0697
19085W        W34554   8.023  17.117  15.100  0.2315  0.0453  0.2842
19086W        W34555   7.155   3.207  14.126 -0.0161  0.0581 -0.1597
19087W        W34556  12.939  17.695  13.679 -0.4707  0.0625  0.2586
19088W        W34557  13.775   6.248   0.754  0.2346 -0.0252 -0.1275
19089W        W34558   3.490   9.450   2.691 -0.0567  0.3866  0.2576
19090W        W34559   1.528   2.108   5.591 -0.1270  0.2553 -0.1339
19091W        W34560  17.356   4.683   3.801  0.4423 -0.2004  0.0301
19092W        W34561   7.314   4.798   1.752 -0.1872  0.1627 -0.2015
19093W        W34562   7.986   4.314  10.207  0.1582 -0.0870  0.0562
19094W        W34563   2.979  10.815   0.328 -0.0240  0.5117  0.3367
19095W        W34564   8.810   2.635  12.509 -0.0608  0.1611  0.0264
19096W        W34565  18.933  12.697  14.879 -0.0816 -0.0735  0.2425
19097W        W34566   4.097   9.010   4.071 -0.0272  0.0228 -0.2197
19098W        W34567  13.544   4.790   4.101 -0.0185 -0.2385 -0.2497
19099W        W34568   1.465   9.118  13.856  0.1157  0.0721  0.3032
19100W        W34569   4.409   9.925  11.847 -0.1635  0.2100  0.3238
19101W        W34570  12.728  10.802   9.440 -0.3687 -0.1658 -0.1685
19102W        W34571   5.882  13.841  13.545 -0.1202  0.0118 -0.2218
19103W        W34572   6.432   2.749   0.276  0.0483 -0.1187 -0.2262
19104W        W34573   9.678  12.266  10.239  0.0473  0.1040  0.1286
19105W        W34574  13.451  14.252  10.178 -0.0343  0.0051 -0.1535
19106W        W34575   9.064  16.754   5.514  0.1767  0.1895  0.0048
19107W        W34576   4.389  17.999  10.706  0.0434 -0.1519 -0.4181
19108W        W34577   7.388   4.837   2.880 -0.1380 -0.0911  0.0778
19109W        W34578  17.869   1.890   2.544 -0.0882  0.3079  0.2498
19110W        W34579   1.677  18.147   4.479 -0.2012 -0.2769  0.0380
19111W        W34580   2.978  16.873   3.750 -0.1697  0.1542  0.2939
19112W        W34581  13.245  14.477  11.099  0.2768 -0.3237  0.0841
19113W        W34582   6.320   6.400   4.550 -0.0204 -0.1450 -0.1449
19114W        W34583   0.445   9.672   3.582  0.0588  0.0908  0.1235
19115W        W34584   8.338   9.524  14.887 -0.4364  0.3751 -0.0278
19116W        W34585  16.783  18.581   0.507  0.0302 -0.2336  0.2006
19117W        W34586   8.970  16.089   1.778 -0.0992  0.2096  0.1078
19118W        W34587  15.274  14.279  14.975 -0.1038 -0.0326  0.0248
19119W        W34588  16.009  12.695   0.705  0.2654  0.0468 -0.3147
19120W        W34589   6.627   4.116   1.896 -0.3406  0.0669 -0.1380
19121W        W34590  15.746   8.724   1.964 -0.1117 -0.1177  0.0272
19122W        W34591  17.287  16.790  13.262 -0.2506  0.1581 -0.2381
19123W        W34592   6.594  13.731  15.237 -0.0549  0.0490 -0.2145
19124W        W34593   0.960  16.950   0.427  0.1171  0.1176 -0.1580
19125W        W34594   3.002   6.805   0.323 -0.2314 -0.0322  0.3055
19126W        W34595  12.626  12.257   4.518 -0.0277 -0.0065 -0.1162
19127W        W34596   0.590   4.841   4.463  0.1563 -0.2172  0.2076
19128W        W34597   1.751  13.825  11.554  0.1640  0.0224  0.0438
19129W        W34598  11.068   2.531  11.703 -0.0261  0.1229  0.0186
19130W        W34599  18.397   2.768  12.948 -0.3250 -0.3498  0.1796
19131W        W34600   4.076   6.167   0.538  0.3173  0.3275 -0.0833
19132W        W34601  18.189  14.549  14.290 -0.1351 -0.2260 -0.3949
19133W        W34602  18.020  11.693  10.862  0.1504 -0.0993  0.2799
19134W        W34603   3.611  11.898  10.722 -0.0780  0.1429 -0.2954
19135W        W34604  16.447   1.829   3.455 -0.2069  0.0917  0.1320
19136W        W34605   6.878   2.406   4.628 -0.1596  0.1606 -0.2512
19137W        W34606  16.496   5.909  15.240  0.2602 -0.0517  0.2702
19138W        W34607   7.184  11.196   5.387 -0.2445 -0.0529 -0.0298
19139W        W34608  17.294   7.821  10.543 -0.2516 -0.0894 -0.1361
19140W        W34609  16.708   9.066  14.585 -0.0299  0.0212  0.3792
19141W        W34610   2.468   1.531   2.440  0.5501 -0.0443  0.3012
19142W        W34611   0.332  13.858  13.180 -0.0769 -0.2435  0.0772
19143W        W34612   9.186  13.856  12.199  0.0218  0.5412 -0.1170
19144W        W34613   8.658   8.977  14.445 -0.0379  0.0818  0.0372
19145W        W34614   5.443  12.183  11.794 -0.1314 -0.0828 -0.2944
19146W        W34615   6.643   9.737  12.523 -0.1870 -0.4468 -0.2677
19147W        W34616  11.407  16.943  13.546 -0.0191 -0.3528  0.0137
19148W        W34617   7.067  13.642   4.640 -0.2989 -0.3030  0.0542
19149W        W34618   6.660   8.984  13.479 -0.3024 -0.4706  0.0560
19150W        W34619  16.960   3.122   4.632 -0.4821 -0.0735 -0.0580
19151W        W34620  14.376  14.896  10.760 -0.2137  0.0746  0.2261
19152W        W34621  12.110   9.092  13.720 -0.0791  0.2163  0.1182
19153W        W34622   6.428  10.385  10.642 -0.4295  0.0971  0.1036
19154W        W34623   0.546  18.147   1.554 -0.0080  0.1447  0.1539
19155W        W34624  14.226  16.414  10.984 -0.1388  0.2065 -0.1863
19156W        W34625  15.063  10.289   3.895 -0.1874 -0.2194  0.1926
19157W        W34626  11.109   1.660   2.988  0.2315 -0.1248 -0.0599
19158W        W34627  17.359  11.132  13.741  0.1272  0.3236 -0.0843
19159W        W34628  15.373  16.399   1.248 -0.0059  0.0327  0.0015
19160W        W34629   8.531   8.660  13.708 -0.0882 -0.2192 -0.1286
19161W        W34630   3.530   4.255  12.257 -0.2090 -0.0689  0.0125
19162W        W34631  17.130   3.319  11.054  0.0808  0.0909  0.4362
19163W        W34632  18.569  11.361   2.311 -0.0751  0.0164 -0.0835
19164W        W34633  12.052  15.369  15.019  0.0240 -0.2800 -0.0398
19165W        W34634  11.676   6.292   0.758  0.0563 -0.1008  0.0537
19166W        W34635   5.924   1.289   1.223 -0.1323  0.3937  0.0780
19167W        W34636   2.546   0.264   0.453  0.2300 -0.0026  0.2002
19168W        W34637  13.094   3.831  14.538  0.0192  0.0526 -0.0193
19169W        W34638  10.292  14.972  14.926  0.0653 -0.2183  0.3680
19170W        W34639   0.734  14.690  10.316  0.1806  0.3253  0.0203
19171W        W34640   1.668  12.584  11.255 -0.0338  0.1689  0.0876
19172W        W34641  16.469  14.364   1.552 -0.0618 -0.0782 -0.2112
19173W        W34642   9.757  15.946   3.322  0.1730 -0.1309  0.2521
19174W        W34643   0.366   4.333   2.281 -0.1678  0.0887  0.0345
19175W        W34644   1.103  16.597  12.793 -0.2992  0.0571  0.2425
19176W        W34645   0.679   4.514   0.693 -0.1591  0.2066  0.3543
19177W        W34646   0.422  14.495  15.351  0.0821  0.0317  0.2628
19178W        W34647  17.438   0.039  10.865 -0.0588  0.0937 -0.2637
19179W        W34648   8.220  11.952  11.079  0.0623  0.1508  0.0195
19180W        W34649   0.044  10.426   5.299  0.0260 -0.4933  0.0622
19181W        W34650  16.997   3.951  11.653  0.4330  0.3798  0.0428
19182W        W34651  11.537   4.900   5.248  0.0765  0.2503 -0.0201
19183W        W34652  14.366  14.751   3.965 -0.0824 -0.1345  0.1109
19184W        W34653   5.878  14.052  11.644  0.1774  0.0784 -0.3852
19185W        W34654   3.612  12.477   2.653  0.1215 -0.2715 -0.0845
19186W        W34655   9.214   6.055   1.214  0.0401 -0.1766 -0.2654
19187W        W34656  18.412   2.850   0.839  0.0481 -0.2370  0.4754
19188W        W34657   5.360  10.324   5.486 -0.2537  0.2080 -0.1440
19189W        W34658  13.016  12.240   2.996  0.1164  0.0160  0.0765
19190W        W34659  17.104   5.992  13.074  0.1184  0.0590 -0.0790
19191W        W34660   2.968   6.697   1.501 -0.0234 -0.0976  0.4120
19192W        W34661   8.585  18.841   6.081  0.2453 -0.2012  0.0235
19193W        W34662  12.724  13.727   9.959 -0.1047 -0.2183  0.2156
19194W        W34663  11.195   4.249   2.769  0.1188  0.1340 -0.0710
19195W        W34664  13.931  14.325   0.697 -0.1348  0.2781 -0.3746
19196W        W34665   4.940  17.155  13.218  0.1170 -0.0372  0.1291
19197W        W34666   7.642   2.091   1.947 -0.3110  0.1858  0.2206
19198W        W34667   1.123   2.640   2.784 -0.0694  0.0909  0.2107
19199W        W34668  10.602  17.941   5.181  0.0477 -0.1570 -0.0237
19200W        W34669   1.965  18.124  11.427 -0.3390  0.0535  0.1899
19201W        W34670  16.121   5.549   0.935  0.0909  0.0567 -0.1531
19202W        W34671  14.815  17.857   2.053 -0.0536  0.2122 -0.1523
19203W        W34672   4.665   3.800  12.053 -0.0857 -0.1093 -0.0051
19204W        W34673  11.921  17.971  10.953 -0.0620  0.2077 -0.2760
19205W        W34674   6.099   6.125   1.860  0.1406  0.3034  0.1324
19206W        W34675  11.517  15.496   3.652 -0.0856 -0.0128  0.1115
19207W        W34676  18.797   9.653   2.699 -0.0844 -0.0388  0.0005
19208W        W34677   4.972   5.796   4.823 -0.0251  0.2184  0.0859
19209W        W34678  12.800   2.824  11.954 -0.0813 -0.2210 -0.2016
19210W        W34679  11.739  15.900  13.082  0.1462  0.1513 -0.1775
19211W        W34680   7.129  14.529  12.503  0.0922  0.2181  0.0977
19212W        W34681  18.290  12.239   4.640  0.1885  0.2577  0.0015
19213W        W34682  12.897  11.367   5.245 -0.0028  0.0954 -0.2055
19214W        W34683  15.874   9.857   1.117 -0.0430 -0.0975 -0.2680
19215W        W34684  15.454  17.055  10.680 -0.0855 -0.0787  0.0750
19216W        W34685  17.999  12.224  15.214 -0.0818  0.1833  0.3106
19217W        W34686  16.298  15.284  12.588 -0.1850  0.2595 -0.0163
19218W        W34687  14.752  14.479   3.753  0.0356  0.0697  0.7215
19219W        W34688  15.363   8.461   2.720 -0.1116 -0.1567 -0.1808
19220W        W34689   5.704  12.937   3.360  0.0577  0.6015  0.0360
19221W        W34690   6.645  16.530  12.886  0.0662  0.1385 -0.3445
19222W        W34691  15.218  13.754  14.069  0.0203 -0.0220 -0.0103
19223W        W34692   3.927   9.130   5.459  0.0369  0.1904 -0.0238
19224W        W34693   6.566   2.241  15.125  0.1291  0.0582 -0.0248
19225W        W34694  15.028  13.063   0.682 -0.1181 -0.1546  0.2568
19226W        W34695   3.544  15.834  11.890 -0.1269 -0.1277 -0.0943
19227W        W34696   8.710  12.049  13.891  0.0878 -0.1494 -0.1449
19228W        W34697   2.622  15.125  13.996 -0.1367 -0.3398 -0.0198
19229W        W34698   7.912  14.111   0.095  0.0091  0.0873  0.0422
19230W        W34699  14.533   3.105   4.759  0.0581 -0.0926 -0.3892
19231W        W34700  16.978   1.466  11.766  0.1841 -0.2305 -0.1418
19232W        W34701   7.421   8.941  11.042 -0.0975  0.1562 -0.0144
19233W        W34702  12.633   1.440  11.829 -0.0190  0.0969 -0.0033
19234W        W34703   0.155  14.539  14.832  0.1605  0.2381  0.2894
19235W        W34704  16.968  10.783   9.478  0.0014 -0.0120 -0.1594
19236W        W34705  10.870   1.564  11.275 -0.0697  0.1386 -0.4280
19237W        W34706  17.422   5.236  12.193 -0.0387 -0.0492  0.0037
19238W        W34707   8.430  14.943  11.273  0.1628  0.2141  0.2007
19239W        W34708   9.210   9.428   0.956  0.1362  0.0212 -0.1415
19240W        W34709  16.499  17.628  13.933  0.0551 -0.2307 -0.0284
19241W        W34710  18.237   7.784   3.917 -0.0675 -0.3943  0.0648
19242W        W34711   3.276   4.819   4.616 -0.4123 -0.4470  0.0325
19243W        W34712   3.893   9.034   0.405 -0.2379 -0.0326 -0.1342
19244W        W34713  16.821   2.067   2.245 -0.2716  0.0895  0.0054
19245W        W34714  17.154   3.078   3.269  0.2729 -0.1482  0.1335
19246W        W34715  18.289   6.587  10.880 -0.0138  0.1342 -0.1349
19247W        W34716  18.586  10.488   0.877 -0.2877  0.0044  0.0328
19248W        W34717  14.515  14.355  13.400  0.3040 -0.0213  0.3416
19249W        W34718   5.857  10.179   5.501 -0.0869  0.0259  0.0031
19250W        W34719   7.292   0.951  11.335  0.0143 -0.0306 -0.1808
19251W        W34720  15.541  11.604  15.388 -0.0677 -0.0392  0.1475
19252W        W34721  16.878   1.480   5.771  0.0321 -0.0358 -0.1773
19253W        W34722   5.065  12.045   0.232  0.0733  0.0560 -0.4181
19254W        W34723   7.517  11.781  15.361  0.4126 -0.0258  0.3369
19255W        W34724   4.456   8.870  11.443  0.1967 -0.1690 -0.0336
19256W        W34725   4.674   7.996   1.800  0.1674  0.2574 -0.0508
19257W        W34726   6.237  17.257   1.405  0.1269  0.0422  0.1335
19258W        W34727   1.113  16.398  15.219  0.3886 -0.1664  0.0763
19259W        W34728  15.386  12.045  14.618  0.1448  0.2709  0.3107
19260W        W34729   1.923   3.584   4.564 -0.1666  0.0695  0.1223
19261W        W34730  10.265   2.884  13.849  0.0354  0.0622  0.1277
19262W        W34731  12.163  13.257   4.799  0.0051  0.2167  0.3164
19263W        W34732  11.058  16.556   5.671  0.1625 -0.1555 -0.1021
19264W        W34733   0.428   3.182   2.830  0.1523  0.0229  0.0651
19265W        W34734  10.323  18.215   3.723  0.0813  0.0023  0.3418
19266W        W34735   1.426   5.098  12.616  0.2450 -0.2551  0.1146
19267W        W34736   6.660   3.053  14.690 -0.1242 -0.0112  0.3273
19268W        W34737  16.619   8.146   2.079  0.3966 -0.0496  0.1086
19269W        W34738  18.450  18.869  12.039 -0.1953  0.4186 -0.1340
19270W        W34739   1.965  16.120   3.392 -0.3518 -0.2006  0.0986
19271W        W34740  11.678  14.048   0.270 -0.3074 -0.1773  0.1976
19272W        W34741   7.686  16.112  11.010 -0.4290  0.3347  0.0079
19273W        W34742  16.783  14.588  12.900 -0.1303  0.1138  0.3129
19274W        W34743   3.653   6.906  10.212 -0.0446 -0.1179 -0.0293
19275W        W34744   6.887  14.038  12.942  0.0213 -0.2529 -0.1313
19276W        W34745   1.197  16.349  11.926  0.1827 -0.2351  0.2913
19277W        W34746  14.896   8.481   2.983 -0.1170 -0.1683 -0.2720
19278W        W34747   3.704   6.192   2.809 -0.1923 -0.1274 -0.2819
19279W        W34748   3.360   7.791  14.175 -0.0826  0.1350  0.5179
19280W        W34749   9.133   0.218   3.903 -0.1513  0.3752 -0.4446
19281W        W34750  10.124   8.770   2.264 -0.1583 -0.0035  0.0645
19282W        W34751  12.570   9.420   9.916 -0.1497  0.0918 -0.4251
19283W        W34752   8.049   5.412  15.500  0.3027  0.0937  0.1791
19284W        W34753   0.792   9.292   0.362 -0.1083  0.1458  0.1757
19285W        W34754   4.529   0.355  12.577 -0.1720  0.3341  0.3425
19286W        W34755   6.311  10.562   4.180 -0.0060 -0.1662  0.0550
19287W        W34756  17.150   0.490   3.400 -0.0861 -0.3033  0.4474
19288W        W34757   5.044   3.748   4.916 -0.2143  0.2950  0.0677
19289W        W34758  15.296   9.884   3.681 -0.0033 -0.0986 -0.0506
19290W        W34759  10.113  11.654  10.421  0.0848  0.2201 -0.0991
19291W        W34760   1.590  11.081  12.183 -0.1656  0.0314  0.0997
19292W        W34761  14.516  17.364  12.096 -0.3197 -0.1509 -0.2514
19293W        W34762  10.168   6.838  14.557 -0.0649 -0.0104 -0.0609
19294W        W34763   7.947  15.089  10.961 -0.1328  0.2213  0.0996
19295W        W34764   8.439   8.446   1.525  0.3849  0.0261 -0.1760
19296W        W34765   7.637  17.158  14.510 -0.1997 -0.1501  0.2690
19297W        W34766  10.127  15.987   2.917 -0.1013 -0.1480  0.0584
19298W        W34767   9.995   0.482  15.284  0.3730  0.1222 -0.1120
19299W        W34768   3.748   5.426   2.390  0.0147 -0.1173  0.3707
19300W        W34769  14.448  15.487   5.084  0.0281  0.0272 -0.0383
19301W        W34770   8.748  17.744  14.275  0.1032 -0.3548 -0.1538
19302W        W34771   0.501  10.989  11.078  0.3927  0.0496  0.1937
19303W        W34772  10.987  14.728  12.624 -0.0993 -0.2469  0.2460
19304W        W34773   3.337  14.945   1.952  0.1244  0.2163  0.0156
19305W        W34774  10.073  18.557  10.797 -0.1027 -0.1613  0.3388
19306W        W34775  13.204   7.621  14.968 -0.0808  0.1204 -0.2952
19307W        W34776  11.227   9.810   5.234  0.1782 -0.0916  0.2451
19308W        W34777   5.663   0.435  10.911 -0.1137 -0.1722  0.0004
19309W        W34778   7.362   3.629  10.733 -0.0032  0.3089 -0.0341
19310W        W34779   9.213  18.416  13.942 -0.0584 -0.4003 -0.0464
19311W        W34780   4.637   9.111   4.824  0.1018 -0.1477  0.0684
19312W        W34781  13.619   3.659  13.512  0.1220 -0.0236 -0.1692
19313W        W34782  13.762   1.843   4.823  0.0489  0.0557 -0.1091
19314W        W34783  16.574   8.500   1.256  0.2742 -0.0224 -0.0566
19315W        W34784   9.890   0.564  14.757 -0.1615  0.1971  0.2846
19316W        W34785   4.717   7.429   0.395  0.2052  0.5952  0.2260
19317W        W34786  11.390   3.473   4.811 -0.0304  0.2624 -0.0355
19318W        W34787  16.278  15.957   3.172  0.0197 -0.0856  0.0814
19319W        W34788  16.983   3.606   3.111 -0.1998 -0.2029  0.1018
19320W        W34789   1.290  18.441  12.528  0.5207 -0.0535  0.0157
19321W        W34790  10.910  11.459   1.637  0.2080 -0.0807  0.1944
19322W        W34791  11.733  14.902   5.554  0.0961 -0.2142 -0.0395
19323W        W34792  17.340   0.899  12.920  0.1381 -0.1102 -0.1525
19324W        W34793  18.175   1.612   2.865 -0.2122  0.1472 -0.1962
19325W        W34794  16.545  11.790   9.933 -0.3679 -0.3053 -0.0537
19326W        W34795   1.361  10.573   2.865 -0.0905  0.0822  0.2974
19327W        W34796   8.671  17.941  14.976 -0.1509  0.3575 -0.0519
19328W        W34797  10.004   5.636  10.280  0.2881  0.1161 -0.2809
19329W        W34798   0.549   0.144   5.911  0.0420  0.1191  0.4947
19330W        W34799  15.515   9.522  14.570 -0.3110 -0.1681  0.0773
19331W        W34800   2.281   0.302   0.854  0.2391 -0.0425 -0.0363
19332W        W34801   1.567   5.554   0.351 -0.1499  0.1693 -0.1288
19333W        W34802   5.339  18.003  12.335 -0.2436  0.2790 -0.1341
19334W        W34803   2.946  13.664  10.975 -0.3850  0.1839 -0.3558
19335W        W34804  17.246  13.620  11.548 -0.0577 -0.1915  0.3007
19336W        W34805   3.629   1.405  14.592  0.0070 -0.0499  0.5550
19337W        W34806   2.279   9.863   4.657  0.2921 -0.0639  0.1083
19338W        W34807  12.108  15.025  13.470 -0.2933  0.1207 -0.1312
19339W        W34808   1.503  17.328  14.547  0.0586  0.3128 -0.4215
19340W        W34809  14.589   6.893   9.739  0.0308  0.2341  0.1249
19341W        W34810  15.109  13.244  14.745  0.0634 -0.4810 -0.2635
19342W        W34811  17.779   0.407  15.317 -0.3293 -0.2491  0.1718
19343W        W34812   6.898   2.202   0.956 -0.0615  0.1821  0.1834
19344W        W34813   5.170   3.594  11.348  0.0949 -0.0346  0.1949
19345W        W34814  13.193   7.237  12.282  0.1353  0.0784  0.3342
19346W        W34815  11.094  17.804   0.639  0.0416  0.0408 -0.0454
19347W        W34816  15.647   8.753   2.968 -0.4218  0.1757 -0.1649
19348W        W34817   0.188   9.353   9.763  0.0400 -0.1526 -0.1819
19349W        W34818   6.940  17.031  10.367  0.4156  0.0779  0.1873
19350W        W34819   4.363   5.611   1.746  0.0009  0.2584  0.1348
19351W        W34820  16.794  11.186  12.442 -0.2507 -0.0060 -0.1981
19352W        W34821   3.282   5.790   2.108  0.0169  0.2334  0.0235
19353W        W34822   8.059  14.156   0.787 -0.1101  0.0731  0.1281
19354W        W34823  15.072   7.114   1.431 -0.2525 -0.3588  0.1919
19355W        W34824  17.189  16.503   4.132  0.0871  0.0278 -0.1409
19356W        W34825  18.811   7.834   6.000  0.0399 -0.2692  0.0772
19357W        W34826  15.777  14.740   3.521  0.0701 -0.1514  0.0608
19358W        W34827   2.329   2.775   4.182  0.0680  0.0500  0.0524
19359W        W34828  12.739  16.541  13.659  0.3027 -0.1191 -0.1974
19360W        W34829  10.937  16.320   2.638 -0.0062 -0.1307  0.3540
19361W        W34830  13.851  11.640  10.772  0.0719  0.1158 -0.2004
19362W        W34831  10.943   2.240  12.283  0.3310 -0.1086  0.0391
19363W        W34832  15.427   2.422  11.369 -0.1008  0.1483  0.2751
19364W        W34833   3.391  13.449   3.987 -0.0584 -0.1771  0.1732
19365W        W34834   0.275  13.910   1.803  0.0229  0.0908 -0.2919
19366W        W34835  14.062  18.875  15.201 -0.0528  0.0044  0.0771
19367W        W34836   9.552  13.642  14.205  0.4578  0.2018 -0.0440
19368W        W34837  12.483  10.984   4.230 -0.0162 -0.0275 -0.0221
19369W        W34838  12.774  12.520   1.808  0.2836 -0.1943  0.2285
19370W        W34839  11.197   6.802   3.345 -0.0650 -0.1025  0.3078
19371W        W34840   7.437  16.158  13.680  0.1165  0.1468 -0.0831
19372W        W34841  12.484   2.880   3.824 -0.1197 -0.1092 -0.4258
19373W        W34842  11.917  14.878  13.986  0.0469  0.0214 -0.1412
19374W        W34843  16.855  15.213   1.340  0.2398  0.1959  0.1224
19375W        W34844   0.310  16.275   3.341  0.2592  0.1544 -0.0653
19376W        W34845   8.163   2.508   3.273  0.3666 -0.2511  0.3025
19377W        W34846   0.282   6.686  12.037  0.0289 -0.2166 -0.0329
19378W        W34847   2.260  12.623   1.538  0.1466 -0.2890  0.2960
19379W        W34848  13.954   1.291   3.580  0.4255 -0.1036  0.3407
19380W        W34849  17.433  10.905   3.695 -0.1780 -0.1009 -0.0291
19381W        W34850   3.091   7.678   0.241  0.0779 -0.0503  0.1224
19382W        W34851  10.420  13.934   3.069 -0.0623  0.1549  0.0310
19383W        W34852   6.079   0.035   0.760  0.0144 -0.0521  0.0212
19384W        W34853  16.378   3.730   0.849  0.2428  0.2647 -0.3136
19385W        W34854  18.542  14.736   4.053 -0.0826  0.0678  0.1701
19386W        W34855   0.971  13.507  14.020 -0.1629 -0.0517 -0.0021
19387W        W34856  11.050   7.184  15.110  0.0976  0.1433  0.0235
19388W        W34857  12.002   7.608  12.488  0.2224 -0.0116  0.1648
19389W        W34858   7.463   9.600   3.981  0.0044  0.4214 -0.1380
19390W        W34859   9.492  17.459   1.996 -0.1662 -0.3438 -0.1069
19391W        W34860  17.983  18.386   5.038  0.0281  0.1126 -0.2960
19392W        W34861  11.839   8.079   2.332  0.1045  0.0212  0.5413
19393W        W34862   4.981  10.856  10.924 -0.0014 -0.1116 -0.2840
19394W        W34863   7.368  17.483   1.712  0.1111 -0.1225 -0.0063
19395W        W34864   2.521  17.847   4.148  0.1055  0.3322 -0.1384
19396W        W34865  15.028  16.001   4.857 -0.1135  0.2369 -0.0298
19397W        W34866   6.272  10.454   5.542  0.1293 -0.0992  0.1015
19398W        W34867   7.347   0.373  12.899 -0.0161 -0.1727  0.0859
19399W        W34868   9.485   4.750  12.120  0.0356 -0.1454 -0.0853
19400W        W34869  10.398   7.145   4.750  0.1550 -0.1844  0.0007
19401W        W34870   9.099   1.223  10.820  0.2240  0.0965  0.4867
19402W        W34871   0.837  17.039   0.951  0.0664 -0.0561 -0.0232
19403W        W34872  14.916   7.319   0.255 -0.3790 -0.1091 -0.1228
19404W        W34873  12.294  15.575   1.548  0.0163 -0.0160  0.1335
19405W        W34874   3.143   1.597   3.361 -0.1427 -0.0105 -0.0942
19406W        W34875   2.252  15.937  11.115 -0.1332 -0.0869  0.3947
19407W        W34876  10.459   3.758  13.980  0.1823 -0.0089 -0.3504
19408W        W34877  10.655   5.437   0.883  0.1560  0.2074 -0.1372
19409W        W34878   8.384  12.861   2.878 -0.1043 -0.1207  0.0923
19410W        W34879   8.981   3.442  11.917 -0.0972  0.0905  0.0510
19411W        W34880  14.287   4.242  14.814 -0.4921 -0.1862  0.0445
19412W        W34881  16.625   9.326  11.297 -0.1149  0.1729  0.1592
19413W        W34882   9.908   8.656   1.838  0.2540 -0.0606  0.1174
19414W        W34883   2.146  11.320   1.182 -0.2008  0.1674  0.0577
19415W        W34884   1.544  18.607   4.382 -0.0177  0.1693  0.1225
19416W        W34885  10.157   5.478   3.047  0.4462  0.1033 -0.0594
19417W        W34886   0.785  13.904  12.391 -0.1319  0.0495  0.1250
19418W        W34887   6.310  10.559   1.707  0.0250 -0.2752 -0.3630
19419W        W34888  16.149   5.702   3.103  0.0983  0.0820 -0.0816
19420W        W34889   4.734  15.642  10.000  0.2261  0.1742 -0.1104
19421W        W34890  13.025   4.458   2.229 -0.0046  0.0140 -0.2652
19422W        W34891  17.523   1.162  14.922  0.3147 -0.0040 -0.1154
19423W        W34892   2.217  14.242   2.064 -0.2155 -0.0054  0.3263
19424W        W34893  13.470  10.254   2.135 -0.3193  0.0016  0.3009
19425W        W34894   3.075  18.372   4.604  0.1234 -0.0100  0.3328
19426W        W34895  11.952   8.563  12.067  0.2459 -0.0888 -0.3907
19427W        W34896  13.784  16.037  13.808 -0.0328  0.3333  0.0070
19428W        W34897   9.825  14.839   3.728 -0.3831  0.0034  0.1359
19429W        W34898  17.011  10.654  11.224  0.5034 -0.2248 -0.2243
19430W        W34899  16.615   3.484   1.519  0.0477  0.1137  0.2020
19431W        W34900   4.577  13.463  11.777 -0.0914 -0.1575 -0.3244
19432W        W34901   4.992  10.640  13.890 -0.0260 -0.2459  0.1419
19433W        W34902  12.315  17.089  12.412  0.0149 -0.3801  0.0331
19434W        W34903  10.189   1.742  12.894 -0.4752  0.1642  0.2710
19435W        W34904   7.831  17.645  15.373  0.1191  0.0217 -0.1915
19436W        W34905  17.477  18.609  13.169  0.2379 -0.3222 -0.0341
19437W        W34906   0.686  14.353   0.873 -0.5141 -0.1026 -0.2438
19438W        W34907  13.479   3.602  14.026 -0.0119 -0.1060 -0.0866
19439W        W34908   4.082   5.781  13.136  0.1624  0.2983  0.3610
19440W        W34909   5.736  14.905  10.680  0.0527 -0.0431  0.1381
19441W        W34910   3.713   0.195   4.871  0.3043  0.1076 -0.0875
19442W        W34911   7.673   7.127  12.221 -0.0984 -0.0371 -0.3226
19443W        W34912   3.035   3.033   5.079 -0.0841  0.1443  0.3759
19444W        W34913   8.764   9.858  10.288  0.0654  0.2631 -0.0342
19445W        W34914  14.191   7.563   3.176 -0.1988 -0.1433  0.5919
19446W        W34915   2.466   1.480  12.278  0.4761  0.3271  0.1572
19447W        W34916  11.704  13.372   4.548  0.2766  0.1340  0.1026
19448W        W34917  15.761  17.834  12.354  0.4027  0.0223  0.1726
19449W        W34918   0.889   6.834  14.028 -0.0737 -0.0275 -0.2920
19450W        W34919   2.941  11.661   2.869 -0.0624  0.0418 -0.0504
19451W        W34920   8.660   0.378  14.963  0.1121 -0.1313 -0.0320
19452W        W34921   0.470   2.317   1.793 -0.1551  0.1616 -0.0099
19453W        W34922  14.544  16.507   0.312  0.0467 -0.3925 -0.2533
19454W        W34923   9.189  15.204  11.634  0.0249 -0.3493 -0.1239
19455W        W34924   6.533  17.031   5.991  0.0834 -0.0170  0.4118
19456W        W34925  16.470   4.214   0.733  0.1511  0.0449 -0.0876
19457W        W34926   8.865  12.562   4.290 -0.1746  0.3578  0.2216
19458W        W34927   3.741   8.335  12.239  0.2320  0.0698  0.0791
19459W        W34928  10.410   4.237  15.013 -0.0810 -0.1759 -0.0096
19460W        W34929  17.337   6.759  13.914  0.0113 -0.0023 -0.1672
19461W        W34930   8.660  14.744   6.337 -0.2049  0.2152 -0.3771
19462W        W34931   5.554   3.642  13.793  0.2047  0.1260 -0.1669
19463W        W34932  18.381  17.757  10.778 -0.2166 -0.1547  0.1459
19464W        W34933   2.956  10.656   3.558  0.0181  0.2843 -0.1307
19465W        W34934   5.373  10.596   2.656  0.1563  0.2991 -0.0938
19466W        W34935  13.799   6.059  10.253  0.1721  0.0355 -0.3715
19467W        W34936   2.584  17.324   3.643 -0.1322  0.0003  0.0991
19468W        W34937  16.375  15.844   0.172  0.0782  0.0653 -0.2086
19469W        W34938   9.040   0.563   4.285  0.0215 -0.0363  0.1507
19470W        W34939   2.683  18.034  13.705 -0.0141  0.2571 -0.5566
19471W        W34940   0.358   2.029   5.612 -0.5276  0.1172  0.1710
19472W        W34941  18.259  16.527   2.506  0.0066  0.0683 -0.0185
19473W        W34942  18.261  14.038  14.837  0.0277 -0.0629  0.0151
19474W        W34943   5.993  18.616   2.287  0.2024 -0.2200  0.2536
19475W        W34944  12.983  16.442   9.940 -0.0766  0.1405  0.0032
19476W        W34945  10.374  12.320   1.616  0.1963 -0.1697 -0.3892
19477W        W34946   6.521   4.600  15.440 -0.0486 -0.0369 -0.0097
19478W        W34947   6.635   4.829   4.337  0.2063 -0.0045 -0.3414
19479W        W34948  15.284  14.591  13.148 -0.0704 -0.0215 -0.0936
19480W        W34949  14.428  15.649   5.684  0.0290  0.0803 -0.2077
19481W        W34950  17.451   0.890  14.060  0.2419 -0.1526  0.2653
19482W        W34951   7.247  15.677   2.727  0.1870  0.1249  0.0073
19483W        W34952  15.213  16.718  12.835  0.1265 -0.0679 -0.2241
19484W        W34953   2.425   5.192   0.152 -0.0363 -0.3004 -0.0536
19485W        W34954   8.100   0.777  13.241  0.1851  0.2089 -0.0723
19486W        W34955   6.990   8.202   4.780 -0.1092 -0.2904 -0.0093
19487W        W34956   0.363  14.000   2.822  0.0386  0.2307 -0.0739
19488W        W34957   9.645  10.818   1.074  0.0675 -0.2516 -0.1327
19489W        W34958   6.523   0.820   3.783  0.3153  0.2439  0.7347
19490W        W34959   4.778  16.467   3.598 -0.1606  0.0915  0.0656
19491W        W34960  12.615  15.152  11.046 -0.1536 -0.1805  0.2796
19492W        W34961   9.255   7.753  11.594  0.2846  0.2324 -0.1858
19493W        W34962  14.264   5.831  11.225 -0.1152  0.0713 -0.0871
19494W        W34963   1.328  11.152  12.687 -0.2483  0.1025 -0.4089
19495W        W34964  13.170   2.831   4.071  0.2881 -0.2480 -0.3523
19496W        W34965  16.099   5.597  14.066 -0.2366 -0.0599  0.0431
19497W        W34966  11.117   5.178  10.723  0.4988  0.0398  0.1289
19498W        W34967  15.194   5.882   3.017 -0.1356 -0.0461 -0.0850
19499W        W34968  10.185   7.326  14.793 -0.2823  0.0925 -0.2475
19500W        W34969   5.039   1.359  14.649  0.0858  0.0660 -0.0127
19501W        W34970   1.155  13.772   3.078  0.1026 -0.1137  0.2157
19502W        W34971   6.679   4.340  10.742  0.1042 -0.3666 -0.2761
19503W        W34972  17.599  13.163  11.634  0.0850  0.3771 -0.2142
19504W        W34973   4.040  16.752  13.870 -0.0056  0.4544  0.1298
19505W        W34974   0.714  14.215  13.057  0.1128 -0.0118  0.3210
19506W        W34975  10.048   7.171  10.686 -0.2255  0.3202  0.2573
19507W        W34976  17.135  13.680  13.772 -0.0014 -0.0610 -0.0844
19508W        W34977   7.858   7.585   1.180  0.2783 -0.0767  0.1471
19509W        W34978   8.859  16.803   0.697  0.0895 -0.2187  0.0787
19510W        W34979   9.328  12.753   3.559 -0.0133 -0.1036  0.0442
19511W        W34980   7.698  10.985  11.310  0.2788  0.1183  0.5068
19512W        W34981   8.114   4.877   2.148  0.0895 -0.2240  0.0110
19513W        W34982   4.111  14.288   3.019 -0.0916  0.1449  0.2640
19514W        W34983   8.045  17.204  11.321  0.0946 -0.2314  0.0145
19515W        W34984   7.384   0.900   4.599  0.3930  0.2382  0.1649
19516W        W34985   0.809  14.337  11.652 -0.0183  0.0763  0.1419
19517W        W34986   2.700  17.954   4.606 -0.1878 -0.1543  0.2049
19518W        W34987   3.054   5.860   0.631 -0.0833 -0.0007  0.0899
19519W        W34988   0.434   6.160  11.467  0.2842  0.0243 -0.0617
19520W        W34989   0.537  13.024   1.339 -0.0948  0.2323 -0.0845
19521W        W34990  15.722   8.524   5.069  0.0397 -0.0318  0.0910
19522W        W34991  12.995   2.175  11.230 -0.0782  0.1446  0.1629
19523W        W34992  14.983   9.255   0.559  0.0133  0.0588  0.1775
19524W        W34993  17.890   5.063  13.448  0.1135  0.2668  0.1642
19525W        W34994   8.852  14.667  12.091 -0.0807 -0.0400  0.0292
19526W        W34995   6.195  15.371  14.644  0.1375  0.1992 -0.0028
19527W        W34996   7.706  12.041   2.462  0.1328  0.0186  0.2254
19528W        W34997   3.574   4.932  14.064  0.0573 -0.0130 -0.1759
19529W        W34998  17.616   3.660   2.405  0.1836  0.2897 -0.1973
19530W        W34999  18.586   3.799   0.921  0.1457 -0.0232 -0.1888
19531W        W35000  18.234  18.234   4.486  0.0844 -0.0961  0.1484
19532W        W35001   8.186  10.469   1.101  0.2911  0.2677 -0.0242
19533W        W35002   7.612  12.097  10.881 -0.2379  0.0389 -0.0064
19534W        W35003   1.576  18.032  12.515  0.3351 -0.3544  0.1269
19535W        W35004   2.083   6.125  11.704 -0.1964  0.0102 -0.0167
19536W        W35005   0.603  18.001   0.473 -0.0693 -0.0430 -0.0002
19537W        W35006   5.748   9.024   1.309  0.1811  0.0214 -0.0381
19538W        W35007  18.839   5.468   4.288  0.0358  0.1507 -0.1360
19539W        W35008  11.584   2.855  10.632  0.0117 -0.0021 -0.0726
19540W        W35009  15.695  17.408   0.074 -0.0179  0.1337 -0.1150
19541W        W35010  13.317   7.127  15.018  0.1540  0.1403  0.0015
19542W        W35011   4.956  17.500  13.982  0.2113 -0.0613 -0.0628
19543W        W35012  17.651   4.190   2.409 -0.0896  0.1699 -0.1561
19544W        W35013   4.636  12.572  12.898  0.2709  0.1474 -0.2408
19545W        W35014   8.490   8.571   2.070  0.2812  0.3028  0.3367
19546W        W35015   9.807   4.021   4.766  0.2489  0.1135  0.4295
19547W        W35016   5.561  18.225   0.438 -0.0963 -0.4150 -0.3978
19548W        W35017  13.236  10.892  11.296  0.0700  0.4995  0.0699
19549W        W35018  18.232  10.464  11.067 -0.0253 -0.1857  0.0205
19550W        W35019   4.606  13.056  13.052 -0.1276 -0.2040 -0.0534
19551W        W35020   0.812   2.909   4.466  0.0112 -0.2647  0.1744
19552W        W35021  17.821  10.467  13.073 -0.0939 -0.0894 -0.2612
19553W        W35022   5.513  14.916  13.797 -0.1209 -0.0964 -0.0812
19554W        W35023  14.579  18.798  13.825  0.4585  0.0179  0.3432
19555W        W35024   2.419   9.082  12.870 -0.0262 -0.2013  0.1700
19556W        W35025  15.622   7.589   0.597 -0.3680  0.1132  0.0520
19557W        W35026  12.891   4.507  14.471 -0.1514  0.1340 -0.0165
19558W        W35027   9.963   5.734  12.587 -0.2351  0.0210 -0.2894
19559W        W35028   1.850   4.393  13.743  0.0748 -0.1529  0.1201
19560W        W35029   7.563   3.082  13.906  0.1503  0.2741  0.3661
19561W        W35030   4.190   1.490   4.972  0.0464  0.0169  0.1962
19562W        W35031  15.131  10.959  15.480  0.3937  0.1771 -0.0704
19563W        W35032  10.959   1.754   0.713  0.1652 -0.3998 -0.3516
19564W        W35033   6.511   7.219  13.858  0.1603  0.0992  0.2199
19565W        W35034  12.577  13.708   2.582 -0.4667 -0.0506 -0.0385
19566W        W35035  17.458   0.878   3.212 -0.1722 -0.3285 -0.2792
19567W        W35036  10.619  14.717   4.443  0.0372 -0.2550 -0.3413
19568W        W35037  15.832   3.702  14.287  0.2592  0.1685  0.1009
19569W        W35038   4.897  17.306   1.199  0.0207  0.1005  0.0764
19570W        W35039  14.895   2.489  10.990  0.3485  0.0626 -0.1442
19571W        W35040  11.502  16.074   2.780 -0.0247 -0.0143 -0.1553
19572W        W35041  10.753   2.195   0.622  0.0674  0.2023  0.2963
19573W        W35042   5.210   6.723  10.438  0.3032  0.2618  0.0165
19574W        W35043   0.791  18.329   1.101 -0.2348 -0.1460 -0.0904
19575W        W35044   1.047  17.328  13.367  0.1101  0.0144  0.2098
19576W        W35045   2.023   9.462   4.556 -0.2920  0.2903 -0.0214
19577W        W35046  12.365   7.535  14.167 -0.0753 -0.0915  0.3201
19578W        W35047   6.631  10.727   3.070  0.1977 -0.3558  0.0034
19579W        W35048   7.257   7.682   4.631  0.1621 -0.2964 -0.0781
19580W        W35049  11.294   3.725   3.642  0.0104 -0.2927 -0.3534
19581W        W35050   9.052  16.489  12.018  0.3427  0.3740 -0.1258
19582W        W35051  14.064  14.431  14.117  0.1024 -0.3808  0.2217
19583W        W35052  12.075   2.988   5.250  0.0923  0.0362  0.1792
19584W        W35053  12.296  14.995   2.957  0.0948  0.1347 -0.0248
19585W        W35054   2.250   7.446   1.261 -0.1049 -0.1694  0.1477
19586W        W35055  12.034  15.936  11.833 -0.0433  0.0755  0.3706
19587W        W35056  17.600   6.427  14.766 -0.0288  0.0039  0.1408
19588W        W35057   2.375   3.976   1.792  0.2224  0.0539  0.1117
19589W        W35058   3.534  16.361  13.859 -0.1425 -0.1829  0.0040
19590W        W35059  16.749  13.289  11.047 -0.2329 -0.2187  0.4265
19591W        W35060  17.755  14.629  13.975  0.1717  0.0635  0.0253
19592W        W35061  10.099   4.869  11.787  0.0996  0.0378  0.1692
19593W        W35062  14.088   7.143  13.780 -0.4130 -0.0570  0.3051
19594W        W35063   9.782  17.252  15.118  0.1801 -0.2001 -0.0866
19595W        W35064  13.610  15.521   0.761  0.2650  0.0789 -0.4559
19596W        W35065  18.803   3.533  14.887 -0.2646  0.0031 -0.1689
19597W        W35066  15.325   3.453   0.934  0.0635 -0.1390  0.1455
19598W        W35067   0.091  17.994  11.704  0.0615 -0.2350 -0.2304
19599W        W35068   2.090   3.827  15.161  0.2330 -0.1949  0.3790
19600W        W35069   7.084   3.708  13.409  0.2135  0.0694 -0.4293
19601W        W35070  16.978   5.007   0.940 -0.2976  0.0487 -0.5533
19602W        W35071   0.505  17.960   0.988 -0.1344 -0.2780  0.1284
19603W        W35072   8.358  11.395   1.204  0.2748  0.1027 -0.1343
19604W        W35073   2.267   4.715   0.146 -0.1672 -0.1069 -0.1280
19605W        W35074   5.154  14.717   4.670  0.2209 -0.0945 -0.0381
19606W        W35075   4.054  10.900   3.706 -0.0663  0.0560  0.1874
19607W        W35076   2.883  15.167   3.338 -0.1093  0.0107 -0.3244
19608W        W35077  11.484   5.872   0.503 -0.0210 -0.1138  0.4221
19609W        W35078  10.786   7.885  15.164  0.5559  0.1566  0.1427
19610W        W35079   2.898   8.131   1.026 -0.2418  0.1797  0.3190
19611W        W35080   5.928   2.963   9.716  0.0576  0.2739 -0.0513
19612W        W35081  15.789  15.680   2.696 -0.3570  0.3950  0.2660
19613W        W35082  10.991  10.966   1.676 -0.1453 -0.1255 -0.0271
19614W        W35083   6.753  15.058  12.745  0.1378 -0.1658  0.4277
19615W        W35084   3.984  17.215  12.156  0.2041 -0.1075 -0.1438
19616W        W35085   4.558  16.307  11.100  0.0498 -0.0835  0.1822
19617W        W35086   6.280  18.471  11.383  0.1379  0.0870  0.0153
19618W        W35087  14.101   9.160   5.176 -0.0417  0.2195  0.1557
19619W        W35088   4.363   5.080   1.185 -0.2267  0.1103  0.0553
19620W        W35089   6.256   6.587  12.986  0.1746  0.4308 -0.1492
19621W        W35090  12.035  14.887  15.215  0.0755 -0.1494  0.1571
19622W        W35091  13.043   4.679   4.237 -0.1060 -0.1472 -0.0137
19623W        W35092   6.997   6.050   5.814  0.0415  0.0590 -0.0039
19624W        W35093   5.034   2.768   0.735 -0.2135 -0.0208 -0.2099
19625W        W35094   7.001  17.623  13.085  0.1739 -0.3365 -0.0214
19626W        W35095   6.953  12.765   0.622  0.0731  0.0155 -0.0525
19627W        W35096   3.408   9.891   5.816 -0.2445  0.4302 -0.1782
19628W        W35097   3.640   7.907  15.066  0.1529  0.0657  0.2047
19629W        W35098  12.703  11.476  14.769  0.0900 -0.0164 -0.0806
19630W        W35099   4.510   5.121   1.637 -0.1056 -0.0250  0.0028
19631W        W35100  17.697  17.823  14.463 -0.3970 -0.1451  0.3052
19632W        W35101   6.770   0.291   2.334 -0.1544  0.1526 -0.0812
19633W        W35102   3.504  15.430   1.084 -0.1036 -0.1162  0.1095
19634W        W35103   0.701   4.956   3.983 -0.1800 -0.1900 -0.2070
19635W        W35104  17.237  12.417   0.207 -0.2877 -0.0732 -0.3585
19636W        W35105   1.987  15.267   5.854  0.2050  0.1616 -0.3349
19637W        W35106   9.666  11.013  12.095  0.2451 -0.1280 -0.0019
19638W        W35107   7.927  16.356  10.594  0.0148  0.3691 -0.4451
19639W        W35108  10.853  14.593   3.628  0.1730 -0.1172  0.2130
19640W        W35109   0.805  15.677  14.051 -0.2688  0.0678 -0.3413
19641W        W35110  12.433   0.072  11.902  0.0480  0.0206  0.0652
19642W        W35111   8.162   9.257   2.599  0.2058  0.1152  0.0359
19643W        W35112   7.121  18.695  11.645  0.0364 -0.0476  0.2205
19644W        W35113  18.734   1.194  13.481 -0.1238  0.0249 -0.0340
19645W        W35114  11.835  11.091  14.739  0.4389 -0.3689 -0.2200
19646W        W35115  16.573  16.360   3.401  0.0784  0.3535 -0.1992
19647W        W35116  13.311   7.332   1.825 -0.0391  0.1278  0.0022
19648W        W35117   8.016   2.475  10.092  0.0874 -0.2165  0.0188
19649W        W35118  13.844   3.414  10.463 -0.1444 -0.0092  0.1085
19650W        W35119   0.117   2.471   0.297  0.0990 -0.3455  0.1541
19651W        W35120  17.999  11.803  12.432  0.0309 -0.2362 -0.1686
19652W        W35121   6.027  12.079  12.354 -0.3417  0.0934 -0.1751
19653W        W35122  10.622   9.062  14.561 -0.2102 -0.1387  0.0702
19654W        W35123   1.774  17.493   3.042  0.1738 -0.2606  0.1422
19655W        W35124  10.067   7.559  12.212  0.1678 -0.0215  0.0068
19656W        W35125   3.877  16.188   4.844  0.1201  0.2218  0.0161
19657W        W35126   1.381  15.505   2.228  0.1865 -0.1298 -0.0474
19658W        W35127  13.421   4.235   3.959 -0.1277  0.3141  0.0389
19659W        W35128  10.914  13.720   1.274  0.3000 -0.4935  0.1426
19660W        W35129   1.213  14.644   1.849 -0.1204  0.0332 -0.0368
19661W        W35130  14.127  10.543   2.340 -0.0502  0.1000  0.0027
19662W        W35131  11.699   6.796   4.422 -0.1915 -0.0576  0.3458
19663W        W35132   3.173  18.302  12.769 -0.0523  0.0077  0.2690
19664W        W35133   7.996   9.492  13.306 -0.2353  0.2726 -0.0715
19665W        W35134   1.164   4.450   1.092  0.2426 -0.2751  0.3839
19666W        W35135  11.650  14.545  15.012  0.0340 -0.1561  0.1472
19667W        W35136   2.728   1.529  13.725  0.1536 -0.0448  0.1603
19668W        W35137   7.010  15.742   2.210 -0.2505 -0.0751  0.2194
19669W        W35138   3.995  13.380   2.689 -0.1292 -0.1242  0.2171
19670W        W35139  17.796   2.162  15.334 -0.0262 -0.2046  0.1866
19671W        W35140   2.671   9.159   2.112  0.0862 -0.0640  0.1347
19672W        W35141  11.613   4.100  14.409 -0.0027 -0.0194 -0.2533
19673W        W35142  11.761   6.322   1.310 -0.2373 -0.1503  0.0382
19674W        W35143   1.176  10.952  15.272  0.1456  0.0571  0.0583
19675W        W35144   1.717  11.370  13.134  0.5427  0.3065 -0.2402
19676W        W35145   9.926  17.242   0.565 -0.0247  0.1900  0.0029
19677W        W35146   6.421   8.446   0.364 -0.3516 -0.1427  0.3180
19678W        W35147   3.943   1.413  10.979 -0.0412 -0.0651  0.1934
19679W        W35148   0.158   2.447  11.707 -0.2214 -0.2393  0.0335
19680W        W35149  17.769   9.050   3.412  0.0319 -0.0464 -0.0177
19681W        W35150   1.542  14.778  13.265 -0.0098 -0.1634  0.1853
19682W        W35151   6.194  18.783   2.861 -0.1020 -0.0509  0.3312
19683W        W35152   3.363   1.148  13.225 -0.2717  0.2867 -0.1046
19684W        W35153  15.071  14.033   1.581  0.2927 -0.1401  0.1587
19685W        W35154   0.783   7.974   3.627 -0.1216  0.2931 -0.3068
19686W        W35155  11.493   3.356  14.896 -0.0181 -0.2618  0.1489
19687W        W35156  14.155  10.748  14.525 -0.2640  0.1081 -0.2728
19688W        W35157  13.878  13.487   4.236  0.0863 -0.0411 -0.1275
19689W        W35158  11.131  12.158   1.178 -0.1051  0.1093  0.1014
19690W        W35159  17.955   5.213   4.175 -0.2450  0.1333 -0.2826
19691W        W35160   1.901  13.089  10.499 -0.0332 -0.4233 -0.2752
19692W        W35161  14.296   9.365   0.799 -0.2720 -0.1054 -0.0641
19693W        W35162   8.558  11.772   1.530  0.0222  0.0619  0.0061
19694W        W35163  13.707   1.608   5.261 -0.0614 -0.0144  0.3302
19695W        W35164   1.936   5.775  11.342  0.0375 -0.0483  0.0954
19696W        W35165  14.878  10.681  11.345  0.1806 -0.1657  0.3501
19697W        W35166   4.232   7.076   3.002  0.2604  0.0014  0.0016
19698W        W35167  10.584  10.955  13.973  0.0360  0.3276  0.3303
19699W        W35168   9.967  14.144  13.058 -0.3356  0.0405 -0.2352
19700W        W35169  14.283   3.737   3.628  0.3888 -0.1546  0.0975
19701W        W35170  13.867  17.479   5.396  0.1330 -0.1186 -0.0356
19702W        W35171  18.892  15.761  12.292  0.0920 -0.1487 -0.1093
19703W        W35172   1.530  17.140  10.739  0.1311 -0.0893  0.1965
19704W        W35173   6.154  11.662  14.726  0.2702  0.1527  0.1001
19705W        W35174   8.060  13.369  12.822 -0.0911 -0.1955  0.0311
19706W        W35175   1.761   2.367   6.034 -0.0752 -0.3537  0.0302
19707W        W35176  17.489  15.413   1.456  0.0107 -0.1592 -0.2587
19708W        W35177   4.149   2.275  12.973 -0.1271 -0.0579  0.1279
19709W        W35178  18.306  10.896  10.692  0.3094  0.1454 -0.0940
19710W        W35179   7.345   7.806   0.790 -0.3542  0.2158  0.0676
19711W        W35180  13.844   4.714   4.569 -0.1972  0.0980  0.2383
19712W        W35181   5.698   0.230  14.037  0.2255  0.1467  0.1828
19713W        W35182   6.784   2.103   2.014  0.2034  0.0573  0.0469
19714W        W35183  17.507  18.017  10.983  0.1801  0.2886 -0.0589
19715W        W35184  11.630   8.353  11.129 -0.1016  0.0513  0.1262
19716W        W35185   5.457   2.886   1.011  0.0540  0.1905 -0.0923
19717W        W35186  15.682   7.285   4.735  0.0254 -0.0815 -0.1265
19718W        W35187   0.051   8.869  10.724 -0.0721 -0.3886 -0.0075
19719W        W35188   4.914   6.433  13.282  0.2534 -0.0905  0.0979
19720W        W35189   4.550  18.420  14.663  0.5495  0.0577 -0.3796
19721W        W35190   9.040   7.372  11.305 -0.0830 -0.3764  0.1620
19722W        W35191   9.997  12.827   1.758 -0.2375  0.0307 -0.1334
19723W        W35192  10.802   9.846   0.747 -0.2680  0.0898  0.4840
19724W        W35193  12.849  14.006  14.222 -0.1551 -0.3435  0.2825
19725W        W35194  14.500   6.756   1.031 -0.5383  0.0616 -0.0409
19726W        W35195   9.779   6.757   5.196 -0.0520 -0.0050  0.3235
19727W        W35196  12.775  13.814  13.785 -0.0923 -0.0171  0.1777
19728W        W35197   6.650  15.427   1.852  0.2401 -0.0363 -0.0690
19729W        W35198   1.791   2.327  11.362 -0.0662  0.0526  0.0841
19730W        W35199   7.383   7.969   5.059 -0.0880  0.1234 -0.1031
19731W        W35200  16.797  12.734  10.087  0.2125 -0.3216  0.2341
19732W        W35201  13.338  15.521  15.240 -0.0546  0.1528  0.3207
19733W        W35202   6.026   0.335   4.198  0.1643 -0.1787  0.0345
19734W        W35203  10.172  10.810  12.337  0.1564 -0.2757  0.0828
19735W        W35204   7.866  11.385   3.772  0.1668 -0.1162 -0.0032
19736W        W35205   1.952   8.514   0.947  0.0955 -0.0990  0.4793
19737W        W35206   7.571   6.998   1.161 -0.0019  0.4737  0.1922
19738W        W35207  10.507   5.775  11.249  0.2822 -0.3030  0.1136
19739W        W35208  18.610  17.231   2.574  0.0270  0.0361 -0.2491
19740W        W35209  12.749  12.608  12.541 -0.0472  0.0217 -0.2493
19741W        W35210  15.512  16.258  12.675  0.0815  0.1555  0.0757
19742W        W35211  14.986   9.906   0.377  0.0497  0.1744  0.0400
19743W        W35212   8.583  10.014  12.665 -0.0626  0.1900  0.0943
19744W        W35213  15.154   6.276  12.771  0.0106 -0.0424  0.0023
19745W        W35214   0.165   6.663   0.488 -0.2635  0.1081  0.0050
19746W        W35215   6.827  11.048  14.996  0.0325 -0.0368 -0.0042
19747W        W35216   9.806   4.329  13.428 -0.0787  0.0724  0.0426
19748W        W35217   5.956  18.905  10.967  0.0441 -0.1799 -0.2032
19749W        W35218   9.702  18.283   5.291 -0.1224 -0.1492  0.1942
19750W        W35219   9.450   7.876  10.619 -0.0418 -0.0237  0.2418
19751W        W35220  13.000   7.597   1.135  0.0301 -0.2254  0.2150
19752W        W35221   4.361   9.774   3.363  0.0861  0.1505 -0.2125
19753W        W35222  14.216  17.377  10.876 -0.1081 -0.2234 -0.1008
19754W        W35223   8.729   9.411   2.794 -0.0616  0.0127  0.1181
19755W        W35224  13.524   4.730   2.338 -0.4787 -0.0287 -0.2864
19756W        W35225  10.196  16.847  15.158  0.2753  0.4612  0.2591
19757W        W35226  12.210  11.318  12.509  0.1421 -0.2772 -0.0066
19758W        W35227  17.874   4.465   2.905  0.0194  0.1846  0.0741
19759W        W35228   6.652  15.299   3.413 -0.3228 -0.0149 -0.2874
19760W        W35229  12.673  17.083   0.700 -0.0719  0.5208  0.2629
19761W        W35230   7.900   5.547   2.765  0.0266  0.5060 -0.1249
19762W        W35231  13.865   0.970  11.596  0.4283 -0.1210 -0.0731
19763W        W35232  14.061   5.483   0.086 -0.0025  0.2032 -0.0541
19764W        W35233   5.313  12.912  13.510  0.3196 -0.2408 -0.1991
19765W        W35234  15.897  13.055   3.450  0.0417 -0.2002  0.2901
19766W        W35235  14.117   1.168  13.743  0.1089 -0.0793 -0.4139
19767W        W35236   3.814  16.266   0.676  0.0891  0.1937 -0.2529
19768W        W35237  17.340  18.119  15.400 -0.0819 -0.3378  0.1390
19769W        W35238   0.300  12.378   0.738  0.0990  0.2422  0.1881
19770W        W35239  12.135   3.954  12.225  0.0171 -0.1198  0.0265
19771W        W35240  12.986   9.329  10.590 -0.1116  0.2542  0.0643
19772W        W35241  18.277   4.755  11.758  0.1843  0.1316  0.0652
19773W        W35242   7.881  15.961  14.154  0.0314 -0.3498 -0.2873
19774W        W35243   6.267  16.286   0.706 -0.0807  0.1494  0.0808
19775W        W35244  17.763  14.299  12.988  0.1836  0.0200 -0.1263
19776W        W35245  14.253   8.476   1.885  0.2052 -0.2154  0.2678
19777W        W35246   3.101   9.959   4.115  0.2031  0.2777  0.1651
19778W        W35247   0.497  13.643   4.643 -0.0466  0.2832 -0.3590
19779W        W35248  15.329   6.297   0.813 -0.0213  0.0613  0.0091
19780W        W35249  10.184  14.679  10.801 -0.0661 -0.1822  0.1036
19781W        W35250  12.479   9.794   1.592 -0.2024 -0.1499 -0.1273
19782W        W35251  14.920   5.583  15.058  0.2376 -0.2805 -0.3891
19783W        W35252  11.569   9.918   2.597 -0.0064  0.1578 -0.1471
19784W        W35253  13.444  15.019   0.455  0.2010 -0.2668 -0.0366
19785W        W35254   5.249  14.207   1.650  0.2070 -0.2518  0.1103
19786W        W35255   8.425   2.952   3.178  0.0198 -0.3419 -0.1069
19787W        W35256  10.343  15.231  14.063  0.1211  0.3019 -0.1003
19788W        W35257   0.229   3.890  12.593 -0.2350 -0.0867 -0.1871
19789W        W35258  16.994  13.571   3.916 -0.0755  0.0417  0.2361
19790W        W35259  13.827   5.528  11.160 -0.1641 -0.4477  0.1019
19791W        W35260   0.373   4.575  14.144  0.0159 -0.0379  0.0788
19792W        W35261  13.596  13.612  10.890  0.1731  0.0698  0.0568
19793W        W35262   0.549  18.136  11.816 -0.2347  0.0874 -0.3712
19794W        W35263   2.920   4.635   3.667 -0.4079  0.0257 -0.1983
19795W        W35264   4.515   4.488  12.475  0.0351 -0.1502  0.0454
19796W        W35265  17.932  14.271   1.173 -0.2094  0.1751 -0.1332
19797W        W35266   0.151   2.438   4.880 -0.4119  0.0348  0.0381
19798W        W35267  16.132   8.807   4.958 -0.0801  0.0323 -0.1612
19799W        W35268  16.423   9.529  12.775 -0.3171  0.4165 -0.0911
19800W        W35269   1.422  12.599   3.624  0.0341  0.2317 -0.2119
19801W        W35270  15.372   2.926   2.865 -0.1336 -0.1845 -0.2149
19802W        W35271   4.868   8.711  12.772  0.3549 -0.1193  0.0591
19803W        W35272  14.904   2.434   1.430 -0.0452  0.0744  0.0572
19804W        W35273   7.240  16.539   5.172 -0.1820  0.1619  0.2874
19805W        W35274   4.888   1.348  12.508  0.0463 -0.2474  0.2665
19806W        W35275  11.844   3.371   1.016 -0.4011 -0.0209 -0.1226
19807W        W35276   0.404  10.628   1.376  0.0800 -0.1872  0.1349
19808W        W35277   2.430  14.922  11.871 -0.1153 -0.0041  0.0153
19809W        W35278   2.325   6.137   0.714  0.6878  0.2065 -0.1667
19810W        W35279   3.512  11.073   9.484 -0.3225  0.1996  0.0935
19811W        W35280  11.091   8.774   3.181  0.0421  0.1334 -0.1267
19812W        W35281  10.659   0.828  10.199  0.4383 -0.3502 -0.1071
19813W        W35282   1.828  17.746   1.905 -0.0205  0.0741 -0.2345
19814W        W35283   4.234  14.960  14.903 -0.1951 -0.1025  0.1702
19815W        W35284  10.871  13.620   0.341  0.2092 -0.0812  0.2188
19816W        W35285   9.127  12.441   1.000  0.2127  0.2717 -0.0208
19817W        W35286  16.356   5.807   3.554 -0.3304  0.1102 -0.3710
19818W        W35287   7.512   7.246   4.683  0.0823 -0.0059 -0.1956
19819W        W35288   1.780  15.705   1.297  0.3443  0.2704 -0.0822
19820W        W35289   7.884  13.430  12.355 -0.1551 -0.4037 -0.0046
19821W        W35290   6.614   7.716   1.102  0.0413 -0.1935  0.0314
19822W        W35291   5.473   8.999  14.195 -0.2439 -0.3213  0.5803
19823W        W35292  16.476   9.516  13.303  0.0436  0.1732  0.1208
19824W        W35293   7.005   1.223  12.924  0.1936 -0.0715 -0.1720
19825W        W35294   2.864  18.011   3.169  0.1668 -0.0156 -0.3816
19826W        W35295   6.710  11.625   1.301 -0.0395 -0.2129  0.1126
19827W        W35296   3.004   4.295   4.735 -0.2351 -0.0963 -0.2097
19828W        W35297  17.714   0.338   5.091  0.1047  0.0684  0.3371
19829W        W35298  12.865   2.920  10.539 -0.2707  0.1477 -0.1725
19830W        W35299  18.874  12.418  11.821 -0.1977  0.1297 -0.1226
19831W        W35300   4.675  10.311  13.024  0.6623  0.2318 -0.1911
19832W        W35301   0.835  11.195  10.736  0.2828 -0.0004 -0.1816
19833W        W35302  17.569   0.045   2.741 -0.1038  0.2445  0.4488
19834W        W35303  13.411  13.287  15.375  0.0660 -0.2151 -0.0989
19835W        W35304  14.510   3.165  15.061  0.0639  0.0390 -0.0303
19836W        W35305  13.202  16.049   5.024  0.1470  0.1961  0.0053
19837W        W35306   3.923   2.358   5.742 -0.1359 -0.2336 -0.0257
19838W        W35307  18.442  16.712   1.361  0.0488 -0.0836  0.1485
19839W        W35308   0.829   0.357  12.430 -0.0478  0.1718  0.2686
19840W        W35309   7.268   5.492  14.347  0.1128 -0.1624  0.0288
19841W        W35310   4.420   6.501  12.508 -0.0129 -0.1100  0.1086
19842W        W35311  16.784  11.369   4.656  0.1067 -0.0341  0.0246
19843W        W35312  16.667  14.291  13.953  0.0729 -0.0462  0.0104
19844W        W35313  16.889   1.330   0.160 -0.2863 -0.6050 -0.2804
19845W        W35314  12.043   8.577  15.365  0.1635 -0.0857 -0.0175
19846W        W35315  11.643   8.365  14.621 -0.3402 -0.1316  0.5075
19847W        W35316   2.937   4.004  13.077 -0.2946  0.3507  0.3103
19848W        W35317   5.934   9.770  11.324 -0.0945 -0.0579  0.1787
19849W        W35318   4.916   2.723  14.028  0.2751  0.1191 -0.1252
19850W        W35319   6.073   2.122   2.604 -0.3379  0.4225  0.1487
19851W        W35320  10.598  13.226  12.656 -0.0568  0.0687 -0.0572
19852W        W35321  16.433   1.221   1.781  0.1264 -0.0330 -0.1881
19853W        W35322  14.470  11.528  11.162  0.0639 -0.1970 -0.0803
19854W        W35323  17.808   1.665   0.568 -0.2134  0.2903 -0.0777
19855W        W35324  13.536   8.063  11.860  0.4048  0.0263 -0.0355
19856W        W35325   7.295   3.351  12.140  0.2648  0.1124  0.1405
19857W        W35326  16.441  12.334   1.818  0.0599 -0.1143 -0.0732
19858W        W35327   7.509   5.764   1.872 -0.1361  0.3026 -0.1491
19859W        W35328  17.706   5.699  11.454  0.1646 -0.1159  0.1429
19860W        W35329  12.535  13.949  12.408  0.0159 -0.0510  0.0474
19861W        W35330   2.184  11.182  13.947 -0.0561  0.2081 -0.0991
19862W        W35331  13.861   5.588   2.825 -0.2724  0.0028  0.0767
19863W        W35332   1.271  16.070  14.091 -0.2912  0.4308 -0.2067
19864W        W35333  14.191  15.436  10.872  0.0179 -0.0955  0.0081
19865W        W35334  18.382  15.934  13.845 -0.2905 -0.1671  0.3850
19866W        W35335  17.912  11.592   1.496  0.2245 -0.1407 -0.0024
19867W        W35336  10.667   0.975  11.947 -0.0567 -0.0769 -0.1132
19868W        W35337   9.637   1.262  10.685 -0.0121  0.1953 -0.0571
19869W        W35338   1.157  15.207  13.356 -0.2422  0.0624 -0.1517
19870W        W35339  17.804   4.512  11.856 -0.1351  0.1522 -0.1887
19871W        W35340  17.416   9.980  10.769 -0.1831 -0.3635  0.1596
19872W        W35341  17.927  12.702   1.624  0.0358 -0.0064 -0.2102
19873W        W35342  17.061  12.695   2.423  0.0518 -0.0439  0.1521
19874W        W35343   7.731  16.270   0.500  0.0436  0.1012  0.3418
19875W        W35344   7.274  17.780   0.646 -0.1667 -0.0883 -0.1349
19876W        W35345  14.238  10.895   3.570  0.0245 -0.0749 -0.2894
19877W        W35346   0.070   8.079  12.944 -0.2861  0.0298  0.0636
19878W        W35347   9.192  15.368  12.636  0.1651  0.1372  0.1064
19879W        W35348  12.960  18.299  15.197 -0.0068 -0.0338  0.0632
19880W        W35349   9.562   0.603   5.470  0.0822 -0.2413  0.1309
19881W        W35350  14.279   7.101   4.704 -0.0972 -0.0135 -0.0725
19882W        W35351  13.712  18.051   1.199  0.1603 -0.1496  0.0309
19883W        W35352  15.096   4.270   2.759  0.0024 -0.1619  0.0468
19884W        W35353   6.224   6.832   5.709  0.2777 -0.0503 -0.2397
19885W        W35354   3.766   6.337   5.114  0.1093 -0.2376 -0.0178
19886W        W35355   0.464  17.845   2.289 -0.0089  0.0194 -0.0502
19887W        W35356   4.303  11.894  14.367 -0.1627 -0.1794 -0.3949
19888W        W35357   1.112  13.233   4.340 -0.1712  0.3292 -0.1106
19889W        W35358  12.116  15.400   2.031  0.0425  0.0789 -0.2808
19890W        W35359   1.684   3.467   2.741 -0.0695  0.0261 -0.1900
19891W        W35360   7.117  15.745  13.251 -0.5651  0.1721  0.1748
19892W        W35361   6.549  17.556  13.818  0.0957  0.3563  0.0575
19893W        W35362  16.643   4.717   2.189  0.1397 -0.0040  0.1403
19894W        W35363  10.304  15.150  12.844  0.2808 -0.0517 -0.2237
19895W        W35364  14.370   8.865  12.656  0.0119  0.3395  0.2371
19896W        W35365  15.583  10.369  14.127 -0.1570 -0.0163  0.0492
19897W        W35366   3.952   7.834  11.078 -0.2588 -0.0788  0.0393
19898W        W35367  14.623  10.895  13.713  0.0625  0.2943 -0.3367
19899W        W35368  10.930  13.293   5.051 -0.1256 -0.1815 -0.5848
19900W        W35369  17.701   7.558  12.356 -0.0463 -0.1148 -0.0357
19901W        W35370  18.002   9.987   4.089 -0.1995  0.0903 -0.2643
19902W        W35371   9.432  12.918  13.507  0.2815  0.0487  0.2108
19903W        W35372   1.352  14.227   9.708 -0.0199  0.1258  0.0670
19904W        W35373  16.808  14.752   1.131 -0.1673  0.1866 -0.2434
19905W        W35374  17.592   9.677   0.679 -0.0247  0.1495  0.0903
19906W        W35375  14.123   5.129  11.284  0.2471 -0.0490 -0.1987
19907W        W35376  16.457   7.458  14.413  0.0484  0.2048 -0.1308
19908W        W35377   4.025   8.554   3.665  0.0007  0.0997  0.0568
19909W        W35378   0.155   7.423   4.964 -0.2673  0.0983 -0.2830
19910W        W35379   4.307  12.245   2.788  0.1197  0.3363 -0.1955
19911W        W35380   5.738   4.505  12.872  0.2010 -0.1907 -0.4098
19912W        W35381   3.097   1.695  13.467 -0.1355  0.1660 -0.3353
19913W        W35382   3.480  11.383   5.179 -0.0012 -0.0556  0.3416
19914W        W35383   0.814  11.853  12.637  0.0414  0.0000 -0.0113
19915W        W35384  14.821  13.515  12.787  0.0473  0.0772  0.1739
19916W        W35385  15.279  14.536   0.812 -0.0937  0.2939 -0.0754
19917W        W35386  14.467  13.783   2.807 -0.0190 -0.0505 -0.1545
19918W        W35387  15.245  10.741   1.887 -0.0365 -0.1763 -0.3608
19919W        W35388  15.382  15.849   0.274  0.1330  0.0700 -0.2290
19920W        W35389   8.361   1.497  11.510 -0.0014 -0.1202 -0.0720
19921W        W35390   3.882   3.743   4.645  0.0979 -0.0424  0.0734
19922W        W35391   5.195  13.949   3.961 -0.0698 -0.1828  0.4010
19923W        W35392   8.796   0.965   2.629  0.1326  0.4670 -0.2844
19924W        W35393   9.290  10.920  15.178 -0.0980 -0.1693 -0.0101
19925W        W35394   5.792  15.044   2.198 -0.0677  0.0306 -0.1034
19926W        W35395   0.876   3.261   5.544  0.4111 -0.3227  0.4462
19927W        W35396   4.600  12.648   1.678 -0.0204 -0.2128  0.3152
19928W        W35397  10.231  17.296  14.340  0.1016 -0.4334  0.0215
19929W        W35398  14.078   8.377  15.168 -0.1581 -0.4174 -0.1540
19930W        W35399  16.180   2.907   3.450 -0.1429  0.0044  0.0628
19931W        W35400   1.060  12.972   1.048 -0.0654 -0.0204 -0.2370
19932W        W35401   7.654  13.649   5.370  0.3750  0.1110  0.2193
19933W        W35402   4.364   4.747   3.227 -0.0417 -0.1245  0.1309
19934W        W35403  12.294   8.008   1.683  0.2570 -0.1187  0.2892
19935W        W35404   4.658  12.283   0.529  0.0637  0.0526  0.4961
19936W        W35405   1.702   0.288   0.268  0.2930  0.2417 -0.4334
19937W        W35406   1.778   2.174  12.309 -0.4973 -0.0685 -0.1602
19938W        W35407  10.237   2.134  12.316 -0.0102 -0.1567  0.1100
19939W        W35408  16.274  12.326  14.717 -0.3452  0.0041 -0.3480
19940W        W35409  11.555   9.115  13.582  0.1536 -0.2397 -0.1480
19941W        W35410   4.899  13.819  13.359  0.0328 -0.0350  0.1865
19942W        W35411  10.260   9.922   3.903  0.0589  0.0111  0.3764
19943W        W35412  18.684  10.007  12.241  0.1132 -0.3803 -0.1530
19944W        W35413  10.515   3.208  11.949 -0.1855 -0.0426  0.0812
19945W        W35414   0.774  13.633   4.154  0.2821  0.2759  0.1030
19946W        W35415   9.961  18.592  14.235 -0.2782  0.2306  0.1402
19947W        W35416  18.444   2.252   2.832  0.0684  0.0244 -0.4135
19948W        W35417   0.894   5.956  15.323  0.0143 -0.0023 -0.1000
19949W        W35418  13.678   3.655  14.561  0.0349  0.0142  0.1230
19950W        W35419   0.450  17.178   3.165  0.0675 -0.3062  0.0210
19951W        W35420   7.554   4.472  13.742  0.1923 -0.1855 -0.0699
19952W        W35421   5.110   7.232   5.747  0.0936  0.0450  0.1068
19953W        W35422   2.014  15.378  12.721 -0.1292  0.1687  0.0637
19954W        W35423   9.030  10.689   2.498  0.2528 -0.1177  0.1661
19955W        W35424  12.357  17.553   3.153  0.1543  0.1231  0.1311
19956W        W35425  14.649  14.079   5.209 -0.1320 -0.0902  0.0581
19957W        W35426   2.024   4.161   3.842  0.0106 -0.2119 -0.1009
19958W        W35427  14.021   5.662   3.607 -0.3665 -0.2472 -0.2814
19959W        W35428  18.510   1.353  10.268  0.0038  0.0994  0.1457
19960W        W35429  13.206  15.965  10.621  0.2369 -0.0396 -0.0085
19961W        W35430   7.619  15.714  13.363 -0.1085  0.0484  0.2668
19962W        W35431   0.080  14.099   0.038  0.1173  0.1045 -0.0175
19963W        W35432   2.699   3.095  12.038 -0.3854 -0.2583 -0.0036
19964W        W35433   0.368   0.023   9.663  0.2086  0.0702 -0.2865
19965W        W35434  12.099  15.666  12.732 -0.1731 -0.1012  0.2731
19966W        W35435  18.737  11.407   1.845  0.0647 -0.1921  0.0048
19967W        W35436  10.406   5.751   2.111  0.1761 -0.0951 -0.2422
19968W        W35437   6.140   7.822   3.848 -0.2139 -0.1172  0.0884
19969W        W35438   2.500   6.853  12.927 -0.1868  0.0315 -0.0833
19970W        W35439   8.032  17.379  10.893  0.1354  0.0932 -0.1459
19971W        W35440  14.606   7.889   1.936  0.4489  0.1284  0.0689
19972W        W35441   0.044   7.100  15.025 -0.0712  0.1836  0.3182
19973W        W35442   3.736   6.130  13.481 -0.2281  0.0375 -0.1522
19974W        W35443  18.357  13.482   3.839 -0.2687 -0.0591  0.1282
19975W        W35444   0.169   1.917   3.111 -0.1519  0.3267 -0.1646
19976W        W35445   4.059   2.719  10.899  0.0767 -0.1587  0.1785
19977W        W35446  18.234   7.501  10.862  0.0398 -0.0644  0.5431
19978W        W35447  11.834  17.533   4.099  0.0145 -0.0795 -0.0819
19979W        W35448   2.124   3.739  12.503 -0.0311  0.1918  0.0068
19980W        W35449   0.552  17.531  10.311 -0.0114 -0.1301 -0.0551
19981W        W35450   0.733  17.557   1.257 -0.1950  0.1389 -0.1345
19982W        W35451  13.792   6.760  11.763 -0.1409 -0.1261  0.0447
19983W        W35452   8.178   6.725   2.822  0.2474  0.1732 -0.0897
19984W        W35453   7.995  15.151   1.930  0.0896 -0.2606 -0.2228
19985W        W35454  16.423  14.250   0.150  0.2787 -0.0444  0.0678
19986W        W35455  18.830   5.753  15.012  0.0897 -0.3110  0.0849
19987W        W35456   7.598  15.030  10.512  0.1311 -0.0878  0.1684
19988W        W35457   4.156   8.534   0.629  0.0484  0.3513 -0.1110
19989W        W35458  16.164   1.339   4.413  0.0407  0.0398  0.0383
19990W        W35459  12.279   9.123  14.698 -0.2848 -0.2058  0.2109
19991W        W35460   6.553   9.273  13.121 -0.0993 -0.2390  0.0048
19992W        W35461   7.753  14.642  11.453  0.0420 -0.0149  0.0986
19993W        W35462   5.746   7.046   4.123  0.1393 -0.0044  0.0701
19994W        W35463  15.468   2.916  12.664 -0.0123  0.0849 -0.1697
19995W        W35464  18.655   4.603   3.864  0.1243  0.0876  0.0921
19996W        W35465   1.063   4.834   2.448 -0.0920 -0.3579 -0.0348
19997W        W35466  12.592   9.018  13.935 -0.0791  0.1443 -0.0684
19998W        W35467   0.003   7.489   2.050  0.1525 -0.0735  0.0718
19999W        W35468  18.763  18.368  15.251  0.2158 -0.1825  0.1110
20000W        W35469   6.782   5.395  14.252 -0.3186 -0.0400  0.1326
20001W        W35470  15.137  17.628  12.462  0.0073 -0.3139 -0.3185
20002W        W35471  15.014   7.158  12.646 -0.0672 -0.1140 -0.0864
20003W        W35472   2.203  17.843  15.085  0.1826 -0.0983 -0.0399
20004W        W35473   7.330   9.549  12.731 -0.0197  0.1649  0.0606
20005W        W35474   9.439   9.926   0.620  0.1889 -0.0167  0.4239
20006W        W35475   3.404  18.414   0.482 -0.0318  0.1128 -0.0753
20007W        W35476   6.316  10.624  14.656 -0.2154  0.0988 -0.2179
20008W        W35477   8.439  12.284   2.272 -0.2364 -0.1544 -0.0698
20009W        W35478   6.620  16.353   4.199  0.1003 -0.0870 -0.2382
20010W        W35479   6.710   0.399  13.990 -0.1146 -0.0178  0.0396
20011W        W35480   8.035  12.694   1.395  0.0039  0.0016  0.4680
20012W        W35481  10.950   3.119  13.345  0.2717 -0.5180  0.0913
20013W        W35482  10.788   5.210   0.373  0.1830  0.1777 -0.3680
20014W        W35483  18.878  11.559  13.959 -0.0539 -0.2047  0.4008
20015W        W35484   9.267   1.931   4.335  0.0533 -0.2952 -0.2257
20016W        W35485   6.142   4.669   4.398  0.2860 -0.0685 -0.1568
20017W        W35486  10.528   7.621  12.002 -0.0930  0.2725  0.2814
20018W        W35487  12.383   5.800   1.307 -0.2634 -0.2965  0.1381
20019W        W35488   6.128  16.342  11.350  0.0219  0.2893 -0.3340
20020W        W35489  16.697  12.621   3.158  0.3282  0.3453 -0.1715
20021W        W35490   2.004   6.952  13.072 -0.1557  0.0595  0.3401
20022W        W35491   8.930  13.607  13.065  0.2484  0.1749 -0.0751
20023W        W35492  17.439  12.072  12.275 -0.0867 -0.1414  0.0653
20024W        W35493   4.160   5.141   4.193 -0.0710  0.1335  0.2087
20025W        W35494  17.973  13.624   2.851  0.0183  0.0311 -0.2293
20026W        W35495  17.042   3.813  14.489  0.2138  0.1897 -0.0452
20027W        W35496  10.540  17.980  11.761 -0.1712 -0.0006  0.0634
20028W        W35497  17.649   3.140   4.044 -0.0040  0.0614  0.0708
20029W        W35498  17.810  12.419  11.534 -0.1862  0.3439 -0.0406
20030W        W35499  12.208   4.626   1.827  0.2165  0.0978 -0.2167
20031W        W35500   8.239   9.844  11.385 -0.1406  0.0777  0.2603
20032W        W35501   0.505  10.271  15.058  0.1791 -0.1334  0.0052
20033W        W35502  12.664   2.869   9.233 -0.3373  0.0460 -0.1493
20034W        W35503  12.060   2.461   0.158  0.1912  0.2635  0.0731
20035W        W35504   7.947  15.451  10.594 -0.0238 -0.0419  0.0098
20036W        W35505  16.955   1.803   0.596 -0.2948 -0.1733 -0.4365
20037W        W35506   9.836   8.339   2.205  0.0898  0.0758  0.1672
20038W        W35507  14.752  16.510  14.849  0.0728  0.3001 -0.2801
20039W        W35508  16.057  11.304  14.758 -0.0848 -0.0118 -0.0138
20040W        W35509   0.286  17.630   3.622  0.1719 -0.0302  0.0560
20041W        W35510  17.019  16.177   1.138  0.1987 -0.5677 -0.0283
20042W        W35511   2.636  10.366  10.095  0.1219 -0.1124  0.3662
20043W        W35512   2.423   5.636  15.492  0.0258 -0.0650  0.0372
20044W        W35513  12.107   4.070   3.311  0.1517 -0.1288  0.0429
20045W        W35514  13.017  12.577   2.470 -0.2091  0.2520  0.0095
20046W        W35515   0.186  15.112   0.510  0.0046  0.0064 -0.1083
20047W        W35516  10.616   9.563   1.104 -0.0482  0.1994 -0.0258
20048W        W35517   9.614   9.792   1.213  0.0559  0.2565  0.2163
20049W        W35518   8.678  10.843   1.908  0.0538  0.2144  0.2458
20050W        W35519   0.902   3.340   9.832 -0.0272  0.1773 -0.0013
20051W        W35520  11.195   1.124   9.268 -0.0936 -0.0915  0.0881
20052W        W35521   6.379  10.290   1.249 -0.1634  0.0470  0.3416
20053W        W35522   9.735   6.802  11.529 -0.2056 -0.0430 -0.1575
20054W        W35523  18.114   6.669  15.462 -0.1296  0.3692  0.0635
20055W        W35524  13.414  11.277   2.768  0.4135  0.1900 -0.0734
20056W        W35525   5.931  12.518  14.995 -0.3464  0.0166  0.2690
20057W        W35526   7.590   8.207   3.582 -0.2562  0.3530 -0.2734
20058W        W35527  18.855  11.872  12.026  0.0978  0.4934 -0.1456
20059W        W35528   7.204   2.133  11.960  0.0640  0.0909  0.0745
20060W        W35529  14.495   0.484   4.661  0.1785 -0.0791  0.0304
20061W        W35530  10.073  15.523   4.955  0.1099 -0.0413 -0.2687
20062W        W35531  18.133  17.169  10.525 -0.0152  0.2968  0.0404
20063W        W35532  18.472  10.382  12.519  0.0744 -0.0645 -0.1725
20064W        W35533  14.126  17.203   5.703 -0.4191  0.0854 -0.4837
20065W        W35534   1.279   8.977  12.447  0.3679 -0.1792 -0.1198
20066W        W35535  15.727   8.956   0.996 -0.0791  0.0636 -0.0118
20067W        W35536  16.041  12.665   4.535 -0.0069  0.2255 -0.3210
20068W        W35537   9.324   6.453   0.583 -0.1131 -0.0582  0.0098
20069W        W35538   7.905  10.707   0.369  0.1125 -0.2147  0.0052
20070W        W35539  11.019   7.737   5.287 -0.2132 -0.3265  0.0361
20071W        W35540   5.929  12.185  15.402 -0.0315 -0.0921 -0.1925
20072W        W35541   0.635  15.825   2.087  0.1394  0.2944 -0.3038
20073W        W35542  17.044  10.468  14.289  0.0505 -0.1857  0.0928
20074W        W35543   9.856  14.146   5.321 -0.1768  0.0743 -0.0060
20075W        W35544  18.702   1.507   3.316 -0.1278  0.0938  0.0207
20076W        W35545   2.026  12.078  11.462  0.3671 -0.2885  0.0690
20077W        W35546  12.193   4.521   1.300  0.3512 -0.1382  0.2027
20078W        W35547  15.404   3.643  11.933 -0.2560 -0.0079 -0.4090
20079W        W35548   1.030   6.320   3.868 -0.0152  0.2163 -0.2827
20080W        W35549  13.017  18.082   4.292 -0.0887 -0.1207  0.1968
20081W        W35550   0.215  17.610  12.558 -0.0753  0.1779 -0.1174
20082W        W35551  15.317   4.763   1.618 -0.3029 -0.2243  0.2366
20083W        W35552   4.794  17.506  13.468 -0.1940 -0.3924 -0.0542
20084W        W35553   9.227  11.730   4.402 -0.1891  0.2989  0.3877
20085W        W35554   6.132  13.852  15.460 -0.1488 -0.1889 -0.0498
20086W        W35555  12.982  17.011   5.820  0.3586 -0.3133  0.0648
20087W        W35556   7.839  14.710   0.775  0.1589  0.3989  0.1314
20088W        W35557   5.876   3.313   2.277  0.0563 -0.1413 -0.0713
20089W        W35558  17.371   8.091   2.744  0.1471 -0.3968 -0.0349
20090W        W35559   0.382   0.730   3.795  0.1696  0.3183  0.0064
20091W        W35560  17.440  18.600   4.113  0.0524  0.0731 -0.0534
20092W        W35561  16.360   5.736  13.591  0.0634  0.1981  0.0417
20093W        W35562   6.744  16.297  12.438  0.2182 -0.3251 -0.2886
20094W        W35563   8.734   5.410   2.722  0.3552  0.0603 -0.2515
20095W        W35564   5.197   4.974  11.337 -0.0456  0.0654  0.1994
20096W        W35565  17.478  13.390  10.673  0.2684  0.2729 -0.1203
20097W        W35566   8.753   8.571  14.171  0.3523  0.2342  0.0810
20098W        W35567  16.301   6.097  12.884 -0.1072 -0.0956  0.0270
20099W        W35568   7.856  16.620  13.072  0.2722  0.3547 -0.0955
20100W        W35569   3.428   8.824   0.458  0.0864  0.3685  0.5933
20101W        W35570   3.094  10.741  14.095 -0.2985 -0.1293  0.2863
20102W        W35571  10.951   7.411  11.777 -0.2655  0.1215  0.2582
20103W        W35572  10.466  14.695   0.397 -0.3199  0.0446  0.1445
20104W        W35573   1.108   7.842   6.054 -0.0135 -0.3213 -0.0346
20105W        W35574  16.010  15.674  15.152  0.3042 -0.2491 -0.1417
20106W        W35575  15.216   0.048   3.349 -0.0028  0.1507 -0.2001
20107W        W35576   7.952  17.902   4.169  0.1690 -0.1307 -0.0297
20108W        W35577  13.472  13.491   4.554  0.1002 -0.0146 -0.3799
20109W        W35578  10.368   6.328   1.170 -0.4492 -0.1712  0.0965
20110W        W35579  13.423   9.997  15.233 -0.1081 -0.0930  0.0347
20111W        W35580  16.699   6.239   2.261 -0.0547 -0.0634 -0.0946
20112W        W35581   4.448  18.763   3.739  0.2083 -0.1476 -0.1776
20113W        W35582   1.397  12.506   1.368  0.2076 -0.0605  0.2026
20114W        W35583   4.130  15.783   0.901  0.0453 -0.0305 -0.2258
20115W        W35584  12.885   0.155   0.252 -0.1460 -0.1499  0.0647
20116W        W35585  14.682  10.188   0.055 -0.1930 -0.0185  0.0002
20117W        W35586  18.709   9.237   0.211  0.0657  0.0042 -0.0108
20118W        W35587   3.147   6.374   0.595 -0.4748 -0.1101 -0.0988
20119W        W35588   4.794  18.840   4.083  0.2050 -0.0699 -0.2800
20120W        W35589   6.848  10.772   3.605  0.0906 -0.0138 -0.1910
20121W        W35590   7.611   4.537   4.118 -0.1842 -0.0456 -0.1110
20122W        W35591   0.791   8.332   4.779 -0.1751 -0.1994  0.3425
20123W        W35592   8.682  14.198  12.271 -0.4797  0.2720 -0.0993
20124W        W35593  10.658   2.018   3.186  0.1559  0.0814  0.0407
20125W        W35594  10.289  17.802   6.009 -0.0730  0.0239 -0.1626
20126W        W35595   2.138   3.741  10.694 -0.0047 -0.1172  0.4588
20127W        W35596   5.765  17.012   5.415  0.0299 -0.1517 -0.0055
20128W        W35597  12.516  12.436   0.579  0.2146  0.1003  0.1191
20129W        W35598   5.455  13.679  11.334  0.0100 -0.0276 -0.2195
20130W        W35599   6.657   1.298  10.601  0.2503  0.0103  0.5365
20131W        W35600   0.101   1.608   6.025 -0.0154  0.1304 -0.0277
20132W        W35601  18.046  12.446   2.103 -0.1939  0.0268 -0.0337
20133W        W35602   5.384  17.934   0.029 -0.2077  0.0196  0.0626
20134W        W35603   2.664  13.913   2.762  0.0065  0.2508  0.2402
20135W        W35604   3.198  13.894  10.605 -0.0571  0.0645 -0.3314
20136W        W35605  11.488   8.741  13.217 -0.1740  0.5339  0.0919
20137W        W35606   3.188   1.969   1.827  0.0198  0.0284 -0.1884
20138W        W35607  13.379   1.435   1.837 -0.1511  0.0032  0.0385
20139W        W35608  12.056   2.704  13.735  0.3799  0.0201 -0.5617
20140W        W35609   3.104  17.067  11.975  0.2049 -0.1490  0.0397
20141W        W35610  17.941   9.673   1.787 -0.2138  0.2705  0.0942
20142W        W35611   9.294   8.187   4.749  0.1612 -0.0637 -0.0873
20143W        W35612   8.974   6.717   9.991  0.0858 -0.2577  0.3817
20144W        W35613   0.172   6.234   0.755  0.3621  0.0745  0.0065
20145W        W35614  15.247   5.960   5.646 -0.0715 -0.2602  0.0737
20146W        W35615   3.115  12.095  11.467  0.1951  0.1110 -0.0503
20147W        W35616   6.667   0.084  12.242  0.2764 -0.0765 -0.2728
20148W        W35617  12.564  16.759   3.666  0.0687  0.2736 -0.3083
20149W        W35618   3.919  17.970  14.884  0.1800  0.3272  0.2804
20150W        W35619   8.924   7.008  10.986 -0.1139  0.0304 -0.1716
20151W        W35620   8.068   4.747   1.599  0.4796  0.0880 -0.0616
20152W        W35621   0.099   8.947   4.427  0.0657 -0.1164  0.1339
20153W        W35622  15.366  14.700   2.160  0.2179 -0.1887 -0.0510
20154W        W35623  13.289   4.118   3.503 -0.0628  0.2602  0.2361
20155W        W35624   2.430  15.131   2.984  0.0574 -0.4129 -0.0126
20156W        W35625   8.508   4.512   1.627  0.0033 -0.0360  0.1396
20157W        W35626  10.693  10.607  12.479 -0.1634  0.3034  0.2379
20158W        W35627   7.388   0.968  13.745 -0.1015 -0.0228 -0.5424
20159W        W35628   3.586  10.368   0.947 -0.0730 -0.2304 -0.3115
20160W        W35629  17.164  15.716   3.657  0.1675 -0.1310 -0.0252
20161W        W35630  12.962   1.206   3.897 -0.1008 -0.0842  0.2570
20162W        W35631   9.708  11.700   0.646 -0.2320 -0.1653  0.0436
20163W        W35632   4.000   8.328   4.870 -0.3349  0.0832  0.3765
20164W        W35633  15.062  18.174  13.972 -0.2575 -0.0306  0.0529
20165W        W35634  13.611   1.283  13.976 -0.4793 -0.3901 -0.1819
20166W        W35635  10.149   5.347  11.981  0.0316  0.0690  0.1068
20167W        W35636  18.133   8.986   0.560  0.0332  0.1473  0.0812
20168W        W35637  10.982   6.857   1.109 -0.0988  0.0056  0.0436
20169W        W35638  17.683   7.249   2.965  0.2487 -0.1694  0.4653
20170W        W35639   4.732   0.474   0.578 -0.1726  0.1628  0.5079
20171W        W35640   3.214  13.602  12.540  0.0548  0.2725 -0.0322
20172W        W35641   7.898  17.764  13.785 -0.1412 -0.4679  0.0390
20173W        W35642  11.446   9.241   9.651 -0.0555  0.2482 -0.2828
20174W        W35643   1.946   9.541  11.122 -0.0771  0.1849  0.1779
20175W        W35644   7.481  15.338  13.038 -0.0282 -0.1408 -0.0391
20176W        W35645   1.025   4.726   1.696 -0.0942  0.0442  0.3897
20177W        W35646   3.102  10.321  12.359  0.1767  0.0413 -0.1005
20178W        W35647   4.073   5.937  15.069  0.2104 -0.1952 -0.2368
20179W        W35648   2.561   5.799   3.120  0.0157 -0.4070 -0.1441
20180W        W35649  10.921  13.464  15.366 -0.0641 -0.1003  0.0898
20181W        W35650  11.749  16.204   4.068 -0.2773 -0.0129 -0.2697
20182W        W35651  10.942   3.737  13.407  0.0491 -0.2839  0.3805
20183W        W35652   0.436  12.892   4.978 -0.2536 -0.0024 -0.3257
20184W        W35653   9.318   9.814  13.640  0.1631 -0.0155  0.0276
20185W        W35654  10.109   5.917   3.379  0.0016 -0.0120  0.3433
20186W        W35655   6.589  14.922   1.763 -0.1441  0.0189 -0.2111
20187W        W35656   5.225  17.984  13.419 -0.0923 -0.0771  0.0359
20188W        W35657   6.342   3.205  12.631 -0.2709  0.1506  0.3465
20189W        W35658   8.308  11.193  10.461 -0.0173  0.4513  0.0192
20190W        W35659  13.181   2.582  12.355 -0.1205  0.0283  0.2740
20191W        W35660  14.763  16.454   3.904  0.1749  0.1017 -0.0905
20192W        W35661  10.359   7.399  13.440  0.0832  0.2420 -0.0961
20193W        W35662   5.802  15.331  13.748  0.0840  0.2407  0.0194
20194W        W35663   5.315   1.678   2.265  0.0702  0.2912 -0.1666
20195W        W35664   7.086   7.198  11.009 -0.0079 -0.0617 -0.0309
20196W        W35665   7.468   9.562  11.318 -0.1450  0.0793 -0.3329
20197W        W35666  11.470   2.486  12.731 -0.6118 -0.0410  0.0561
20198W        W35667   5.241   4.247   1.141 -0.0782  0.0310  0.3262
20199W        W35668  10.691   1.215  10.970 -0.1541 -0.0271  0.2086
20200W        W35669   5.053   9.920   4.438  0.0059 -0.0048 -0.0681
20201W        W35670   4.773   4.390   2.325  0.2460  0.2263  0.0541
20202W        W35671  17.947   8.078  14.187 -0.0134  0.1501 -0.2592
20203W        W35672  17.247  12.142   4.204  0.1703 -0.0437 -0.1112
20204W        W35673   1.711   3.269   1.595 -0.2248 -0.1739  0.2657
20205W        W35674   4.618   9.739   1.310 -0.5388  0.0343  0.2209
20206W        W35675  17.402   6.392  15.287 -0.0222 -0.2435 -0.0183
20207W        W35676  17.397   1.332  12.526  0.2174 -0.1275  0.0415
20208W        W35677  15.922  16.005   3.944  0.1855  0.0820 -0.2093
20209W        W35678  14.046   6.862   0.461 -0.1725 -0.3048 -0.0818
20210W        W35679  15.751   6.644   3.284  0.1128  0.1475 -0.4567
20211W        W35680  10.964  14.111   2.534 -0.4026 -0.2007 -0.0323
20212W        W35681  13.312  13.683   3.555  0.1332 -0.1059 -0.0297
20213W        W35682  14.697   2.876  14.176 -0.2197 -0.1015 -0.2629
20214W        W35683  13.006   2.293   0.064 -0.1879  0.4674  0.1020
20215W        W35684  16.159   1.575  15.131 -0.0596  0.1216 -0.1250
20216W        W35685  16.551   5.364   4.643  0.1182  0.1004 -0.0597
20217W        W35686  14.915  16.719  13.290  0.0182 -0.1212 -0.0517
20218W        W35687   4.182   5.864   4.763 -0.1715 -0.0143  0.2431
20219W        W35688   9.999  13.509   0.470  0.0340 -0.2641 -0.0348
20220W        W35689   4.972   4.013  11.194  0.0875 -0.0350 -0.1309
20221W        W35690  13.539  11.126  11.023 -0.3791  0.1897 -0.0837
20222W        W35691   9.678   9.142   3.873 -0.0659 -0.4743 -0.2849
20223W        W35692  13.292   3.390  14.900 -0.0246 -0.0174  0.0528
20224W        W35693   7.598   3.820   3.567 -0.4032 -0.0285 -0.1630
20225W        W35694   3.011  14.290   2.988 -0.3503  0.1487 -0.1838
20226W        W35695  18.133   4.670  12.241 -0.1148 -0.0643  0.0156
20227W        W35696  15.147  14.243  10.755  0.2943  0.0317  0.0817
20228W        W35697   3.343  14.402  10.798  0.1616  0.1292 -0.0876
20229W        W35698   6.471  14.171  13.654  0.1573  0.1321 -0.2681
20230W        W35699   4.947   5.955   4.370 -0.2397  0.3347  0.2905
20231W        W35700   3.694  16.833  14.349  0.2063  0.0812  0.6650
20232W        W35701   7.156  13.231   4.882  0.1812 -0.1018 -0.2614
20233W        W35702  14.611   1.217  13.791 -0.2364 -0.0968 -0.0281
20234W        W35703   9.300   6.137  10.687 -0.0440 -0.0757  0.1401
20235W        W35704  13.179   6.857   3.002  0.1641  0.1321  0.0265
20236W        W35705  11.247   2.122   3.218 -0.1274 -0.2144  0.2244
20237W        W35706   6.561   9.922  10.672 -0.0756 -0.3386  0.1064
20238W        W35707   6.704  18.442  10.506  0.2088 -0.1192  0.0713
20239W        W35708  18.660   5.353   4.727  0.1012  0.0056 -0.4516
20240W        W35709   5.813   5.747   1.276 -0.1356  0.1038  0.3140
20241W        W35710  18.091   2.961   3.924 -0.0301  0.0227 -0.1216
20242W        W35711   9.299  15.202   4.515  0.1611  0.1166  0.0968
20243W        W35712  10.140   9.997   2.511 -0.1779 -0.2749  0.2729
20244W        W35713  10.949   8.748  15.353  0.3956  0.1719  0.1222
20245W        W35714  16.611   1.652  14.858 -0.0499 -0.2987  0.4107
20246W        W35715  11.576   6.944  13.653 -0.0243  0.0340  0.2182
20247W        W35716  11.222  12.456   5.646  0.0360  0.1378  0.0989
20248W        W35717   2.846   5.614   5.354  0.2252 -0.2771  0.0908
20249W        W35718   5.212  17.946  12.911  0.0928  0.1307  0.2385
20250W        W35719  17.086  11.254  11.731 -0.2238 -0.1863 -0.0121
20251W        W35720  18.494   6.469  14.438 -0.1030  0.1763 -0.0592
20252W        W35721   0.126   0.805  10.299  0.2467  0.3004 -0.0206
20253W        W35722  10.085  10.355  14.376  0.1017 -0.2063  0.0096
20254W        W35723   3.780   7.853  11.824  0.1308  0.2154  0.3026
20255W        W35724   0.114  18.203   2.319  0.5651 -0.5047 -0.2354
20256W        W35725  10.865  14.132  14.420  0.1361  0.0550 -0.0253
20257W        W35726  17.240  10.895  15.321  0.3738  0.0315  0.2267
20258W        W35727   6.967   7.399  13.652 -0.2352 -0.0927 -0.1175
20259W        W35728   5.013  12.192   0.943 -0.0240  0.2957  0.0042
20260W        W35729   3.252   7.591  13.720  0.1155 -0.1092  0.0971
20261W        W35730  13.665   0.226   4.220 -0.0369  0.2718  0.1380
20262W        W35731   8.578   9.398  11.325  0.0636  0.2083  0.0739
20263W        W35732  17.320   2.819   1.061 -0.0554  0.0582  0.2524
20264W        W35733   6.301  15.362   0.990 -0.0201 -0.1020  0.0720
20265W        W35734  14.073   5.885  12.855 -0.0117  0.1381 -0.0416
20266W        W35735   2.832  16.779   0.050 -0.2759  0.4827 -0.1820
20267W        W35736   3.274   9.637  11.549  0.1211 -0.0863  0.2563
20268W        W35737   8.203   2.736   1.091 -0.0942  0.2253 -0.0147
20269W        W35738   3.047  18.461   1.328 -0.2652  0.1559 -0.2776
20270W        W35739   6.540   4.510  10.042 -0.0037  0.0415 -0.1105
20271W        W35740   7.626   0.445   0.612  0.0857  0.0037  0.0113
20272W        W35741  13.658  13.044   0.792  0.1831  0.0879  0.0847
20273W        W35742  12.024   7.265   4.428 -0.0963  0.1142  0.3686
20274W        W35743   8.696   3.140   3.698  0.2628  0.2420 -0.2286
20275W        W35744  11.224  10.651   3.731 -0.1987  0.0008  0.1389
20276W        W35745   7.669   7.919   4.618  0.1623 -0.0232  0.0139
20277W        W35746   4.857  18.809  10.607 -0.3740 -0.0492  0.1966
20278W        W35747   9.689  12.342  12.810  0.0555  0.0895 -0.2060
20279W        W35748  10.185   0.032  15.421  0.1590 -0.0759 -0.2230
20280W        W35749  10.247  10.112  13.763 -0.0658  0.1230  0.1592
20281W        W35750   4.171  18.070  12.340  0.1729  0.3162 -0.1590
20282W        W35751  12.652  13.785   1.037  0.1197  0.0808  0.3860
20283W        W35752  14.543  13.191  14.003 -0.0292 -0.2416 -0.1178
20284W        W35753   1.013  17.645   1.656  0.1978 -0.1106  0.2099
20285W        W35754   9.198  14.167   4.047  0.0732 -0.0118  0.0194
20286W        W35755  13.443   3.839   2.983  0.1115 -0.3042  0.1467
20287W        W35756   4.275  13.746  14.468 -0.1212  0.2076 -0.0755
20288W        W35757  15.774  16.711  14.791  0.1559  0.1773  0.2031
20289W        W35758  16.267   3.367  10.905  0.1258  0.4162  0.1551
20290W        W35759   8.411  15.120   0.052 -0.1888  0.0460  0.0404
20291W        W35760   9.751  13.874   4.754  0.4178 -0.1964  0.0854
20292W        W35761   2.562  16.341  12.692  0.0678  0.4760 -0.1784
20293W        W35762   1.546   2.111  14.975 -0.0599  0.0029 -0.0065
20294W        W35763   0.045  14.381  11.238 -0.1844  0.3817 -0.0137
20295W        W35764   4.021  14.840   3.754 -0.0420  0.3195 -0.0168
20296W        W35765   6.913  11.414  13.912 -0.3185 -0.0153 -0.1016
20297W        W35766  15.189  12.872  11.432  0.1810  0.2643 -0.5295
20298W        W35767  18.814  18.847   5.619 -0.0131 -0.0239  0.1972
20299W        W35768  14.567   3.988  10.845  0.1030 -0.1852 -0.1502
20300W        W35769   6.655   7.310  12.508  0.1822  0.2918  0.0978
20301W        W35770   4.826  17.594  12.995 -0.2954 -0.3677 -0.0787
20302W        W35771   1.133   1.359  14.031 -0.0514 -0.3288  0.1156
20303W        W35772  10.835   2.641   3.724 -0.0774 -0.0384  0.0818
20304W        W35773   3.442  17.313  13.569  0.1567 -0.0455 -0.4131
20305W        W35774  12.479   1.413  15.468  0.2934 -0.0228  0.2895
20306W        W35775  10.402   3.876  13.471  0.1165  0.2642  0.2106
20307W        W35776   7.850   3.532  10.843 -0.2441  0.1008 -0.2607
20308W        W35777   8.364  16.025  13.869 -0.0027  0.0529  0.1669
20309W        W35778  14.954  14.031  13.757 -0.1103  0.0450  0.2868
20310W        W35779  10.809  16.112  15.412 -0.1416  0.0293 -0.0256
20311W        W35780   4.594  16.910  13.491 -0.2107 -0.1855  0.1524
20312W        W35781  12.117   6.430  12.236  0.2974 -0.0590 -0.1396
20313W        W35782   0.074  11.520   4.535  0.0653  0.0105  0.2742
20314W        W35783   2.998  17.125  13.698  0.0983  0.1594  0.0664
20315W        W35784   0.012  17.816   5.315  0.0763 -0.0049 -0.3581
20316W        W35785   8.170  16.892   0.426 -0.1421 -0.0054 -0.1751
20317W        W35786  17.686  11.269   0.597  0.1094  0.0125 -0.0835
20318W        W35787   9.231  16.360   5.250 -0.1272  0.0744  0.0336
20319W        W35788  10.572  13.318   1.266 -0.0494 -0.1527  0.0855
20320W        W35789   6.264   0.749  11.524  0.2472 -0.0396 -0.0754
20321W        W35790   6.431   6.487  13.928  0.1701  0.0628 -0.0989
20322W        W35791   6.909   1.989   3.136  0.2974  0.1281  0.1231
20323W        W35792  11.712  16.403   2.454  0.1281  0.2537  0.1035
20324W        W35793   6.241  15.137  13.449 -0.0198 -0.1242 -0.1228
20325W        W35794   6.730   6.031  13.222 -0.0853  0.2137  0.0816
20326W        W35795   4.316   1.593   4.396  0.3649 -0.0160 -0.1369
20327W        W35796   5.264   4.114  13.709 -0.2215  0.0125 -0.1395
20328W        W35797   6.884  13.222   4.351 -0.0871  0.0926  0.0947
20329W        W35798  17.944  15.108  15.387  0.3451  0.0923 -0.0006
20330W        W35799   6.857  14.471   0.933 -0.0836 -0.1337 -0.0127
20331W        W35800  12.762   8.378   3.370  0.2958  0.0437 -0.1340
20332W        W35801  13.826  10.336  15.360  0.0379  0.2557 -0.1186
20333W        W35802   4.815   6.850   3.861 -0.3111 -0.1296  0.0489
20334W        W35803  13.616   0.499  12.426 -0.0978 -0.1685 -0.2624
20335W        W35804  18.456   1.488  15.188  0.1885 -0.0387 -0.3241
20336W        W35805   7.033  15.780  10.381  0.0927  0.0237 -0.2506
20337W        W35806   4.403  17.577  12.496  0.1201  0.2001 -0.1035
20338W        W35807   4.063   9.579  12.077  0.1139  0.0112 -0.0737
20339W        W35808  10.368  11.785  14.403  0.0495 -0.0232  0.1866
20340W        W35809   8.706   3.133  12.370  0.2315 -0.1009 -0.0572
20341W        W35810  17.802  16.491  13.939 -0.2246 -0.1161 -0.0303
20342W        W35811   0.306   9.500  11.167 -0.0913 -0.3726 -0.3992
20343W        W35812  17.172   7.325  10.459 -0.3367 -0.0958 -0.1105
20344W        W35813  11.368   8.509   0.924 -0.2297  0.1106 -0.0963
20345W        W35814  12.238  11.534  11.880  0.0686  0.1498  0.0080
20346W        W35815  18.165  18.395  15.162  0.0904  0.1569  0.2212
20347W        W35816  18.029   8.283  14.659  0.1178  0.2448 -0.1418
20348W        W35817   4.375  11.541   4.740  0.0001 -0.2180 -0.0005
20349W        W35818   2.954   6.472   3.967 -0.0815 -0.1802 -0.1392
20350W        W35819   0.615   0.560  15.077 -0.0128 -0.0345  0.3578
20351W        W35820   7.337   2.634   4.603  0.2102 -0.0236 -0.0424
20352W        W35821  18.518   8.583   3.037  0.0155  0.0985  0.2267
20353W        W35822  15.548  15.857   1.311 -0.0050 -0.2319 -0.1265
20354W        W35823  13.102  17.433   2.408 -0.1288  0.0073  0.1197
20355W        W35824  18.347   9.251   5.446 -0.1191  0.0468  0.0281
20356W        W35825  17.515   8.745   1.634 -0.0205 -0.0791 -0.0580
20357W        W35826   9.211   6.689  11.387 -0.2366  0.2357  0.1224
20358W        W35827  17.495  14.867   4.831  0.3728 -0.0703  0.0718
20359W        W35828   6.285  15.003  15.028  0.0941  0.1370  0.0715
20360W        W35829   9.405   6.963  14.888  0.0177 -0.3975  0.2430
20361W        W35830   6.548   9.950  14.704  0.0835  0.0502  0.1667
20362W        W35831   8.961   5.437   4.188  0.2876 -0.0476  0.4135
20363W        W35832   5.804  18.280  11.225  0.2459  0.1284 -0.3800
20364W        W35833   3.108   9.496   3.111  0.0116  0.0021 -0.2298
20365W        W35834  10.365   4.258  13.182  0.1412  0.1390 -0.1502
20366W        W35835   9.772   8.093  14.340 -0.1822 -0.0268 -0.2343
20367W        W35836   2.124   1.801   4.769 -0.1422 -0.1406 -0.1804
20368W        W35837  12.005  17.248   3.268 -0.0589  0.0520  0.3099
20369W        W35838   4.807  11.031  13.595  0.2507  0.2288 -0.3375
20370W        W35839   4.733   0.039   4.556 -0.0274  0.4587  0.0522
20371W        W35840  11.628  12.184  12.351  0.1004  0.0686  0.1456
20372W        W35841   8.688   5.704  13.086 -0.1600  0.0672 -0.0743
20373W        W35842  16.493   1.460  11.067 -0.2083 -0.0365  0.0521
20374W        W35843  15.524   4.085   3.558  0.0302  0.3485 -0.1405
20375W        W35844   2.318   0.834  13.465  0.1231  0.2157 -0.0464
20376W        W35845   4.222   4.880   5.631 -0.1144  0.2427 -0.3928
20377W        W35846   1.760   8.814  14.627  0.1342  0.1336  0.0161
20378W        W35847  18.322   9.948   0.322 -0.1048  0.0205  0.0601
20379W        W35848   0.145  13.649  15.364  0.2620 -0.1608  0.2143
20380W        W35849   4.092  16.583  11.922 -0.1649  0.1390 -0.0294
20381W        W35850   5.666   1.014   0.836 -0.1270 -0.1104  0.0030
20382W        W35851  15.586   8.203   4.179  0.0030 -0.0822 -0.1569
20383W        W35852   6.344   6.488  11.130 -0.1775  0.0620 -0.0035
20384W        W35853   9.081   3.344   4.138  0.0629  0.1937 -0.0010
20385W        W35854  18.230  18.684  12.504  0.1275 -0.0433 -0.1489
20386W        W35855   2.573  10.607  10.927  0.1270 -0.2573 -0.1681
20387W        W35856  18.428  14.166   1.442  0.0185 -0.0167 -0.0730
20388W        W35857  18.936   0.111   0.142 -0.0478  0.1336 -0.1994
20389W        W35858   2.267   4.778  14.785  0.0302  0.1655  0.2428
20390W        W35859   6.057   3.951  11.349 -0.2114 -0.0327  0.1831
20391W        W35860   8.764  14.741   2.046  0.1939 -0.2479  0.1447
20392W        W35861  10.852   5.775  15.490  0.2554  0.0301 -0.2591
20393W        W35862  10.150   8.736   4.797 -0.0524  0.5103  0.0171
20394W        W35863  18.216  14.503   0.096 -0.0642  0.2593  0.0710
20395W        W35864   2.814  15.105   9.583 -0.0052 -0.1080  0.5775
20396W        W35865   0.841  15.513   0.201  0.0355 -0.2381 -0.2293
20397W        W35866   6.839  11.931  13.643  0.3267 -0.0372 -0.0797
20398W        W35867   1.367  16.520   1.807 -0.0777 -0.0088 -0.0555
20399W        W35868   4.121   8.129   1.568 -0.1137  0.0316  0.0433
20400W        W35869   4.957  16.295  14.427  0.0346 -0.3902  0.2746
20401W        W35870   2.697  18.550  15.393 -0.2292  0.0744  0.1851
20402W        W35871  12.049   8.543  14.894  0.3437 -0.2511  0.1400
20403W        W35872  10.455   2.134  12.772  0.0343 -0.1508 -0.0509
20404W        W35873   2.955  12.012   4.926 -0.0971 -0.0347 -0.0649
20405W        W35874  12.899   5.655   3.258  0.2250 -0.2563  0.3090
20406W        W35875  18.664  13.287  15.466  0.3571  0.1697  0.0959
20407W        W35876   2.816   8.687   4.150  0.0167 -0.1583  0.0414
20408W        W35877  11.281   4.357  13.849  0.1425 -0.1471  0.0012
20409W        W35878   1.834   8.300  14.545  0.1668 -0.1544  0.4290
20410W        W35879  15.175  18.590   2.801  0.4419 -0.0099  0.0654
20411W        W35880   7.846   2.724  10.560  0.2534 -0.3284 -0.0130
20412W        W35881  17.497   8.964  13.031 -0.0463 -0.5244 -0.0002
20413W        W35882  11.258   3.691   0.560 -0.2697  0.1361 -0.2836
20414W        W35883   3.953   1.846  13.218  0.1233  0.1116 -0.0424
20415W        W35884   9.107  16.117  12.878 -0.0523 -0.1482  0.0654
20416W        W35885  16.602   0.073  14.680  0.0455 -0.2619 -0.0428
20417W        W35886   5.852   5.840   2.751 -0.1047  0.0161 -0.2295
20418W        W35887   8.670   1.056   2.158  0.0111 -0.1517  0.1528
20419W        W35888   9.708  12.927  15.416  0.1194 -0.3238  0.0925
20420W        W35889   2.659  10.734   4.482 -0.1485 -0.3320  0.1479
20421W        W35890   9.797  10.075   5.691 -0.2570  0.1155  0.0254
20422W        W35891   5.140   8.657   3.651  0.1566  0.0400  0.0920
20423W        W35892  11.729   2.656  13.291 -0.2190  0.2181  0.0104
20424W        W35893   7.969  14.837  13.226 -0.0663 -0.0206 -0.3006
20425W        W35894  15.461  15.728   3.071 -0.2863  0.0771 -0.0692
20426W        W35895  18.514  12.131  14.533  0.0143 -0.0467  0.3121
20427W        W35896  15.442   9.980   1.341 -0.3217 -0.0301 -0.1543
20428W        W35897  12.230   1.531  10.589  0.1695 -0.0383 -0.2312
20429W        W35898  12.716   2.666  11.001  0.0692 -0.0999  0.1877
20430W        W35899   0.868   6.432  15.354 -0.1408  0.3449  0.0679
20431W        W35900   5.487   9.393  13.664  0.3487 -0.3749 -0.1754
20432W        W35901   5.880   8.852   4.315  0.0045  0.1488 -0.0206
20433W        W35902   9.055  10.067  14.739 -0.0975 -0.0787  0.2902
20434W        W35903  13.396   5.789   1.079 -0.0880 -0.0142  0.2552
20435W        W35904   5.238  10.875  12.619 -0.2748 -0.0358  0.3257
20436W        W35905   3.277   1.816  14.423 -0.0590  0.0569  0.0576
20437W        W35906  15.707  12.806   0.319  0.0279  0.1780  0.0952
20438W        W35907   5.747   0.130   2.688  0.2356  0.0817 -0.0179
20439W        W35908  13.628   0.644   1.648 -0.1411  0.1416  0.3480
20440W        W35909  14.064  18.667   0.920 -0.2902 -0.2992  0.0978
20441W        W35910   8.301   4.803   5.068  0.2343  0.2030 -0.1156
20442W        W35911   9.204   3.537   2.845 -0.2955  0.2420 -0.0704
20443W        W35912   1.246   6.935   4.586 -0.0400 -0.0491 -0.0091
20444W        W35913  16.297  10.801  11.795  0.1016 -0.0400 -0.1521
20445W        W35914  18.264   6.582  15.006 -0.0023 -0.1401 -0.1709
20446W        W35915  12.492   8.526  10.948  0.1442  0.0621  0.2179
20447W        W35916  10.774  15.297  12.887  0.2639  0.3802 -0.4274
20448W        W35917  13.450   1.270   9.772  0.1350 -0.1816 -0.1868
20449W        W35918   3.824  16.636  11.025  0.3385  0.0991  0.3011
20450W        W35919  13.788  14.332   0.089  0.0790 -0.0069 -0.2655
20451W        W35920   4.742   4.674   5.906  0.1278 -0.1273 -0.0194
20452W        W35921   8.056   5.227   5.071 -0.0040  0.0743 -0.0159
20453W        W35922  14.129   4.050  11.768 -0.5069  0.1954 -0.3006
20454W        W35923  12.185   6.233   1.550 -0.0559  0.1094  0.0369
20455W        W35924   4.397   4.024  11.402  0.0248 -0.0624 -0.4457
20456W        W35925  10.707   3.046  11.233 -0.0831  0.0095  0.2589
20457W        W35926   5.143  15.592   1.659  0.0844  0.1158  0.0839
20458W        W35927   8.968   9.626   3.594 -0.0587  0.2751  0.2526
20459W        W35928  12.897   1.784  14.284  0.1869 -0.0852 -0.1378
20460W        W35929   9.503  11.906   2.824  0.1530  0.1109 -0.2895
20461W        W35930  14.222  13.433  13.705 -0.4068  0.4091 -0.3429
20462W        W35931  10.449   1.769   0.626 -0.1872 -0.2806 -0.1622
20463W        W35932   0.835  13.499   1.136  0.1269  0.1007 -0.1512
20464W        W35933   7.339  10.146   2.748 -0.1808  0.5844 -0.2821
20465W        W35934   9.956  17.533   0.111 -0.0285  0.0298  0.0258
20466W        W35935   7.595   0.566  13.975 -0.0063  0.0271 -0.2323
20467W        W35936   7.557  15.592  13.911 -0.5792  0.2063  0.3591
20468W        W35937   4.029   9.845  12.711 -0.1557  0.2610  0.1344
20469W        W35938  16.407   8.192   5.710 -0.1230  0.0342  0.2308
20470W        W35939   8.482   0.384  12.141 -0.1493  0.1378  0.0672
20471W        W35940  13.686  18.502  12.299  0.2480  0.3068 -0.0852
20472W        W35941   4.087   0.972  12.418  0.0647  0.0277 -0.0604
20473W        W35942   2.704  10.403  12.820  0.0154  0.3300  0.2490
20474W        W35943  16.226  10.999  14.381 -0.1155 -0.2499 -0.0159
20475W        W35944  17.265  12.535  10.191  0.3388  0.1667  0.0523
20476W        W35945   8.472  11.634   4.540  0.3056 -0.0175  0.2764
20477W        W35946  13.042  18.081  14.011 -0.0094  0.2272 -0.1055
20478W        W35947  13.592   5.840  12.802  0.2152  0.2971 -0.0023
20479W        W35948   0.692  12.438   4.920  0.3309  0.1546 -0.0577
20480W        W35949  12.667  13.025   4.865  0.1018  0.2902  0.0429
20481W        W35950   6.825   3.511  14.399  0.3445 -0.2179 -0.0726
20482W        W35951  15.493  15.514   0.957  0.1436  0.1551  0.1456
20483W        W35952  10.574   2.473  13.757  0.0741  0.2108 -0.1483
20484W        W35953   3.977   3.740  13.658 -0.2106  0.1349 -0.0478
20485W        W35954  16.636  17.916  14.326  0.1400 -0.0307 -0.2005
20486W        W35955  17.983   6.482  12.353  0.0242 -0.2067 -0.3468
20487W        W35956   9.764   7.888  12.489 -0.0652 -0.0242  0.1651
20488W        W35957  15.089   4.768  10.922 -0.0435  0.1205  0.1697
20489W        W35958   9.122  13.123   6.539  0.2011  0.1111  0.3476
20490W        W35959   7.658  14.250   4.329 -0.2369  0.1581 -0.1132
20491W        W35960   5.045   8.242  13.734  0.2239  0.0339 -0.3297
20492W        W35961  14.912   8.615  10.247  0.0010 -0.0555  0.0948
20493W        W35962   7.607   8.227  12.176  0.2373  0.0968 -0.1516
20494W        W35963   4.785   3.026  13.132 -0.2380 -0.0903  0.2900
20495W        W35964   2.978  10.348   4.398  0.1501  0.0837 -0.3750
20496W        W35965   1.963   1.147  13.252 -0.0275 -0.1389  0.4413
20497W        W35966  18.750   8.555  12.636 -0.0284 -0.2788  0.0485
20498W        W35967  13.258  10.392   1.268 -0.0009 -0.1859  0.1780
20499W        W35968  12.280   7.154   5.590 -0.4396  0.0267  0.1071
20500W        W35969  16.568  11.098   2.817  0.0337  0.1057 -0.1451
20501W        W35970  12.192  12.455   4.597 -0.0243 -0.0646  0.0658
20502W        W35971   8.274   2.294  14.354  0.0284  0.0165 -0.1418
20503W        W35972   5.921   1.343  13.334 -0.2673 -0.0633 -0.0069
20504W        W35973   4.271   6.600   9.589  0.2139  0.0012  0.0876
20505W        W35974  11.740  11.333  10.969  0.0393  0.0118 -0.3873
20506W        W35975  11.992  14.246   4.229  0.6044  0.3329 -0.1827
20507W        W35976   1.811   3.143  13.329  0.2326 -0.1541 -0.2126
20508W        W35977   0.527  11.857   4.448  0.1727 -0.1641  0.0882
20509W        W35978  18.165   6.355  12.883 -0.1410  0.2502  0.2943
20510W        W35979   8.006   5.829   0.463 -0.0308  0.0569 -0.2423
20511W        W35980  14.819   2.163   2.698 -0.1843  0.0419  0.4114
20512W        W35981   6.223   3.757  10.085  0.2130  0.3673 -0.0410
20513W        W35982   3.203  18.348  11.046  0.0413  0.1778 -0.0121
20514W        W35983   2.507   8.665  12.571 -0.0147  0.2323 -0.4384
20515W        W35984  13.486   0.745   0.592 -0.1765  0.1399 -0.0409
20516W        W35985   5.135  10.360  12.306 -0.0596 -0.0715 -0.0128
20517W        W35986  11.576   9.197  13.024 -0.1099  0.0281 -0.0912
20518W        W35987   5.332   7.263  12.200 -0.1278  0.1298 -0.0783
20519W        W35988   4.494  11.452  13.661  0.2062 -0.0981 -0.0437
20520W        W35989   1.522  11.542   0.074  0.0165  0.0019  0.3077
20521W        W35990  11.801  14.968   5.043  0.0171  0.4714  0.1799
20522W        W35991   5.951   0.349  13.342 -0.1899 -0.1971 -0.1158
20523W        W35992   4.070  18.674   1.198 -0.2939 -0.1488 -0.4449
20524W        W35993   4.119   0.871   2.343 -0.1025 -0.1615 -0.4097
20525W        W35994  17.411   0.799  14.585 -0.2616 -0.0111  0.1545
20526W        W35995   1.575  11.144  10.018  0.1779 -0.0019 -0.4782
20527W        W35996  18.104   2.509  13.904 -0.0874 -0.0447 -0.0328
20528W        W35997  17.575  12.672   3.185  0.0617  0.0914  0.2115
20529W        W35998   2.151  14.929   0.857  0.2848 -0.1324  0.2056
20530W        W35999   3.576  11.206  12.344  0.3517 -0.0705  0.1214
20531W        W36000   2.396   5.721  14.496  0.1719 -0.3954  0.2574
20532W        W36001  11.039   1.778   2.309  0.2679 -0.1492  0.0298
20533W        W36002   1.555   2.870  11.595 -0.0600  0.0243  0.2006
20534W        W36003   4.561  11.308   2.610 -0.0437  0.0966 -0.0816
20535W        W36004   3.050   1.834  11.712 -0.0468  0.0698  0.3002
20536W        W36005   0.762   2.538   2.195 -0.0462 -0.1061  0.1270
20537W        W36006  16.074   5.916   9.724 -0.0347  0.0380 -0.2340
20538W        W36007   2.898   1.913  14.078  0.5243  0.4320  0.1022
20539W        W36008  17.433   6.342  13.411  0.3708  0.0695  0.0602
20540W        W36009   5.645   3.680  11.652  0.3452  0.0640 -0.1447
20541W        W36010   5.895   7.880  11.350 -0.1101  0.1221  0.0043
20542W        W36011   1.523  13.169  10.882  0.1238  0.3023  0.1912
20543W        W36012   8.384  15.961  14.432  0.3099  0.3265  0.0160
20544W        W36013   1.560   1.603  15.006 -0.1743 -0.0230  0.0383
20545W        W36014   9.466   8.080  14.743 -0.2908 -0.1752  0.0032
20546W        W36015  16.990   6.939  12.344  0.0478  0.2422 -0.2079
20547W        W36016  15.633  14.660   1.722 -0.0310 -0.2642  0.0312
20548W        W36017   7.641   6.888   2.786  0.1176  0.1001 -0.0033
20549W        W36018  16.992  15.105   4.158 -0.0361 -0.0825 -0.3678
20550W        W36019  15.838  11.517  12.121  0.2889 -0.3308  0.4606
20551W        W36020   6.143   6.893  14.139  0.0961  0.2925  0.1951
20552W        W36021   0.669   7.855   5.904  0.4945  0.0843 -0.0846
20553W        W36022  14.230   3.508  15.282  0.0038  0.2413  0.0659
20554W        W36023   3.739  10.481  15.319  0.3578  0.2624  0.1646
20555W        W36024  17.743  16.427   3.456 -0.0666  0.2892 -0.2911
20556W        W36025   4.606  17.298   1.877 -0.1406  0.1203  0.0207
20557W        W36026  17.255   3.661  13.640 -0.0394  0.0510  0.2370
20558W        W36027  16.169   3.104  15.217 -0.1431 -0.0803 -0.3025
20559W        W36028   8.969  14.301  14.355 -0.3937  0.2162 -0.2129
20560W        W36029  12.271  13.939  13.809 -0.0313  0.2043  0.1993
20561W        W36030   9.336   6.644   1.019  0.1300 -0.1288 -0.0243
20562W        W36031  12.543   7.715  12.537  0.0614  0.2520 -0.0621
20563W        W36032   9.983   0.028  12.556  0.2128 -0.1423 -0.0118
20564W        W36033  14.164  11.764   4.141 -0.0272 -0.2311 -0.1269
20565W        W36034  17.291  11.198   0.992  0.0468 -0.0226  0.3567
20566W        W36035  12.092  11.653   0.991  0.2479 -0.0278 -0.1033
20567W        W36036  12.271   5.136  11.838  0.0989 -0.2343 -0.2057
20568W        W36037  10.505  10.005  10.301  0.1956 -0.0921 -0.0375
20569W        W36038  13.418  10.843   0.470  0.0160  0.0291  0.2005
20570W        W36039  11.374  14.996   2.355  0.1507 -0.0564 -0.0680
20571W        W36040   0.581   2.426   0.942  0.0835 -0.0940  0.0922
20572W        W36041  12.698   8.844  12.711  0.1864  0.2691 -0.1520
20573W        W36042   0.670   9.646   4.480 -0.1225  0.2310 -0.1162
20574W        W36043  14.215  17.767   1.223 -0.2545 -0.1933 -0.2632
20575W        W36044  18.340  11.870   5.468  0.2654 -0.0947 -0.2924
20576W        W36045  10.269  12.178   4.211  0.1295  0.3184 -0.1909
20577W        W36046   6.680  15.895  11.445 -0.2560 -0.1899  0.1747
20578W        W36047   3.444   4.031   4.432 -0.4466 -0.0839  0.0424
20579W        W36048   1.908   8.942   5.379 -0.0048  0.0542  0.0614
20580W        W36049  17.854  17.088  14.862 -0.2157 -0.0227  0.0721
20581W        W36050  11.479   2.009  14.618 -0.3264 -0.1973  0.0790
20582W        W36051   6.969  14.880  14.111  0.1089  0.1134  0.2929
20583W        W36052  13.036   8.651   0.335  0.1055  0.0285 -0.0027
20584W        W36053   7.066  18.621   4.525  0.0052 -0.2856 -0.0923
20585W        W36054  16.636  15.663  12.529  0.2546  0.3636 -0.1433
20586W        W36055  15.952  16.577   5.154 -0.0679  0.2565  0.0460
20587W        W36056   5.085  15.615  11.675  0.1004 -0.0602 -0.1228
20588W        W36057   0.093  16.071  15.308 -0.3281 -0.1296  0.1056
20589W        W36058  17.330   8.230   3.332 -0.0275 -0.0721 -0.1662
20590W        W36059   5.217  12.181   4.465  0.3882 -0.2518 -0.2364
20591W        W36060  14.039   2.854  13.346 -0.1240 -0.1237 -0.2062
20592W        W36061   1.834   8.497  13.120  0.1489 -0.0117 -0.2550
20593W        W36062  15.391  11.548  11.698 -0.0622  0.0371  0.1974
20594W        W36063   3.710   7.048  14.538 -0.1077  0.1600  0.3109
20595W        W36064   5.903   1.574   5.857  0.3561 -0.1514  0.0639
20596W        W36065  10.659   4.402  11.205  0.2543 -0.1367  0.1612
20597W        W36066   5.723  10.581   9.798 -0.0360 -0.2147  0.2786
20598W        W36067   8.720  13.536   2.447 -0.0146  0.2262  0.1466
20599W        W36068   4.653   1.892  11.652  0.0779  0.0153  0.0709
20600W        W36069   6.326  16.989  13.533  0.0228 -0.2031  0.1097
20601W        W36070   3.196   4.184   2.526  0.0407 -0.0382 -0.0221
20602W        W36071   6.807   0.987   3.341  0.0700 -0.1124 -0.0143
20603W        W36072  15.600   8.424   2.293 -0.1643 -0.1283 -0.0834
20604W        W36073  10.383   7.701   0.627 -0.1433  0.3410 -0.0649
20605W        W36074  15.374   2.800  14.593 -0.0168 -0.3934  0.4328
20606W        W36075  13.115  18.639   5.445 -0.0447  0.1360 -0.0642
20607W        W36076  10.092   9.207   1.987  0.0695  0.2645 -0.0837
20608W        W36077   6.517  11.883  10.978  0.0672  0.1053 -0.3786
20609W        W36078  16.057  14.600  14.690 -0.0835  0.1644 -0.0785
20610W        W36079  17.390   5.577   4.107  0.1731 -0.3959 -0.0422
20611W        W36080   0.353  16.595   4.965  0.0583  0.0115 -0.0953
20612W        W36081  15.732   5.903  11.770  0.3023 -0.0919 -0.0854
20613W        W36082  18.734  13.242   3.015 -0.0425 -0.1328  0.0244
20614W        W36083   6.619   9.936  13.395 -0.2954  0.1791  0.0004
20615W        W36084   2.296   3.505   0.642 -0.2459  0.3548 -0.2213
20616W        W36085   5.661   5.756  15.502  0.2228  0.0287  0.3601
20617W        W36086  14.597  10.426   3.804  0.1418 -0.0090  0.2274
20618W        W36087   5.061   8.249   0.360 -0.0864  0.1195  0.0696
20619W        W36088   9.878  11.355  12.359 -0.1333  0.2307 -0.1259
20620W        W36089   2.805   6.706  12.030 -0.0583 -0.0510  0.0034
20621W        W36090   5.328   0.934  12.938 -0.0284 -0.0160 -0.0299
20622W        W36091  16.379  10.910   0.166 -0.0047  0.1605 -0.3737
20623W        W36092  16.142   7.970  13.049  0.0375  0.1099 -0.1399
20624W        W36093   2.474   6.234   1.619 -0.0301 -0.0516 -0.0439
20625W        W36094   2.997   9.923   2.346  0.0181 -0.0496 -0.1072
20626W        W36095  17.996  17.596   3.377  0.0196 -0.1969  0.0973
20627W        W36096   1.204  13.423  13.027  0.2099  0.0857 -0.0422
20628W        W36097   2.235   1.139   0.291  0.0964 -0.1833 -0.1983
20629W        W36098  17.059   9.981  14.506  0.1970 -0.0120 -0.1642
20630W        W36099   9.523  11.619   1.777 -0.0938  0.1646  0.0033
20631W        W36100  16.460  14.953  14.685  0.0487  0.2315  0.2768
20632W        W36101  18.060  11.712  10.332  0.1134  0.0706 -0.0330
20633W        W36102   8.143   7.149   1.953 -0.1387  0.3424  0.2119
20634W        W36103  12.083  13.910  15.465  0.1037  0.0076  0.4499
20635W        W36104  18.769   1.646  14.757 -0.0389 -0.0397 -0.2494
20636W        W36105   9.305  11.671   1.355  0.5571 -0.2060  0.1895
20637W        W36106   6.636  11.386   1.816 -0.0005 -0.0404 -0.0522
20638W        W36107  14.481   1.471   0.128  0.1901 -0.3654  0.1105
20639W        W36108   0.891  15.507   0.856 -0.0752  0.0764 -0.3709
20640W        W36109  18.863  10.989   3.594  0.0701 -0.2008  0.0253
20641W        W36110   3.262   4.190   3.678 -0.0493  0.1280 -0.1301
20642W        W36111   9.680   0.362   3.711  0.0623 -0.4798 -0.1548
20643W        W36112  11.971   9.591   0.324 -0.1985 -0.2997  0.0552
20644W        W36113   5.254  11.352  11.092 -0.2359  0.0471 -0.0940
20645W        W36114   2.129  17.502   2.451  0.0514 -0.1404 -0.1939
20646W        W36115  16.544   4.278  12.320  0.0621 -0.1298 -0.0599
20647W        W36116   1.751  16.887   1.875 -0.0499  0.1376 -0.5268
20648W        W36117  14.977  11.692  12.469  0.2191 -0.2156  0.2184
20649W        W36118   8.028   2.653   1.588  0.1028 -0.2301  0.2893
20650W        W36119   9.046  17.541  13.171  0.0836 -0.1840  0.1382
20651W        W36120   6.836   1.385   0.341  0.0727  0.0036 -0.1495
20652W        W36121  14.459  17.388   0.877 -0.0850  0.0063  0.0487
20653W        W36122   1.551   4.973   9.397  0.0952 -0.0679  0.1900
20654W        W36123   7.259  18.788  11.205 -0.0919  0.1161  0.2678
20655W        W36124  16.592  11.626  13.589  0.0142 -0.1244  0.0671
20656W        W36125   0.895   0.131  14.323  0.0308 -0.1006 -0.0528
20657W        W36126   0.342  14.084  15.070 -0.1709  0.2200 -0.0675
20658W        W36127  13.995   6.514   3.061 -0.0265  0.2122 -0.0630
20659W        W36128   7.656   8.666   4.293 -0.0491 -0.3299  0.6955
20660W        W36129  14.280  11.183  13.494  0.2137 -0.1263  0.1596
20661W        W36130  10.759   2.639  10.684 -0.1430 -0.1620  0.1799
20662W        W36131   5.488  10.068  13.000  0.1239  0.0285  0.1754
20663W        W36132  15.136   5.426   0.068 -0.1616 -0.0385  0.1000
20664W        W36133   7.143   1.518   1.876  0.2036  0.1100  0.2291
20665W        W36134   9.524   5.097   3.897  0.0564 -0.2091 -0.0217
20666W        W36135   1.309   4.716   9.906  0.1745  0.2523  0.1704
20667W        W36136   3.389   3.284  10.890 -0.1835 -0.0476 -0.0884
20668W        W36137   7.498   9.274   2.229  0.1408 -0.1087 -0.0364
20669W        W36138  18.531  16.268  13.515 -0.2183  0.1403 -0.0884
20670W        W36139  15.793  11.620   2.741 -0.1270 -0.0343  0.2583
20671W        W36140   6.840  18.733   0.428 -0.0886  0.4205  0.0489
20672W        W36141  15.724   8.789  11.328  0.0783  0.0429  0.0510
20673W        W36142  14.772   3.521   0.673 -0.3545  0.1451 -0.0905
20674W        W36143  13.768   3.407   3.651 -0.1495  0.0060 -0.1369
20675W        W36144  11.736  11.429   0.004  0.2542 -0.3438  0.1235
20676W        W36145   9.890  15.269   4.519  0.0730  0.2619 -0.0737
20677W        W36146   5.358   4.607  13.816  0.4066 -0.0658 -0.2784
20678W        W36147  10.394   5.242  13.380  0.2624 -0.0942 -0.1042
20679W        W36148  17.548   8.621   1.109 -0.1250  0.1940  0.0013
20680W        W36149  16.108   6.222  13.821 -0.2797  0.1961  0.2363
20681W        W36150   5.059  11.519   2.535  0.1813  0.2823  0.0186
20682W        W36151   2.847   4.292  14.448  0.0069  0.5758  0.1274
20683W        W36152  18.467   0.833  13.262 -0.0629 -0.0062  0.0646
20684W        W36153   1.731  14.254  15.427 -0.0648  0.3396 -0.1613
20685W        W36154   6.882  14.847   3.741 -0.4088 -0.0798  0.0231
20686W        W36155   4.501  10.323  11.541  0.1278 -0.1031  0.0870
20687W        W36156  10.909  10.861   0.750 -0.0426 -0.4975 -0.2810
20688W        W36157   4.323   5.910   0.870  0.2212  0.1134  0.2253
20689W        W36158  11.942   6.905  14.614 -0.1018 -0.0016 -0.2420
20690W        W36159   1.673   9.638  14.358 -0.1824  0.4323 -0.1457
20691W        W36160  14.126   4.568   9.997 -0.0682 -0.1577  0.2139
20692W        W36161   9.318   9.530  10.665 -0.1252  0.2947 -0.1185
20693W        W36162  13.986   2.421  14.612  0.1332  0.0558  0.1319
20694W        W36163   0.316   3.330  14.639 -0.0425  0.1784 -0.0902
20695W        W36164  14.351   5.651   1.056 -0.4373  0.0912 -0.0247
20696W        W36165   3.979  15.469   4.462 -0.1558 -0.2525  0.3171
20697W        W36166  12.658  11.649   1.560 -0.2037  0.1394  0.1025
20698W        W36167  18.579   8.222   4.634 -0.1123 -0.2100  0.1965
20699W        W36168  15.035  13.079  13.183 -0.3075  0.2589 -0.0167
20700W        W36169  10.030   2.786  14.870 -0.2348 -0.2397 -0.0321
20701W        W36170  16.859   6.414  10.535 -0.2014 -0.1485 -0.4984
20702W        W36171   5.789  17.775   0.714  0.0194  0.2793  0.0227
20703W        W36172   7.724  11.136  14.116 -0.1685 -0.2218 -0.1552
20704W        W36173  13.272   1.304   2.863  0.0282 -0.1262 -0.0982
20705W        W36174   3.387   2.896   4.166  0.1894 -0.0642 -0.0234
20706W        W36175   2.644   0.735  12.917  0.0715  0.1345  0.1126
20707W        W36176  12.318   7.597  11.277  0.1103 -0.2551  0.0616
20708W        W36177  16.121  10.427  10.671 -0.3376 -0.3112  0.3261
20709W        W36178  11.636   0.648  10.880  0.1812 -0.2663  0.1350
20710W        W36179  14.777   0.860   2.891 -0.1939  0.1321 -0.1338
20711W        W36180   8.053   5.843   5.666 -0.1468  0.1481 -0.0762
20712W        W36181  12.783  10.775   1.493 -0.0293  0.0608  0.5489
20713W        W36182  13.274   3.860  12.586 -0.2543 -0.3121 -0.2995
20714W        W36183  18.053   6.807   4.296  0.3457 -0.1474  0.2176
20715W        W36184  15.679   1.510   1.385 -0.1862  0.2979 -0.0459
20716W        W36185   7.413  13.599   0.615  0.2438 -0.1819 -0.2778
20717W        W36186  13.412  10.946  15.021 -0.3602 -0.1628 -0.0335
20718W        W36187  10.689   6.804  12.625  0.0025  0.4941 -0.0920
20719W        W36188  12.690  15.908   0.999  0.0267 -0.2293  0.3649
20720W        W36189   8.977   3.395   4.654 -0.0241  0.1662  0.2545
20721W        W36190  12.650   1.114  15.051 -0.0018  0.0118  0.1893
20722W        W36191  10.157   1.480  10.026  0.1163  0.1713 -0.3430
20723W        W36192  10.482   6.440   2.905 -0.1168 -0.1768  0.0838
20724W        W36193  10.626  13.224  13.607 -0.0272  0.0589  0.2262
20725W        W36194  11.147  18.211  11.747  0.1327 -0.0598 -0.1110
20726W        W36195   4.459   9.607  14.798 -0.3949  0.0268  0.2077
20727W        W36196  16.800   2.543  12.275  0.2329  0.1853 -0.2680
20728W        W36197  11.507  13.780   1.045  0.0040  0.3131 -0.2057
20729W        W36198   2.758  16.210   4.850 -0.0973  0.1485 -0.1440
20730W        W36199   6.326  18.134  15.195 -0.0925  0.3296 -0.0749
20731W        W36200  15.332   2.229   1.090 -0.0577 -0.0800 -0.3697
20732W        W36201   9.991   5.627  11.465  0.4184 -0.5457  0.4214
20733W        W36202   3.482  17.029   2.416 -0.2205  0.1402  0.2474
20734W        W36203   7.257   8.528   3.982  0.1142  0.0053 -0.1239
20735W        W36204  17.924   2.127   0.429  0.0822 -0.0917 -0.0702
20736W        W36205   3.247   7.139  14.718  0.1557  0.2352 -0.3349
20737W        W36206   9.519  17.778   5.093 -0.0054 -0.1600  0.2557
20738W        W36207   9.397   8.204  11.812 -0.0864 -0.1073 -0.0083
20739W        W36208  12.692  17.155  10.252  0.3008 -0.0382 -0.1128
20740W        W36209  15.321   0.329  13.486  0.1006  0.0559 -0.2293
20741W        W36210   7.982   2.183   1.612 -0.0655 -0.3770  0.0057
20742W        W36211  17.333  16.902  14.693 -0.0603  0.0096  0.1577
20743W        W36212   9.318   7.510  14.689  0.0187  0.0232 -0.0253
20744W        W36213  11.473   4.851  10.208 -0.2456  0.0577 -0.1300
20745W        W36214   2.177  13.772  10.602 -0.2533  0.1227  0.2071
20746W        W36215   6.942   0.075  13.158 -0.1266  0.0075 -0.0574
20747W        W36216  18.350   8.324   0.453 -0.1559  0.1345  0.2322
20748W        W36217  16.584   9.030   0.974  0.1507 -0.2244 -0.3283
20749W        W36218  17.505   8.731  12.216 -0.1721 -0.0176  0.0345
20750W        W36219   9.194  15.825  13.961 -0.0679  0.3313  0.2975
20751W        W36220   1.212   0.438   0.368  0.0631  0.0318 -0.0179
20752W        W36221   1.611   0.877  12.622  0.2529  0.4926 -0.1545
20753W        W36222   9.283   5.251   0.435 -0.0036 -0.0706 -0.2102
20754W        W36223   6.116  10.844   5.122 -0.0033  0.2672  0.1350
20755W        W36224   9.659  10.741   3.092  0.0242 -0.0810  0.1856
20756W        W36225  15.957   0.267   0.001  0.1744 -0.3705 -0.0175
20757W        W36226   7.497   1.805   1.598 -0.2217  0.0421  0.2409
20758W        W36227   9.773   4.466  11.763 -0.0783 -0.1744  0.3036
20759W        W36228   5.995   7.528   4.297 -0.1167  0.0657 -0.1835
20760W        W36229   0.449   6.650   0.993 -0.2924 -0.1144 -0.2182
20761W        W36230  15.916  14.106   2.071  0.1315 -0.0424 -0.1946
20762W        W36231  13.161  17.042   3.496 -0.1483 -0.2248 -0.0552
20763W        W36232   3.353   3.414  12.669 -0.0603 -0.0107  0.3040
20764W        W36233   2.305  12.942  13.966  0.2094 -0.1073  0.0127
20765W        W36234   4.078  18.380   1.608  0.0295 -0.1041 -0.1252
20766W        W36235  10.527  17.107  13.941  0.1391 -0.2406 -0.1127
20767W        W36236  12.537   8.535  15.324  0.3653  0.2084  0.0084
20768W        W36237   6.892  14.228  11.745  0.1278  0.0909  0.1668
20769W        W36238   7.059  13.484   1.439 -0.1050 -0.2571 -0.0477
20770W        W36239   5.555  13.867   2.136  0.0238 -0.1550 -0.1067
20771W        W36240  18.897  18.403  13.104  0.0825  0.2174 -0.1612
20772W        W36241  11.612   2.434   1.214  0.2352 -0.1050 -0.0638
20773W        W36242  14.902  12.126  14.375 -0.0478 -0.1499 -0.2164
20774W        W36243  17.308   0.468   0.513 -0.2428  0.0052  0.1714
20775W        W36244  11.433   4.249   3.601 -0.1109 -0.1799 -0.0451
20776W        W36245   7.455   0.712   1.362  0.3872  0.1543 -0.1743
20777W        W36246   8.339  17.147  10.132  0.2563  0.0148 -0.0989
20778W        W36247   0.884   1.315  14.954 -0.0763 -0.0606  0.1207
20779W        W36248   0.374   0.259  13.086 -0.1279  0.1387  0.2904
20780W        W36249  10.428  15.681  12.788  0.1143  0.0756 -0.0096
20781W        W36250  12.080  14.209  12.414 -0.0553 -0.1014 -0.0637
20782W        W36251   2.494  10.929   3.760 -0.0204  0.1771  0.0975
20783W        W36252   5.469   2.163  11.064  0.1610 -0.2377 -0.2857
20784W        W36253   0.156  17.810   1.336 -0.1532  0.2902 -0.0210
20785W        W36254  12.750  12.124   0.884 -0.0692  0.1967  0.2447
20786W        W36255   1.155  14.158  13.828  0.0748 -0.0073 -0.2868
20787W        W36256  18.646   9.934  15.410  0.1919  0.1729  0.1685
20788W        W36257  15.828   1.524  14.573 -0.1838  0.1591  0.3126
20789W        W36258   3.206  16.512  10.148  0.2503 -0.1307  0.0907
20790W        W36259   2.069  14.362  15.143  0.1256  0.0583  0.1333
20791W        W36260   0.167   9.935   3.907 -0.4261 -0.0100 -0.1115
20792W        W36261  18.248  17.601  14.944  0.0167  0.2089  0.2684
20793W        W36262   1.872  18.056  13.359  0.1956  0.2215  0.0364
20794W        W36263  11.377   3.375   3.994 -0.2452 -0.0040  0.2699
20795W        W36264   7.373  11.646  10.695  0.3555 -0.0361  0.2213
20796W        W36265  18.163  18.422  12.105  0.2040 -0.3368 -0.0849
20797W        W36266   2.374   7.036   0.405 -0.0535 -0.2587 -0.2915
20798W        W36267   0.948  14.564   5.491 -0.0156 -0.0073 -0.1031
20799W        W36268  14.040   4.348   5.281  0.1796 -0.1453 -0.1377
20800W        W36269  17.168   5.898   5.306  0.1901  0.2227 -0.0839
20801W        W36270   3.663   6.444   0.390 -0.0691 -0.1619 -0.1493
20802W        W36271   3.752   5.840   1.031 -0.1870 -0.0132 -0.0942
20803W        W36272  15.717  10.872  14.267  0.2676 -0.1624 -0.1084
20804W        W36273  13.611  14.417  13.727 -0.0520 -0.0737  0.0277
20805W        W36274   2.451   3.589   1.457  0.2629 -0.1111  0.1790
20806W        W36275  14.146   8.436   2.655  0.0701 -0.3608  0.3344
20807W        W36276   2.426  12.573   0.416  0.1039 -0.2789 -0.3623
20808W        W36277   2.263   8.759   9.844  0.1856  0.1476  0.1924
20809W        W36278  14.762   2.922   1.668 -0.1305  0.1062 -0.0040
20810W        W36279  14.364   8.196   0.019 -0.1656  0.0623 -0.1778
20811W        W36280   6.819  13.783   2.291 -0.0803 -0.3253  0.2019
20812W        W36281  15.172  14.978  12.818  0.0352  0.0987 -0.2308
20813W        W36282   9.172  18.280  13.470  0.1030 -0.0004  0.2206
20814W        W36283   0.718   6.030  12.607  0.0214 -0.1807 -0.0161
20815W        W36284  13.374  18.761  11.699  0.3504 -0.0888 -0.0032
20816W        W36285  10.342  11.372   5.729 -0.0967 -0.1186  0.2686
20817W        W36286   3.341   5.006   0.798 -0.0998 -0.4330 -0.1752
20818W        W36287  14.069  10.145   4.552  0.1223  0.0723 -0.1808
20819W        W36288  16.591   1.112   4.058  0.0993 -0.0251  0.2914
20820W        W36289  11.391   5.095   1.553  0.1384 -0.1441 -0.1761
20821W        W36290  12.803   3.895   0.921 -0.0247  0.1264 -0.2193
20822W        W36291  15.137  12.153   4.692 -0.1722 -0.2276 -0.0720
20823W        W36292  18.150   9.555  13.998 -0.0028 -0.0644  0.1059
20824W        W36293  12.731   1.922   5.532  0.3418 -0.1735 -0.2002
20825W        W36294   0.022   2.454   2.703  0.2935 -0.3384  0.1339
20826W        W36295   5.063  11.737  12.508 -0.1996  0.1507 -0.1151
20827W        W36296   1.626   3.982   5.477 -0.1152 -0.1092  0.0714
20828W        W36297   4.831   0.667  11.852  0.0671 -0.0606 -0.0862
20829W        W36298  16.305  18.381   0.277  0.3408 -0.1042  0.1339
20830W        W36299   8.181   7.409   3.507 -0.0499 -0.0504  0.3246
20831W        W36300  11.684   4.649  14.289 -0.1571  0.2701  0.0474
20832W        W36301  10.787   5.531   1.794  0.2582 -0.1100 -0.1629
20833W        W36302   0.579   8.946  11.894  0.0611  0.0880  0.1657
20834W        W36303  14.137   8.375  12.919 -0.0100 -0.1756 -0.1878
20835W        W36304  11.741   0.603  13.389 -0.0179  0.2689 -0.0312
20836W        W36305  16.106   9.849  15.047 -0.3561  0.0735 -0.0546
20837W        W36306   8.146  17.762  14.887 -0.0086 -0.0629  0.2150
20838W        W36307  18.831  11.802   5.278 -0.1727 -0.3075  0.0143
20839W        W36308   1.300  16.532   4.058  0.0349  0.1526  0.0301
20840W        W36309   1.407   3.479   3.669  0.1757 -0.2100 -0.0890
20841W        W36310   3.371   4.450  12.691 -0.2003 -0.1651  0.1103
20842W        W36311  10.486  11.513  10.753 -0.1243  0.1539  0.3573
20843W        W36312   1.106   4.767   3.649 -0.0508  0.1314 -0.0513
20844W        W36313   6.545   4.012  14.096 -0.0669  0.3489 -0.3106
20845W        W36314  10.075   8.628  14.600  0.0478  0.5132 -0.2123
20846W        W36315   0.842  15.516   5.044  0.0415 -0.2108  0.3027
20847W        W36316   6.846   2.467   2.347 -0.4439 -0.1574 -0.0976
20848W        W36317  10.139   3.048   3.503 -0.3947 -0.0987  0.1162
20849W        W36318   8.501   2.883   2.618  0.1961  0.0841 -0.1514
20850W        W36319  11.286   1.969  12.019 -0.5408  0.0706  0.0223
20851W        W36320   9.006  12.187   5.634  0.0530  0.3249 -0.0464
20852W        W36321  17.059   2.135  11.419  0.0854  0.0902  0.2709
20853W        W36322   7.642  18.729  13.107 -0.3009 -0.2405 -0.1347
20854W        W36323  17.601   4.911  15.008 -0.0494  0.0688 -0.0923
20855W        W36324   5.520   1.565   3.787  0.2741 -0.6613  0.5949
20856W        W36325  10.207   4.492   0.767  0.0310 -0.2466 -0.0703
20857W        W36326  18.544   9.784  13.847  0.0707  0.2176  0.2052
20858W        W36327  10.659   6.341  12.938  0.3250  0.0227  0.0261
20859W        W36328   8.768   9.754  11.733  0.0321 -0.1547  0.1967
20860W        W36329   6.954   9.008   1.624 -0.0661 -0.1213  0.1420
20861W        W36330   8.966  18.585   1.179  0.2720  0.1481 -0.1576
20862W        W36331  14.540   3.779   1.001 -0.3050 -0.1116  0.0259
20863W        W36332   3.764  12.992   2.821  0.1088  0.0433  0.1884
20864W        W36333   8.470  18.621   1.882 -0.1349 -0.1998 -0.0288
20865W        W36334  17.849  12.843  15.204  0.0778 -0.1658 -0.0900
20866W        W36335  12.546  17.976  13.454  0.2353 -0.1384 -0.0449
20867W        W36336   7.381   5.293   1.924  0.2885 -0.0153 -0.0907
20868W        W36337   8.131  13.308  13.376  0.0365  0.4130  0.1482
20869W        W36338   5.850   0.189   3.725  0.0063  0.1867  0.1405
20870W        W36339   7.554   4.607  14.322  0.1657 -0.2139  0.4507
20871W        W36340  18.486  14.228   3.784 -0.2559 -0.0748 -0.0603
20872W        W36341  14.129   9.651  14.762 -0.0752 -0.8026 -0.1265
20873W        W36342  14.072  16.028  14.241 -0.0296  0.0691 -0.0450
20874W        W36343  17.225  13.089   4.077 -0.2889 -0.0076 -0.0399
20875W        W36344  15.514  15.881  14.950  0.1717 -0.0284 -0.0926
20876W        W36345   7.602  11.424  11.544  0.0444 -0.2722  0.0659
20877W        W36346   9.444   4.581  11.235 -0.0234 -0.0841 -0.0374
20878W        W36347  17.227  15.567  15.134 -0.2408 -0.1172 -0.1721
20879W        W36348  13.398  11.527  13.222  0.1294 -0.0806 -0.5464
20880W        W36349  17.377   8.239  11.963 -0.1294  0.0651  0.0521
20881W        W36350   6.073   8.279  14.167  0.2828  0.1255  0.0040
20882W        W36351   6.788  12.822   4.844  0.1321 -0.0301 -0.1717
20883W        W36352   0.343   3.215  10.007 -0.2672  0.4394 -0.3016
20884W        W36353   4.270   3.135   5.118  0.0396 -0.1704 -0.1617
20885W        W36354  14.690   1.511   2.690  0.1873 -0.0201  0.1025
20886W        W36355  15.369  12.163   1.115 -0.1051 -0.2818 -0.2420
20887W        W36356   5.234   8.111   0.881 -0.0948 -0.0831 -0.3698
20888W        W36357  11.215   0.242   5.131 -0.1828 -0.0206 -0.0908
20889W        W36358  14.861  14.395  14.197  0.2376 -0.1625 -0.4195
20890W        W36359  13.400   0.114   0.168  0.1933 -0.2729  0.3208
20891W        W36360  17.853   1.084  10.849  0.4078  0.0879  0.3513
20892W        W36361  14.512  16.063  12.478  0.4526 -0.1585  0.0653
20893W        W36362   7.812   9.600  12.778  0.0189  0.0021  0.0649
20894W        W36363   0.998   6.894   5.042  0.2470  0.0850  0.2597
20895W        W36364   1.324  12.269  13.390  0.1763  0.0927  0.0104
20896W        W36365   9.816  11.604  11.410 -0.0140 -0.2435  0.1391
20897W        W36366   3.870   6.748   2.256 -0.0619 -0.2832 -0.1788
20898W        W36367   0.960   0.785   9.797 -0.0922  0.4808  0.2275
20899W        W36368  13.320   4.350  10.622 -0.0919 -0.2907  0.2130
20900W        W36369  11.263   9.356  14.613 -0.2548 -0.0980 -0.0716
20901W        W36370  17.255   3.975  14.916 -0.0279  0.1174 -0.0149
20902W        W36371   0.047  14.123   1.425  0.2838  0.1877  0.2064
20903W        W36372   6.512   9.057   5.008 -0.1984  0.2381 -0.0209
20904W        W36373   7.713  11.598  11.089 -0.1185  0.2923  0.2045
20905W        W36374  15.696   4.628   5.323  0.2602  0.2024  0.0056
20906W        W36375   4.909   7.787   4.065  0.0537  0.3062 -0.0232
20907W        W36376  18.372  13.936   0.981  0.2693  0.0719 -0.1010
20908W        W36377   0.347  13.382  10.412 -0.1888  0.1050 -0.1818
20909W        W36378   2.733  16.982  15.175  0.1279  0.0165  0.5026
20910W        W36379   0.881   2.579  13.262 -0.1996 -0.0295 -0.0031
20911W        W36380   7.003  18.694  15.372  0.1125 -0.0919 -0.0669
20912W        W36381  17.188   0.072  13.349 -0.1906 -0.0818 -0.2618
20913W        W36382  16.874  12.747  14.922 -0.1395 -0.3233 -0.0490
20914W        W36383   0.322  11.720   2.344  0.1851  0.3108  0.0113
20915W        W36384  14.995   5.114   1.885  0.2381 -0.0031  0.0773
20916W        W36385  16.214   9.069   1.786  0.2608 -0.1320 -0.0390
20917W        W36386   3.110   4.871   2.314  0.0505 -0.0652  0.0490
20918W        W36387  12.149  10.878   0.642  0.1947  0.1908 -0.1873
20919W        W36388  11.279  14.554   3.344 -0.0903  0.2861  0.1170
20920W        W36389   8.248   1.032   2.448 -0.1002 -0.1691 -0.1841
20921W        W36390   4.321   9.514  13.156  0.1183 -0.1308  0.3391
20922W        W36391  12.891  13.429   3.789 -0.1511 -0.0987 -0.0139
20923W        W36392   2.655   2.588  14.514 -0.1492 -0.3964  0.1983
20924W        W36393   9.564   0.856  10.502  0.0536  0.0716 -0.0797
20925W        W36394   1.455   9.577  11.293 -0.2281  0.0851  0.0129
20926W        W36395   4.181   4.215  14.072  0.3542  0.0879 -0.1324
20927W        W36396   0.919   9.680  15.060 -0.0750 -0.2853 -0.2500
20928W        W36397  13.143  15.669   4.606 -0.3524  0.1301  0.0206
20929W        W36398   1.066  14.010   4.006 -0.5541 -0.0899  0.4339
20930W        W36399   6.672  12.428  14.534 -0.2495  0.1246 -0.2397
20931W        W36400  18.939   6.615  13.182 -0.0308 -0.1007  0.1678
20932W        W36401   4.031   0.060   2.433 -0.1987 -0.1643 -0.2743
20933W        W36402   5.079  17.745   2.970 -0.0475 -0.0877  0.4710
20934W        W36403   4.355   6.091   1.512 -0.1948  0.0190 -0.2161
20935W        W36404   1.111   0.699   4.372 -0.0561  0.2783  0.0896
20936W        W36405  15.704   9.386   1.373  0.0996 -0.1460  0.0113
20937W        W36406   8.445   5.898   0.277 -0.0000 -0.3049  0.4179
20938W        W36407  13.942  14.836   4.429  0.2315 -0.0985 -0.3444
20939W        W36408   0.640  16.308  11.796  0.2139 -0.1867 -0.3224
20940W        W36409  12.707   3.718  12.818 -0.0031 -0.0648  0.1368
20941W        W36410   7.601   7.214  15.095 -0.2659 -0.0685  0.0241
20942W        W36411   1.541   7.366  14.096  0.1209  0.2010  0.0392
20943W        W36412   0.521  12.772   2.554  0.1052  0.3340 -0.4218
20944W        W36413   5.941   2.573   2.450  0.2715  0.5689  0.0620
20945W        W36414   2.879  15.162  10.837  0.3266 -0.2649 -0.0591
20946W        W36415  12.070  18.231  13.424  0.1776  0.1246 -0.1312
20947W        W36416  14.547  10.801   0.783 -0.3342  0.3175 -0.0017
20948W        W36417   0.250   5.295   2.144  0.0213 -0.1450 -0.3365
20949W        W36418  16.973   6.587  13.616  0.1165 -0.1793 -0.0608
20950W        W36419  14.726  12.919   0.163 -0.2205 -0.0458 -0.0754
20951W        W36420   2.345   5.557   5.295  0.0734 -0.1612 -0.1453
20952W        W36421   1.045   0.276  11.342 -0.1563 -0.1218 -0.2786
20953W        W36422   2.369   4.552   2.450  0.2256 -0.2910 -0.0673
20954W        W36423  16.608   5.718  10.759 -0.0886  0.1722  0.1040
20955W        W36424   8.739  15.182  12.134  0.0292  0.2744 -0.2330
20956W        W36425  14.811  10.644   4.219 -0.0993 -0.1715  0.3647
20957W        W36426  12.118   2.860   2.819 -0.0703 -0.2783  0.0604
20958W        W36427  12.564   6.921   1.805  0.0374 -0.0525  0.0673
20959W        W36428  14.222  12.435  12.181 -0.4818  0.0081 -0.0415
20960W        W36429   3.665   4.579   2.941  0.0553 -0.0397 -0.4593
20961W        W36430   1.713  16.186   1.602  0.2800  0.1671 -0.3108
20962W        W36431   1.839  18.094   4.926 -0.2350 -0.1799 -0.3136
20963W        W36432   4.663  17.569   4.364  0.3429 -0.2955  0.0456
20964W        W36433   7.665   1.944  12.941 -0.0327  0.0836 -0.0562
20965W        W36434  14.996   4.953  12.587 -0.1639  0.0438  0.1016
20966W        W36435   4.629   1.725  12.622 -0.0130  0.0805 -0.0274
20967W        W36436   5.619   3.193  13.526  0.1338 -0.1801 -0.2854
20968W        W36437   4.459   9.828  14.037  0.0361  0.0077 -0.0501
20969W        W36438  16.439   6.527   0.040 -0.0241 -0.1620 -0.0589
20970W        W36439   3.947   3.814  15.075 -0.1394  0.0277  0.0451
20971W        W36440   0.865   9.263  12.172 -0.0353  0.0264 -0.1614
20972W        W36441   1.125   2.589   3.763 -0.1915  0.2438 -0.3416
20973W        W36442  16.155   3.277  11.511  0.1626  0.1164  0.2242
20974W        W36443   2.451  14.524   1.282  0.0195 -0.1715 -0.0515
20975W        W36444  11.514   5.078  11.970  0.1412 -0.1527 -0.0662
20976W        W36445  12.587  17.176   5.194  0.1644 -0.2476 -0.3004
20977W        W36446   8.989   0.086  11.952  0.2243  0.3109 -0.3265
20978W        W36447   7.310  14.476   0.752  0.0115 -0.0482  0.0697
20979W        W36448  16.380   3.781  12.338  0.2070  0.1207  0.0452
20980W        W36449   7.819  11.557  13.788 -0.1894  0.2643 -0.0947
20981W        W36450  11.803   6.440   4.037 -0.1177 -0.1740 -0.0319
20982W        W36451   6.275  16.127   2.440  0.1356  0.1416 -0.5172
20983W        W36452   4.798   2.899  12.581  0.0381  0.1943  0.1858
20984W        W36453  18.412  12.942  12.312 -0.4850 -0.0166 -0.1748
20985W        W36454   0.367  13.641  11.687  0.2209  0.0143  0.0591
20986W        W36455   5.351   8.684  12.492  0.0533 -0.0692  0.0065
20987W        W36456   7.102   4.083  10.679 -0.1883  0.1438  0.0854
20988W        W36457  10.644  12.848  14.963 -0.3724  0.1294  0.0257
20989W        W36458  17.943  18.675  11.709 -0.0365  0.2987  0.2398
20990W        W36459   9.892  18.885   2.381  0.0503 -0.1901  0.2066
20991W        W36460  16.113  15.603   4.092  0.2002  0.0263  0.1890
20992W        W36461   9.869   9.328   2.629 -0.1408  0.2126  0.0270
20993W        W36462   9.568  16.670   4.383 -0.1812 -0.2359  0.0212
20994W        W36463   1.286  17.626   2.184  0.2206  0.0028 -0.1125
20995W        W36464   4.562   4.329   0.914  0.1752  0.0046  0.1677
20996W        W36465   2.601   9.856  14.585 -0.1118  0.2011 -0.0899
20997W        W36466   8.601  13.927  13.433 -0.0955 -0.0112  0.2584
20998W        W36467   5.212   1.658   1.768 -0.1149 -0.2380 -0.0374
20999W        W36468   8.528  15.039   4.003  0.2841  0.2844  0.0328
21000W        W36469   5.746  10.320  15.028  0.1953  0.0626 -0.0489
21001W        W36470   3.400  15.993   1.476 -0.2407 -0.3554  0.0406
21002W        W36471   2.509   2.251   4.916 -0.2021 -0.2260  0.0067
21003W        W36472   2.789   2.968   0.950  0.0664  0.0253 -0.2585
21004W        W36473   1.594  16.980   3.090  0.4523 -0.0297  0.1159
21005W        W36474  13.162   0.246   0.631 -0.0594 -0.0123  0.0792
21006W        W36475  18.290  18.433  14.632 -0.2430  0.0753  0.2113
21007W        W36476   1.712   5.480  12.317 -0.4151  0.2140  0.0745
21008W        W36477  10.445  18.446  11.679  0.1147 -0.3411  0.2034
21009W        W36478   5.889  15.785  13.890 -0.1436 -0.0117  0.2288
21010W        W36479   2.166   3.847  11.459  0.1559 -0.0914 -0.0080
21011W        W36480   8.670   1.252   1.025 -0.4193  0.3528 -0.0378
21012W        W36481  12.233   2.924   1.044  0.0261  0.0282  0.2018
21013W        W36482   1.115   2.092   3.705  0.2464  0.2860 -0.2242
21014W        W36483   6.390   0.011  10.656 -0.5027 -0.0778  0.0744
21015W        W36484   3.317   5.666  14.238 -0.1122  0.1635 -0.1672
21016W        W36485  14.695  10.864   1.842  0.0367 -0.0505 -0.2576
21017W        W36486   0.216   0.596   2.709 -0.1411 -0.0052  0.4530
21018W        W36487  16.516  13.694   4.302 -0.1125  0.2003  0.1659
21019W        W36488  15.496  15.676   5.021 -0.1465 -0.3348  0.4111
21020W        W36489   5.932   6.442  14.052 -0.1347  0.0016 -0.2073
21021W        W36490  12.226   3.647  12.611  0.0342 -0.1756  0.3618
21022W        W36491  13.836   6.207  15.296  0.1474  0.1730 -0.0301
21023W        W36492   7.040  11.702   3.679 -0.0300  0.2165 -0.1851
21024W        W36493  14.093   9.294  12.244 -0.2483 -0.1209 -0.0503
21025W        W36494  17.864   1.733  10.751  0.0561  0.4545 -0.0363
21026W        W36495   3.308  14.960  10.561 -0.1268  0.0095  0.2954
21027W        W36496   1.949   9.493   0.900  0.2604  0.2191 -0.0160
21028W        W36497   3.168  15.630   0.691 -0.3283 -0.1653  0.1090
21029W        W36498   7.269  14.170  12.122 -0.0195 -0.0369  0.1861
21030W        W36499   3.685  18.665   2.385  0.0182  0.1620 -0.0108
21031W        W36500   5.622  14.408  10.345  0.1385 -0.1106  0.0378
21032W        W36501   6.546   5.294  10.696 -0.2655  0.0226 -0.0322
21033W        W36502  16.200  18.117   3.226 -0.1030 -0.2817 -0.1598
21034W        W36503  15.523   0.020  11.211 -0.1559  0.2644  0.1999
21035W        W36504   4.731  13.432  14.245  0.0536  0.0502  0.1229
21036W        W36505   5.801  17.824  14.255 -0.0184 -0.3659  0.1340
21037W        W36506  17.941   5.753  12.950  0.1197  0.1496  0.0775
21038W        W36507  10.161   2.681  12.142  0.2171 -0.1410 -0.0802
21039W        W36508   2.131   8.186  10.551  0.0406  0.2342 -0.0509
21040W        W36509   3.009  10.493   4.898 -0.1592 -0.0627  0.0046
21041W        W36510   0.607  10.766  14.164 -0.1178 -0.0158  0.2035
21042W        W36511  13.095  13.908   1.639 -0.1335  0.2543  0.0066
21043W        W36512  12.977   6.388  14.755 -0.5128  0.4748  0.1996
21044W        W36513   0.179  12.667   4.133  0.1108 -0.0437 -0.2376
21045W        W36514  17.127   3.909   2.644  0.0120 -0.3234  0.0563
21046W        W36515   9.204   9.984   9.801  0.2415  0.0711 -0.0285
21047W        W36516  17.085   7.025  11.857 -0.0173 -0.2129 -0.3180
21048W        W36517   1.536   8.517   1.772 -0.1886  0.2533  0.4050
21049W        W36518   1.398   8.495  14.917  0.2235 -0.0049 -0.4073
21050W        W36519  18.489   5.318   2.726  0.0186  0.1652  0.0356
21051W        W36520   8.760  13.087  10.336  0.0940  0.1610  0.3318
21052W        W36521  10.240   8.180  14.374  0.1027 -0.0694  0.0198
21053W        W36522  13.714  11.011   5.403  0.0869 -0.0072 -0.2647
21054W        W36523  13.481  12.181  11.135  0.0066 -0.0371 -0.0410
21055W        W36524  11.155  17.662  14.143 -0.2917  0.0138 -0.1523
21056W        W36525   8.362  14.106   2.875 -0.4193  0.1570 -0.1102
21057W        W36526  10.942   2.415   1.461  0.1570 -0.1239  0.1262
21058W        W36527  18.908   2.695   2.021 -0.0390  0.0965  0.1368
21059W        W36528  13.836  10.182  13.570 -0.1343 -0.0784  0.0497
21060W        W36529   2.162   7.296   4.549  0.2424  0.2274  0.2389
21061W        W36530  11.564   4.058  10.856  0.2075 -0.1500  0.5015
21062W        W36531   9.612  13.560   2.254  0.1861  0.1773  0.0295
21063W        W36532  12.236   7.916   4.716  0.4477 -0.2398  0.0201
21064W        W36533   7.735  10.031   0.502 -0.0906 -0.0481 -0.2355
21065W        W36534   5.785   8.032  15.009  0.2388 -0.0409 -0.0634
21066W        W36535   1.040   4.782  10.310  0.0299  0.0700  0.1105
21067W        W36536   2.287  10.581   2.214 -0.1778 -0.0713  0.1475
21068W        W36537   5.070   7.757   0.049  0.4016  0.0337 -0.4026
21069W        W36538  10.133   5.063   5.604 -0.1082 -0.2166  0.2780
21070W        W36539   3.693   4.555   3.590  0.1430 -0.0523 -0.2510
21071W        W36540   5.734   9.995   4.448 -0.0710  0.0973 -0.0945
21072W        W36541  12.686   5.389  12.089  0.0095 -0.0809 -0.2509
21073W        W36542   3.187   9.897   2.863 -0.0241  0.0920 -0.1525
21074W        W36543  14.141  14.555   2.911  0.1731  0.2724 -0.1840
21075W        W36544   0.857  17.206   1.697  0.1083 -0.0283 -0.0649
21076W        W36545  17.604   0.250  13.110  0.0425  0.1583  0.1860
21077W        W36546  11.711   5.898   3.027 -0.3371 -0.2149  0.0109
21078W        W36547  14.884   7.707  12.704  0.2263 -0.0701 -0.2211
21079W        W36548   9.965   5.517  10.927  0.1224  0.1915 -0.2152
21080W        W36549  14.495  12.084  14.740  0.2067 -0.2698  0.1207
21081W        W36550   3.056   7.650   1.194  0.0129 -0.1835 -0.4185
21082W        W36551  13.679  14.126   5.973 -0.1779 -0.0126 -0.1166
21083W        W36552  16.812  10.516  13.831  0.0436 -0.1992  0.0591
21084W        W36553   4.868  11.170   1.880 -0.0458  0.0125 -0.0026
21085W        W36554  17.703  18.515   4.618 -0.3408  0.3031 -0.1651
21086W        W36555   0.791   5.767  11.989 -0.3721  0.0308  0.1400
21087W        W36556  10.576  10.046  12.582  0.2093 -0.2290 -0.1144
21088W        W36557  15.461   3.913  13.513 -0.5152 -0.3683  0.0275
21089W        W36558   4.496   9.089  10.797  0.2074 -0.4008  0.0845
21090W        W36559  14.866  16.205  10.688 -0.2379 -0.2701 -0.3479
21091W        W36560   2.039   0.715  13.042 -0.0734  0.0715 -0.0932
21092W        W36561   5.094  12.109  13.697  0.0468  0.1509 -0.3297
21093W        W36562   3.064   2.962   3.219  0.1707  0.3471 -0.0447
21094W        W36563   0.589  10.400   4.309 -0.2869  0.0331  0.0241
21095W        W36564  11.523  13.461  14.066 -0.0293 -0.0137  0.3431
21096W        W36565   4.986   3.375   3.223 -0.2560 -0.1368 -0.0418
21097W        W36566   5.617   3.722  12.170 -0.1842  0.2112  0.2380
21098W        W36567  17.703   4.151   1.432 -0.0986 -0.1034  0.2053
21099W        W36568  13.565  16.668  14.560  0.1801 -0.2691  0.0375
21100W        W36569  18.743   5.215   1.065 -0.0342  0.2184 -0.1142
21101W        W36570   3.575   3.306   1.285 -0.1514  0.3912  0.1780
21102W        W36571   1.827   3.231   0.798  0.1372 -0.2794 -0.0689
21103W        W36572   4.297   1.412  12.366 -0.2574 -0.0451  0.2240
21104W        W36573  18.153   1.595   1.629 -0.2303  0.1991  0.3204
21105W        W36574  16.003   7.774   1.683 -0.1057 -0.0593 -0.1751
21106W        W36575  13.156  10.590   0.820 -0.0619 -0.1230 -0.1794
21107W        W36576   1.081   9.477  13.646  0.3544  0.1889  0.1043
21108W        W36577  18.048  12.682  14.022 -0.1491 -0.1048 -0.1779
21109W        W36578  13.829   0.800  14.117  0.4009 -0.0782  0.0908
21110W        W36579   4.181   7.257  13.615  0.3091  0.2186  0.0115
21111W        W36580   0.102  10.783   4.628 -0.0067  0.1864  0.3733
21112W        W36581  14.026  18.342  14.531 -0.0680 -0.2005 -0.1339
21113W        W36582   2.943  11.677   1.810 -0.1222  0.2476  0.4609
21114W        W36583  12.477   3.341   4.010 -0.3765 -0.0322 -0.0540
21115W        W36584   8.425  18.549  13.720  0.1207 -0.1857 -0.1214
21116W        W36585   1.724   6.055   4.508 -0.3095  0.3653  0.0571
21117W        W36586  16.035   0.263  12.260  0.0893 -0.1645  0.0495
21118W        W36587  12.140   0.384  10.170  0.2072  0.0238 -0.1159
21119W        W36588  12.715   0.212  11.519 -0.1488  0.3257  0.2006
21120W        W36589   7.212  18.079  14.401  0.0712 -0.1038  0.0253
21121W        W36590   5.206   4.219  10.830  0.0378 -0.1582  0.4356
21122W        W36591  17.736  16.697   4.217  0.3591  0.0703  0.1950
21123W        W36592   9.926   3.887  12.167  0.2877 -0.2515 -0.0829
21124W        W36593  11.400  11.841   3.279  0.1293  0.1847  0.4020
21125W        W36594  16.624   7.817   0.493 -0.1714  0.1563 -0.0309
21126W        W36595  15.761   5.272  14.280  0.0461 -0.0395 -0.2189
21127W        W36596   8.175   2.656   0.572 -0.0595  0.0832 -0.0545
21128W        W36597   0.570  18.039   5.415 -0.1290 -0.2902 -0.0126
21129W        W36598  16.661  15.815   4.367  0.0917 -0.0522 -0.1318
21130W        W36599  11.940  11.096   4.882  0.0024 -0.0737  0.0694
21131W        W36600   9.375   9.267  14.851  0.3624 -0.2202  0.1275
21132W        W36601   7.617  18.791  15.503  0.0797 -0.4753 -0.1454
21133W        W36602   3.451   6.735   1.318  0.2009  0.0258 -0.5356
21134W        W36603   1.542  10.262   0.835  0.1326 -0.0323 -0.1399
21135W        W36604   4.824   9.303  14.773 -0.2499 -0.0528 -0.3261
21136W        W36605   7.477  12.203   3.699  0.3817  0.2022 -0.0202
21137W        W36606  12.768  11.616   5.690 -0.0021 -0.0439 -0.2251
21138W        W36607   7.441   2.353   0.396 -0.2608 -0.0741  0.2773
21139W        W36608  15.088  12.233   2.548  0.1148 -0.4994 -0.1750
21140W        W36609   7.220   0.477  12.400 -0.0102 -0.1228  0.4268
21141W        W36610   6.917  13.443  15.433 -0.0614  0.0927 -0.1507
21142W        W36611  15.633  12.821  11.141  0.2040 -0.0131  0.0481
21143W        W36612   1.798  15.105   4.582  0.3860 -0.2974 -0.0401
21144W        W36613  15.855  14.823   1.289  0.0494  0.2080  0.1113
21145W        W36614  11.181   2.848   1.364 -0.2503  0.1862  0.0471
21146W        W36615   8.956  13.426   5.063 -0.3134 -0.0847 -0.0998
21147W        W36616   3.339   7.330  10.440  0.0239 -0.1162  0.0943
21148W        W36617   9.713   6.496  12.750  0.2718 -0.0529  0.1620
21149W        W36618   9.717   1.266  14.763 -0.1369  0.1127 -0.1259
21150W        W36619  18.751   9.280  14.037  0.1326 -0.1937  0.3585
21151W        W36620   6.397   4.215   5.208 -0.2348  0.1193 -0.0369
21152W        W36621   2.177  15.032   4.308 -0.0129 -0.2260  0.0927
21153W        W36622   2.542   9.441   4.612 -0.2118  0.4097  0.2325
21154W        W36623   3.493   9.219   0.773  0.0371 -0.2768  0.0467
21155W        W36624   0.729   7.893   1.493  0.0544 -0.3646  0.1703
21156W        W36625   1.589  13.440   1.324  0.1855  0.2573 -0.2357
21157W        W36626  10.810  16.930  14.382 -0.1244 -0.1783  0.1610
21158W        W36627  17.137  13.451   4.871  0.2209 -0.1533 -0.0771
21159W        W36628   8.734  14.658  13.897  0.1115 -0.1907  0.0091
21160W        W36629   5.216   0.538  14.230 -0.0572 -0.2083 -0.1359
21161W        W36630  11.396  15.374   3.203 -0.2532  0.0752  0.2659
21162W        W36631  13.369   0.930  12.338  0.0482  0.3829 -0.0738
21163W        W36632  12.893  17.826  14.407 -0.0603  0.2968 -0.1557
21164W        W36633  16.637   2.354   5.319 -0.0338 -0.1665 -0.0218
21165W        W36634   8.087   0.429  11.080 -0.0182  0.1657 -0.2239
21166W        W36635   2.716   9.049   4.989  0.3043 -0.0315  0.3883
21167W        W36636   8.993  11.263  14.100 -0.0143  0.0142  0.1883
21168W        W36637  13.523   6.710   0.615  0.2117  0.1151  0.2264
21169W        W36638   6.195   9.736  10.348 -0.0439 -0.2427 -0.0690
21170W        W36639   4.792   8.384  14.846  0.0764 -0.4409  0.4141
21171W        W36640  16.537   3.746   4.564  0.4040  0.2036  0.0139
21172W        W36641   7.375   1.663   1.062 -0.1200  0.0191  0.1260
21173W        W36642   6.360   9.001   1.306 -0.1212  0.1701 -0.0525
21174W        W36643   6.289  11.560  11.554  0.0385 -0.2453 -0.2537
21175W        W36644  15.274   8.756   0.931  0.2161  0.1016  0.3449
21176W        W36645  17.720  12.996   4.094 -0.1075 -0.0856 -0.0760
21177W        W36646   4.984   4.932   2.420  0.2601 -0.1175 -0.0106
21178W        W36647   9.531  13.221  14.552 -0.0256 -0.0383 -0.4538
21179W        W36648  17.636   9.665   4.174  0.4364  0.2371 -0.1103
21180W        W36649   9.426   7.075  13.356  0.3330 -0.0659 -0.1421
21181W        W36650   6.250   8.829  11.437  0.0540  0.0826  0.0644
21182W        W36651  17.248  18.026  14.411  0.0749 -0.0030 -0.3085
21183W        W36652   0.592   5.012   1.563  0.2069  0.2710  0.0519
21184W        W36653  12.621   1.002   4.280  0.1702  0.0123  0.3159
21185W        W36654   3.392   7.373   0.567 -0.1507  0.1702  0.0573
21186W        W36655   0.967  15.081   4.718  0.3591 -0.0661  0.2004
21187W        W36656  17.121   1.709  14.658  0.1202  0.1790  0.0762
21188W        W36657  15.518   7.401   1.567  0.2602  0.2142 -0.1602
21189W        W36658  14.777   7.757  14.936  0.2548 -0.0328  0.1366
21190W        W36659   6.522   4.111   0.141  0.2462 -0.1660  0.1670
21191W        W36660  13.244   8.442  13.998  0.0509  0.1943  0.0475
21192W        W36661   3.575  15.459  14.750  0.3539  0.0205  0.2202
21193W        W36662  15.341  10.552  13.334 -0.0671  0.0661  0.2201
21194W        W36663   4.286  12.867   3.601 -0.2264  0.0041 -0.2458
21195W        W36664   5.695   4.232  11.614  0.0272 -0.0989 -0.1932
21196W        W36665   3.015  17.683   2.225  0.1813 -0.0777  0.1757
21197W        W36666   7.802  10.977   9.598 -0.3661  0.1949  0.0274
21198W        W36667  13.438   7.986  14.637 -0.1412  0.1257 -0.2616
21199W        W36668  13.790   0.442  11.920 -0.2276 -0.4494  0.3883
21200W        W36669   3.843   5.424   3.853  0.2152  0.0965  0.1778
21201W        W36670  12.487  12.387   4.047 -0.1053  0.0383  0.0220
21202W        W36671  12.614  12.261  14.756  0.2518 -0.0171 -0.1279
21203W        W36672   2.959  16.941   0.597  0.2290 -0.2853 -0.2032
21204W        W36673   3.963   3.981  13.184  0.0483 -0.4969 -0.2992
21205W        W36674   8.986   6.391   3.087  0.2205 -0.2991  0.3540
21206W        W36675   2.711   6.241   0.396  0.0814 -0.1380 -0.1485
21207W        W36676   9.574  18.804   2.033 -0.1019  0.5017  0.2061
21208W        W36677  11.271   9.996  12.988 -0.0341  0.2866  0.4142
21209W        W36678  14.028   8.677   0.096  0.0361 -0.0876 -0.2480
21210W        W36679  10.670   2.601   4.246 -0.2823  0.0006  0.0257
21211W        W36680  16.400   4.450  14.660 -0.0301 -0.1859 -0.0138
21212W        W36681   8.944   6.689  12.301 -0.1774 -0.1583  0.1139
21213W        W36682  13.982   4.384   5.828 -0.2028  0.2007 -0.0245
21214W        W36683   8.254  16.853   3.144 -0.0659  0.0339 -0.0719
21215W        W36684   9.666   0.974   0.973 -0.1558 -0.1379  0.0321
21216W        W36685   6.732   4.707   2.244 -0.0870 -0.0748  0.4496
21217W        W36686  11.771   8.642  13.670  0.0786  0.0557 -0.3308
21218W        W36687   4.583  11.941  13.992  0.0925  0.0164  0.2216
21219W        W36688   4.285   5.693  14.468  0.1109 -0.1445  0.2404
21220W        W36689   6.356   5.692   0.944 -0.0012 -0.0690  0.2495
21221W        W36690  16.400   7.206  10.888  0.1619  0.3882 -0.0126
21222W        W36691   0.385  11.686  12.161  0.2625  0.0332 -0.1061
21223W        W36692  16.271   6.759  11.536 -0.0256  0.0375  0.0801
21224W        W36693  15.299  16.904   4.731 -0.1780 -0.0504  0.0112
21225W        W36694   1.946   5.565  10.706 -0.0423 -0.0570 -0.4187
21226W        W36695   3.111   4.099  12.518  0.0082 -0.2503 -0.3877
21227W        W36696  14.158  18.866   5.653  0.0251  0.0664  0.0106
21228W        W36697  14.724  18.561  10.872 -0.3144 -0.2023 -0.0860
21229W        W36698   1.568  14.018  15.043  0.0314  0.1022  0.1286
21230W        W36699   4.073  10.512   1.067 -0.2331  0.1326 -0.1174
21231W        W36700   0.207   8.758   3.353  0.4123 -0.2272  0.3000
21232W        W36701  11.142  11.843  13.209  0.0040  0.2580 -0.1579
21233W        W36702  13.971   1.176   5.028 -0.0341  0.0912  0.1337
21234W        W36703   1.143  17.201  12.195  0.1968  0.0112 -0.1759
21235W        W36704   4.973  17.185  10.742  0.1437 -0.1906 -0.1049
21236W        W36705  12.973   8.101   1.220 -0.0612 -0.0832  0.0652
21237W        W36706  18.879   0.788  14.339 -0.1643 -0.0762 -0.0616
21238W        W36707   0.791  16.197   0.901  0.0352  0.1654 -0.1049
21239W        W36708   0.148   1.161   4.274  0.0846 -0.2650  0.0002
21240W        W36709  11.461  17.390  13.268 -0.1112 -0.0205  0.1184
21241W        W36710  16.121  13.909   1.537 -0.1715  0.1159 -0.0698
21242W        W36711  11.415  16.579  15.048  0.0317  0.0808 -0.0216
21243W        W36712  17.825   1.616  13.487 -0.0677  0.2324 -0.1357
21244W        W36713  13.448   2.006   0.772 -0.1893 -0.1644 -0.0291
21245W        W36714  15.814  10.056   4.900  0.0011  0.3467 -0.0320
21246W        W36715   1.471  10.783   4.209  0.0547 -0.0762 -0.1445
21247W        W36716   0.174   5.194   5.226  0.2111  0.0472  0.0846
21248W        W36717  13.178   3.587  15.409  0.2197 -0.1163  0.0638
21249W        W36718  16.907  11.009   4.989  0.3096  0.4051  0.0249
21250W        W36719   5.050   1.850   4.026  0.2265 -0.1187  0.0090
21251W        W36720   3.318  14.194  10.248  0.4889  0.0429 -0.1169
21252W        W36721  17.036  10.880   5.507 -0.0230 -0.1806 -0.1003
21253W        W36722   4.467   4.190   9.965  0.0017  0.1677 -0.0605
21254W        W36723  11.033  13.008   2.647  0.1519 -0.1138 -0.1854
21255W        W36724  18.156  13.449  15.356  0.1375  0.0592 -0.2819
21256W        W36725  16.690   3.633   2.684  0.1192  0.0494 -0.1315
21257W        W36726  15.534   7.582  13.269  0.3899  0.4110 -0.0268
21258W        W36727  12.692   6.245   2.426 -0.2134  0.2716 -0.3420
21259W        W36728  14.389  12.825   1.622 -0.0164 -0.3359 -0.0981
21260W        W36729   9.023  15.817   2.187  0.0268 -0.0805  0.5287
21261W        W36730  11.598  12.597  15.261 -0.0958  0.1259 -0.0393
21262W        W36731  18.601   5.681  13.507 -0.2276  0.1059 -0.2591
21263W        W36732  17.606  18.008   2.181  0.2654  0.0030 -0.1614
21264W        W36733  13.752   3.194  14.802  0.5206 -0.2884 -0.4121
21265W        W36734   3.731   2.050  14.484  0.1065  0.3146 -0.1500
21266W        W36735   4.317   8.831   4.513  0.0906  0.0986  0.0363
21267W        W36736  18.808   1.036  11.937  0.0501  0.1860  0.0062
21268W        W36737   5.170   2.943   3.047 -0.0433 -0.0772  0.2706
21269W        W36738  15.900   1.470   0.490  0.2267 -0.0399  0.4376
21270W        W36739   6.387   7.447  10.287  0.2142  0.2325  0.0114
21271W        W36740  18.547   3.680   4.929 -0.0943  0.0064 -0.3198
21272W        W36741   0.736  16.744   2.608 -0.1724 -0.1398  0.5069
21273W        W36742  16.291  12.625   5.090 -0.0680 -0.1542 -0.4177
21274W        W36743   3.612  12.256  15.183 -0.0957  0.2961  0.0121
21275W        W36744   3.572   0.423  15.015  0.0114 -0.1660 -0.1201
21276W        W36745   1.244  17.307   1.356 -0.1554  0.0016 -0.2029
21277W        W36746   2.227  10.835   4.146 -0.0578 -0.1224 -0.2807
21278W        W36747  10.319  17.737  14.993  0.1232  0.3617  0.3002
21279W        W36748   3.279   9.649   0.541  0.0187  0.0667  0.0826
21280W        W36749  11.582   8.911  12.063  0.0616  0.0831  0.2043
21281W        W36750   3.664   6.535  11.511  0.1470 -0.3793 -0.2811
21282W        W36751  14.371  14.772  11.729  0.0507  0.2128  0.0227
21283W        W36752  14.313   1.131   0.471 -0.2210 -0.1756  0.0019
21284W        W36753   6.124   1.748   2.188  0.1080 -0.2159 -0.0096
21285W        W36754   6.558   4.395  12.324  0.0755  0.0270 -0.0608
21286W        W36755  10.130  18.234   4.191 -0.2174  0.0339  0.1875
21287W        W36756   5.928   0.628   4.645  0.0678  0.1560 -0.4798
21288W        W36757   4.954  13.047  14.544  0.0541 -0.1021  0.0866
21289W        W36758  18.199  14.819  14.689  0.1502 -0.2677  0.0239
21290W        W36759   4.227   3.381   4.089  0.1460 -0.0523 -0.0726
21291W        W36760   6.484  18.333  12.504 -0.2463  0.1764 -0.0953
21292W        W36761  13.265   4.746  12.230  0.0422 -0.3859  0.0819
21293W        W36762  13.583  10.114  11.669  0.0920  0.0808  0.2259
21294W        W36763   9.029  11.588  13.107  0.2002 -0.2013  0.1220
21295W        W36764   8.195   3.548  11.271  0.2534  0.0325 -0.2885
21296W        W36765  16.514   7.578  11.243 -0.2293 -0.1847  0.2075
21297W        W36766   1.568   3.958   3.688 -0.0628 -0.3254 -0.1943
21298W        W36767   5.049   7.976  14.649  0.1960 -0.2835 -0.0859
21299W        W36768  18.940   0.000   3.425 -0.1672 -0.0144 -0.0306
21300W        W36769   2.495   0.885   3.137 -0.2781  0.2527 -0.4116
21301W        W36770   1.686   2.505   3.599  0.3361 -0.0026  0.2723
21302W        W36771  17.682  10.699  14.360  0.1702 -0.1012 -0.0299
21303W        W36772  12.538   6.504   3.925 -0.1629 -0.1057 -0.1105
21304W        W36773  18.507   6.268   3.415 -0.1869  0.2560 -0.2081
21305W        W36774   6.016   8.265   0.678  0.0109 -0.2953 -0.0130
21306W        W36775   8.632  14.611   0.182  0.1452 -0.0309 -0.0052
21307W        W36776   4.288   2.404   0.191 -0.0646 -0.3092 -0.0436
21308W        W36777  18.534   9.317   2.940  0.1713  0.1033 -0.0375
21309W        W36778   0.422  10.763  13.246  0.1746 -0.0598  0.2531
21310W        W36779   4.510   9.261   5.446  0.0282 -0.1271 -0.1586
21311W        W36780   6.813   1.107   5.098 -0.0319  0.4769  0.1010
21312W        W36781  17.715   9.159  12.624  0.1043  0.1128  0.2196
21313W        W36782  16.632   8.962   1.468 -0.2274 -0.2263  0.2803
21314W        W36783   6.767  12.375  13.388 -0.1934  0.0462 -0.0508
21315W        W36784   5.727  11.658  12.888  0.3712  0.2086 -0.0426
21316W        W36785  14.154  13.931   0.904 -0.0038  0.0586  0.2277
21317W        W36786   3.453   4.568   5.025 -0.0946 -0.0369 -0.1419
21318W        W36787  12.434   1.883   0.995 -0.0328  0.2510  0.2721
21319W        W36788  13.126   5.240  11.200  0.1069 -0.0693  0.1315
21320W        W36789   3.501  16.963   3.579  0.0976 -0.4150  0.1279
21321W        W36790   8.830   8.933  13.404  0.3697 -0.0407  0.0712
21322W        W36791  18.567  17.530   0.779  0.3286 -0.2086  0.2445
21323W        W36792  16.341  11.634   3.605 -0.0244 -0.1569 -0.3880
21324W        W36793   0.853  11.452   4.504  0.0551  0.1551 -0.0222
21325W        W36794  16.105  11.373  10.666 -0.1416  0.0567  0.1802
21326W        W36795  15.497  12.927   2.741 -0.2177  0.0795 -0.3082
21327W        W36796  11.890  17.823   1.517 -0.2698 -0.0194  0.1929
21328W        W36797   4.228   6.921   4.488 -0.3212  0.2649  0.0698
21329W        W36798   8.734   4.693   1.041 -0.3103 -0.1335 -0.2289
21330W        W36799   2.430  13.681  13.005  0.0331 -0.0484  0.2209
21331W        W36800   9.172  16.606  12.695  0.2939 -0.1267  0.0640
21332W        W36801   1.081   1.528   2.023 -0.3774 -0.0673  0.0286
21333W        W36802   3.937  18.283   3.438 -0.1403 -0.1268  0.1000
21334W        W36803  10.062   3.090   4.810 -0.2838  0.0020 -0.0168
21335W        W36804  17.520  12.796   0.156 -0.0804 -0.0269  0.0341
21336W        W36805   3.298   3.179  12.230  0.0474 -0.0104  0.1167
21337W        W36806  11.834   4.365   1.000  0.2123  0.0726 -0.1490
21338W        W36807  14.850   6.889   2.988 -0.1022  0.2604  0.2619
21339W        W36808   2.593  16.141   1.083  0.0072 -0.0968 -0.1680
21340W        W36809  13.634  10.496  12.058 -0.2673  0.3091  0.1347
21341W        W36810  15.265  18.092   1.950 -0.1311 -0.0414 -0.0185
21342W        W36811  12.487  14.902   3.824  0.1421  0.0709  0.2783
21343W        W36812  15.276  14.742  10.686  0.1328 -0.2708 -0.3849
21344W        W36813  17.137   9.142   4.995 -0.1478  0.4033  0.0137
21345W        W36814   4.568  12.108  12.622  0.0212 -0.3754 -0.0884
21346W        W36815  11.657   1.348   2.106  0.2871  0.1854  0.1141
21347W        W36816   6.448   3.773   3.380  0.0647 -0.0731 -0.0288
21348W        W36817  18.594   4.267   0.599  0.0576  0.2145 -0.4731
21349W        W36818  16.925  11.973  12.277 -0.1242  0.4138  0.0757
21350W        W36819  18.849  15.998  13.983  0.1864 -0.1703 -0.1676
21351W        W36820  15.245  15.862   2.617  0.0380  0.1388 -0.1781
21352W        W36821   7.330   1.087   2.093 -0.2000 -0.1743  0.0351
21353W        W36822  13.780  12.909  10.741  0.2716  0.1813  0.2300
21354W        W36823  13.969  18.549  13.192 -0.0865 -0.3625  0.0670
21355W        W36824  18.650   8.706   3.503  0.1277  0.2337  0.1101
21356W        W36825  14.546   7.529  12.408  0.2334  0.1560  0.1503
21357W        W36826   2.898   0.076   2.012  0.2822  0.2104  0.0643
21358W        W36827   1.810   6.403   2.600  0.0799  0.1610 -0.3860
21359W        W36828   8.664  16.809  13.387  0.2819 -0.2473 -0.1259
21360W        W36829   6.563  10.266   2.806  0.1201  0.0580  0.0231
21361W        W36830  13.722  16.595  11.330  0.2526 -0.0819  0.2397
21362W        W36831  14.050   4.682   1.929  0.1854 -0.3741  0.0383
21363W        W36832  18.574  18.184  11.032  0.1089 -0.2418 -0.4373
21364W        W36833   6.717  17.205   3.792  0.3507  0.1976 -0.1949
21365W        W36834  15.304   6.268   0.264  0.1006  0.0573 -0.1336
21366W        W36835  16.070   5.332  11.689  0.1685 -0.1292 -0.3293
21367W        W36836   9.949   1.018  11.378 -0.1878 -0.0967 -0.0500
21368W        W36837  13.816  13.991  15.032 -0.3837 -0.0352  0.6645
21369W        W36838   0.534  18.312  11.297  0.1825 -0.0230 -0.2917
21370W        W36839  18.276   5.671  13.869 -0.0132  0.0988  0.3194
21371W        W36840   8.502   1.850  14.730 -0.0430  0.3248 -0.5617
21372W        W36841   3.786   4.749  12.679  0.2449 -0.2379 -0.0322
21373W        W36842   3.530   9.298   1.501  0.1044  0.0946 -0.0113
21374W        W36843   3.363   6.442   1.726 -0.0781 -0.4264  0.0364
21375W        W36844  16.625   3.331  13.700 -0.0544  0.1477  0.1265
21376W        W36845   3.375  13.464   0.503 -0.3151  0.0197  0.0418
21377W        W36846  15.392   3.911   1.161 -0.0460 -0.2739 -0.1839
21378W        W36847   5.816   1.659  12.699 -0.3308 -0.1451  0.2672
21379W        W36848  13.052   6.756   0.761  0.0155  0.3131  0.2547
21380W        W36849   6.626  10.759   5.179  0.1019 -0.0561  0.0136
21381W        W36850  16.643   1.782   0.012  0.0244  0.0829  0.0387
21382W        W36851  10.268   2.510  14.216 -0.0217  0.1260  0.1148
21383W        W36852   3.815   3.090   3.984 -0.0623  0.0070  0.0415
21384W        W36853  16.213  13.430   1.688 -0.0087  0.0768  0.3390
21385W        W36854  13.521   8.010  13.746  0.1140  0.0176 -0.0226
21386W        W36855  10.288  14.988   4.712  0.1775 -0.1773  0.0121
21387W        W36856  12.113  16.503  11.814  0.0803  0.1732 -0.2604
21388W        W36857   7.718   0.832   0.297  0.0887  0.1520 -0.0265
21389W        W36858   2.067   0.430  13.910 -0.0579  0.0846  0.3156
21390W        W36859   9.357  11.232   0.699 -0.1263  0.3320  0.3511
21391W        W36860   5.021  17.503   1.657 -0.4481 -0.0373  0.0598
21392W        W36861  16.328   9.171  13.745 -0.0564 -0.2155 -0.2188
21393W        W36862  16.440   9.067  10.275 -0.0638 -0.0551 -0.2569
21394W        W36863   5.289   1.769  14.491 -0.0498 -0.0979  0.0035
21395W        W36864  13.488  14.548   4.922  0.0301  0.3286  0.1083
21396W        W36865  15.268   9.751  15.409 -0.0099 -0.1673  0.2430
21397W        W36866  14.863   4.709  13.170 -0.0561 -0.1543 -0.4083
21398W        W36867   8.446   4.433   0.614  0.1700  0.0407  0.1421
21399W        W36868   5.044   1.998   4.528 -0.2093 -0.3070  0.4197
21400W        W36869   2.734  18.583   4.284  0.1277 -0.0377  0.0523
21401W        W36870   7.452   1.832  13.395  0.3782  0.0881 -0.0964
21402W        W36871  12.513  15.386  13.602  0.0376 -0.0745 -0.0500
21403W        W36872   8.908  14.921   0.510  0.1201 -0.3997  0.0865
21404W        W36873  17.078  11.721   9.771 -0.0007  0.0222  0.0267
21405W        W36874  15.579  14.441   4.089  0.0307  0.1276 -0.1111
21406W        W36875  12.741   3.278  12.252  0.0588 -0.0325  0.2515
21407W        W36876   2.410   8.733   0.669 -0.0595 -0.1762  0.0954
21408W        W36877  11.373  12.152   0.753 -0.0504 -0.0266 -0.1192
21409W        W36878  10.677  12.767  14.202  0.0980 -0.0179  0.0338
21410W        W36879   7.872  18.230  13.689 -0.0394  0.4680 -0.1072
21411W        W36880  13.555  13.499  11.740 -0.1501  0.1507  0.3173
21412W        W36881  10.794  13.985   5.012 -0.2106  0.0738 -0.1566
21413W        W36882  16.594  12.560  13.370  0.1422 -0.1128 -0.0489
21414W        W36883   0.735   9.819  10.250 -0.1889 -0.0793  0.0554
21415W        W36884  11.383   0.491  12.983 -0.2730  0.0349 -0.1282
21416W        W36885   5.752  12.665  10.841 -0.1928  0.0268 -0.1785
21417W        W36886  13.666  18.648   4.365  0.0898 -0.1059  0.1641
21418W        W36887  10.025   5.730   1.675 -0.0217  0.1963  0.0461
21419W        W36888  14.847   8.291   0.266  0.1307 -0.3192  0.4051
21420W        W36889  12.946   8.851  15.370  0.0737  0.0386  0.0212
21421W        W36890   4.779   4.308  11.543  0.0186 -0.0221 -0.1841
21422W        W36891   1.430  17.014  13.187 -0.2011 -0.0800  0.0493
21423W        W36892  15.536  10.544  12.097  0.0212  0.1372  0.3832
21424W        W36893   5.544  13.599   1.052  0.4613  0.2914 -0.0213
21425W        W36894   2.889  11.742  11.956  0.2530  0.2400 -0.2420
21426W        W36895   0.652   1.681  13.002  0.0835 -0.0115 -0.2258
21427W        W36896   2.212   5.175  13.611  0.0521 -0.1909 -0.1150
21428W        W36897   2.134   1.350   0.754  0.2710  0.2508  0.0507
21429W        W36898  17.198   4.933   5.333 -0.0203 -0.1221 -0.1170
21430W        W36899   8.961   3.300  11.477  0.0187 -0.0467  0.0382
21431W        W36900  14.622   6.310   3.648 -0.0363  0.2978 -0.2978
21432W        W36901   2.402   8.929   1.750  0.1333  0.0465  0.0641
21433W        W36902  10.130  10.219  13.251  0.1175  0.1939  0.1108
21434W        W36903  12.366  12.057  14.086 -0.1361 -0.0923  0.1090
21435W        W36904  16.628  18.305   0.955  0.0106  0.2541 -0.1729
21436W        W36905   9.452   2.667   3.519  0.3953  0.0529  0.0614
21437W        W36906   3.694   4.648   0.786  0.2039  0.0295 -0.3750
21438W        W36907   9.029  11.094   3.385  0.0845 -0.0631  0.3000
21439W        W36908  14.236  12.150  11.624 -0.0944 -0.3571  0.0128
21440W        W36909  10.757   2.950   2.328  0.0867 -0.0477 -0.0255
21441W        W36910   8.066  18.851   3.965  0.2966  0.2518  0.0592
21442W        W36911  13.199  15.116  15.446 -0.2460  0.2832  0.0883
21443W        W36912   2.501  10.090   6.039 -0.1147 -0.1599 -0.0688
21444W        W36913  13.693   1.869   3.957 -0.0738  0.2808  0.2275
21445W        W36914   8.435   6.989   4.231 -0.1962 -0.4567  0.1145
21446W        W36915   0.507   4.384   4.263  0.0155 -0.0004  0.0576
21447W        W36916   2.997  13.159  12.334  0.0790 -0.2936  0.1231
21448W        W36917   2.492  18.617  14.443  0.1953 -0.1563 -0.0968
21449W        W36918  13.973  11.554  14.019  0.0822 -0.2680 -0.0190
21450W        W36919   3.509  12.872   5.729  0.0303 -0.3336 -0.0230
21451W        W36920  16.550  12.447  11.520 -0.1740 -0.1452  0.1148
21452W        W36921   1.024   6.869  11.244  0.1864  0.0315 -0.1293
21453W        W36922  17.477   4.209  13.773  0.3189  0.1149  0.0671
21454W        W36923   5.283  12.205   5.398 -0.1478  0.1241 -0.1109
21455W        W36924  18.572   5.734   6.024  0.2966 -0.1289 -0.2098
21456W        W36925   6.132   5.235  10.444 -0.0639  0.2722  0.0353
21457W        W36926  10.671  10.901  13.279 -0.0012  0.0830 -0.0664
21458W        W36927  12.566   0.311   4.102  0.1496  0.0705 -0.0177
21459W        W36928   2.841  18.370  14.038 -0.1649 -0.3205 -0.3375
21460W        W36929   1.657  15.537  10.526 -0.2448  0.0515  0.0796
21461W        W36930  14.424   0.827  13.588 -0.2496 -0.2354  0.2310
21462W        W36931   7.160  12.687  13.334  0.1229  0.0597 -0.0656
21463W        W36932   3.510  16.267   4.227 -0.1379 -0.1594 -0.2674
21464W        W36933   7.188  14.101   3.859  0.6237  0.3649  0.2130
21465W        W36934   5.133  17.233  11.840  0.0572  0.0216  0.1123
21466W        W36935   0.351   1.494   1.212 -0.0941  0.2276 -0.2961
21467W        W36936   1.042   3.977   1.032 -0.1183  0.2580  0.4341
21468W        W36937   3.300   6.686  14.349 -0.1472  0.1131 -0.0627
21469W        W36938   0.430  15.364   0.982  0.0476 -0.2035  0.1946
21470W        W36939   3.916   5.753   1.476  0.0296  0.0156  0.3049
21471W        W36940   7.133   3.722   3.725 -0.0582  0.1657 -0.0956
21472W        W36941   4.136   7.094  14.234 -0.1165  0.1148 -0.1841
21473W        W36942  18.891   7.297   5.869 -0.1192  0.0752 -0.0587
21474W        W36943  15.546  13.385   3.669 -0.2132  0.0903 -0.4081
21475W        W36944  14.320  14.368  14.975  0.1119  0.1361  0.2945
21476W        W36945  10.827  11.726  11.535  0.1512  0.0606 -0.0609
21477W        W36946   4.673   6.367   1.784  0.0026 -0.3039  0.0906
21478W        W36947  11.656   2.969   1.388 -0.0497  0.2192  0.3004
21479W        W36948  16.305  12.938  13.806  0.2349 -0.1670 -0.2886
21480W        W36949   2.057  15.819   5.717  0.0112  0.2907  0.0133
21481W        W36950   1.480  10.862   3.703  0.3610 -0.2340 -0.0257
21482W        W36951   8.281   1.946  13.663 -0.0357 -0.1671  0.1323
21483W        W36952   4.897  17.793  15.298  0.2022  0.0869 -0.3437
21484W        W36953  10.107   5.577   2.540 -0.2012  0.0995 -0.0457
21485W        W36954  15.425   0.303  15.365 -0.1801  0.5540 -0.1655
21486W        W36955   3.257   3.036  15.010 -0.3149  0.0563 -0.3281
21487W        W36956  15.402  16.682   0.758  0.0591 -0.0434  0.0442
21488W        W36957  15.964   8.350  11.343  0.0362  0.4045 -0.1234
21489W        W36958   5.828   1.133  11.511  0.1639 -0.1834 -0.0302
21490W        W36959  11.759   2.587   2.567  0.3683 -0.1081  0.0773
21491W        W36960  13.009   6.010  15.307  0.1348 -0.3362  0.0641
21492W        W36961  14.730  11.221  10.705 -0.0074  0.1079  0.1165
21493W        W36962  12.709  11.689   2.268  0.0101  0.0861 -0.0738
21494W        W36963   5.540  16.897   0.985  0.1332  0.3172  0.2532
21495W        W36964  18.746  18.161  12.569  0.1390  0.0702 -0.0782
21496W        W36965   5.009   0.501  12.773 -0.0577  0.0802 -0.0475
21497W        W36966  13.221  11.825   3.880  0.3370 -0.1785 -0.1670
21498W        W36967  15.725   8.291  14.308  0.3223 -0.0904 -0.0479
21499W        W36968  18.490  13.156   2.132  0.1304  0.1607 -0.0307
21500W        W36969  18.362   4.650   0.199 -0.3860 -0.1327 -0.1036
21501W        W36970  15.707   7.513  13.893  0.1956  0.0921 -0.1025
21502W        W36971  17.911   7.914  13.718 -0.0918 -0.1237  0.1834
21503W        W36972  15.315  18.705  10.819  0.2772  0.0981  0.1508
21504W        W36973   7.870   4.268  14.103 -0.3938 -0.0563  0.0228
21505W        W36974   2.574   8.879   3.272 -0.0825 -0.2996 -0.0330
21506W        W36975   7.095   0.716   4.177 -0.1914 -0.1109  0.3561
21507W        W36976  10.215  16.652  13.209 -0.1948  0.3583  0.1367
21508W        W36977   7.403  16.228  14.669 -0.2373 -0.0842 -0.0388
21509W        W36978   9.625   5.372   4.772 -0.1123 -0.0681  0.0535
21510W        W36979  11.413  17.603   1.393  0.1414 -0.0625 -0.0794
21511W        W36980   8.219  17.635   0.177  0.1811 -0.2862 -0.0327
21512W        W36981   5.306   4.277   3.015  0.0866 -0.0352 -0.0893
21513W        W36982  13.504  16.479   1.480  0.1763  0.2001  0.0723
21514W        W36983  12.560   9.829  12.550  0.1664 -0.1788 -0.1675
21515W        W36984  14.216   9.225  14.520  0.0230  0.0866 -0.0298
21516W        W36985   8.916  13.590  10.406 -0.0841 -0.0552  0.2130
21517W        W36986   0.941   7.865  11.567  0.1225 -0.1181 -0.2526
21518W        W36987   7.636   3.074   1.824  0.0523  0.0515 -0.3150
21519W        W36988  17.983   8.805   1.277 -0.5690  0.1371 -0.1524
21520W        W36989  16.195   8.298  14.563 -0.0426 -0.3116 -0.4036
21521W        W36990   2.341  15.667  15.300 -0.1766  0.2822 -0.0843
21522W        W36991  11.346  18.122  12.218  0.1196 -0.1306 -0.1778
21523W        W36992   6.390   1.202   3.484 -0.0220  0.2157  0.0999
21524W        W36993  16.249  14.677  14.224 -0.0083 -0.0291  0.1474
21525W        W36994   8.839   4.862   1.747 -0.2078  0.0104  0.2572
21526W        W36995  14.664  13.640  13.800  0.0316 -0.3052 -0.0631
21527W        W36996   5.085  13.015  15.068 -0.2953  0.1889 -0.1981
21528W        W36997  11.775   3.169   4.634 -0.0415  0.0961 -0.1804
21529W        W36998   5.700   4.077  12.510 -0.3510 -0.0875 -0.0288
21530W        W36999   0.908  16.044   0.058 -0.0560  0.0009 -0.2696
21531W        W37000   0.450   9.703  10.658 -0.3342  0.1513  0.1242
21532W        W37001  17.555   5.339  14.409  0.1407  0.5858  0.3119
21533W        W37002  13.787   3.738   1.935 -0.0978  0.3830  0.2241
21534W        W37003   8.447   2.337   2.390 -0.0188 -0.0961  0.5240
21535W        W37004  13.746  17.083  11.577 -0.1299 -0.2271  0.0634
21536W        W37005  12.628   6.406  15.155  0.1295 -0.0219 -0.0993
21537W        W37006   8.715  15.387   2.237 -0.0215  0.2557 -0.1596
21538W        W37007   7.593  10.589   3.565  0.2368  0.2147  0.0188
21539W        W37008   7.469   9.120   3.140 -0.4232 -0.1409 -0.0104
21540W        W37009   7.659  12.443  14.682  0.1089 -0.1380  0.3122
21541W        W37010   0.080   4.066   0.838 -0.0180 -0.3388  0.1078
21542W        W37011  17.260   0.581  13.288 -0.0159 -0.2563  0.1544
21543W        W37012   4.448   6.465   0.357  0.0792  0.1930  0.3124
21544W        W37013  11.886  14.549  11.527  0.0464 -0.1223 -0.1938
21545W        W37014  15.405   2.366  12.514  0.3224 -0.3295  0.1142
21546W        W37015   5.175   6.822   2.538 -0.0868 -0.0743  0.1643
21547W        W37016  17.072  12.430  12.102  0.0425  0.0389  0.2900
21548W        W37017   3.961  14.069  11.507  0.0761  0.0982  0.1234
21549W        W37018   1.831  15.690   2.485 -0.0524 -0.1978  0.0007
21550W        W37019  18.386   1.787   3.730 -0.0486  0.2636  0.0855
21551W        W37020  11.623  18.106   3.761  0.0667  0.1133 -0.2642
21552W        W37021   8.392   8.301   5.684  0.2476  0.1576 -0.0743
21553W        W37022   3.121  12.727  14.824 -0.3005  0.0703  0.3766
21554W        W37023   4.387  12.082  11.788  0.0992 -0.4673  0.1441
21555W        W37024   9.831   6.743  10.817  0.1021  0.2704  0.0512
21556W        W37025   4.323   8.873   5.221 -0.0925 -0.4994 -0.0121
21557W        W37026   4.984  16.452  13.721  0.4023  0.3957  0.1354
21558W        W37027  15.782   2.002   1.181  0.0547  0.4132  0.1351
21559W        W37028  13.775   6.298  12.848  0.1229  0.0747  0.0562
21560W        W37029   3.572   0.788  12.300 -0.0894 -0.0934  0.0278
21561W        W37030  18.409   2.240  14.168  0.3297 -0.0161 -0.1959
21562W        W37031   2.386  12.722  13.249  0.2824 -0.0315 -0.0584
21563W        W37032   4.147  17.730   5.535 -0.0273  0.3749  0.2438
21564W        W37033   7.833   3.221  11.681 -0.1094 -0.1304  0.0612
21565W        W37034   9.626   0.085   5.279 -0.0879 -0.1309 -0.0301
21566W        W37035   8.846   5.962  10.831 -0.0797  0.2763 -0.0634
21567W        W37036  15.684   3.610  11.378  0.0239  0.0525 -0.0154
21568W        W37037   1.811  14.007   4.821  0.0414 -0.1710 -0.1017
21569W        W37038  11.239  18.777   5.434  0.3690 -0.1835  0.1038
21570W        W37039   9.519  13.296   5.583  0.0661  0.3499 -0.0683
21571W        W37040   1.119   7.814   5.003 -0.0644  0.0745  0.1230
21572W        W37041  11.986  11.875   1.648 -0.0571  0.1124 -0.1904
21573W        W37042  16.125  15.139  13.170 -0.1425 -0.0984 -0.4717
21574W        W37043  17.213  18.803   3.718  0.1706  0.0374  0.0355
21575W        W37044   8.409   7.346  14.471 -0.1114 -0.0477 -0.0090
21576W        W37045  16.839   4.531   3.931  0.0348  0.0090 -0.0975
21577W        W37046  14.895  11.356  12.850  0.1625  0.2871 -0.2281
21578W        W37047  15.137  17.018  11.014  0.3036 -0.3329 -0.3015
21579W        W37048   2.385  14.831  13.637 -0.2784 -0.2430 -0.1869
21580W        W37049  14.282  13.867  14.681  0.1079 -0.4075 -0.2250
21581W        W37050  11.170   0.834   3.926  0.5181  0.2842  0.0064
21582W        W37051  14.471   3.467  12.521  0.1015  0.1103  0.2800
21583W        W37052   9.646   5.596   2.703  0.1807 -0.2769 -0.0578
21584W        W37053   0.218   3.844  12.095 -0.2094  0.0771 -0.0224
21585W        W37054  13.071   0.090  15.291 -0.0461 -0.3208  0.1240
21586W        W37055   3.860   9.366  11.622  0.1420  0.2054 -0.3492
21587W        W37056  13.418  11.906  12.358 -0.0191 -0.0161  0.1608
21588W        W37057   6.802   0.453   3.301  0.2193 -0.2826 -0.2140
21589W        W37058   1.909  15.767  10.116 -0.0103 -0.0524  0.0318
21590W        W37059   6.896  16.059   0.936  0.2254 -0.0090  0.0549
21591W        W37060   2.558  10.343   3.408  0.0789 -0.2605  0.0353
21592W        W37061  14.708   2.338  14.069  0.4051  0.0481  0.4543
21593W        W37062   6.771  16.228  15.120 -0.1834  0.2399  0.0346
21594W        W37063  16.172   5.777  14.545  0.5791  0.3622  0.1560
21595W        W37064  17.312   5.146  10.881  0.0436  0.1783  0.1728
21596W        W37065   3.189   6.013  12.896  0.1718 -0.1960  0.0053
21597W        W37066  11.272   5.965   1.386 -0.1647  0.1480 -0.0449
21598W        W37067  16.730  10.464  11.927 -0.0426 -0.0395  0.1561
21599W        W37068  11.603   6.809   1.009 -0.3103 -0.1583 -0.0234
21600W        W37069   3.038  15.129   1.335  0.2454 -0.0414 -0.0827
21601W        W37070  11.783   4.001  14.881 -0.1097  0.1849 -0.3767
21602W        W37071   4.345  16.949   0.440  0.3874  0.3714  0.0505
21603W        W37072  15.512  18.051  14.842 -0.1442  0.1949 -0.0624
21604W        W37073  16.318   5.247   3.299 -0.1644  0.0933  0.1055
21605W        W37074   6.743   1.680   2.794  0.2048  0.0025 -0.2279
21606W        W37075   2.773   5.725  14.108  0.1280 -0.2042 -0.1285
21607W        W37076   8.400  17.771   0.953  0.1846 -0.1212 -0.4068
21608W        W37077   6.327   4.330  11.729 -0.0442  0.0486 -0.3259
21609W        W37078   3.739  17.589  11.227 -0.3152 -0.0584 -0.0010
21610W        W37079   9.171  12.511  11.480 -0.0061  0.1443 -0.4458
21611W        W37080   7.588  11.939   0.951 -0.0701  0.2172 -0.3342
21612W        W37081   5.361   9.009   4.287 -0.0133 -0.1932 -0.0140
21613W        W37082   5.834  13.221   1.303  0.2390 -0.1390  0.1697
21614W        W37083  11.125   0.111  14.741  0.0684 -0.3261 -0.3083
21615W        W37084   4.367  14.050   4.286  0.0917 -0.0229 -0.0385
21616W        W37085  12.008   1.965  11.077  0.2801  0.1100  0.3267
21617W        W37086   1.169   9.040   1.941  0.0536 -0.2018 -0.1968
21618W        W37087   5.817   6.575   5.534 -0.0493  0.0876  0.2508
21619W        W37088  17.414   1.373  14.282  0.2549 -0.2949  0.3491
21620W        W37089  11.403  11.651   0.454  0.2379  0.1036 -0.0555
21621W        W37090   9.022  13.661  11.780 -0.0677 -0.3737  0.0172
21622W        W37091  15.843  10.877   1.323 -0.0840 -0.0368  0.0033
21623W        W37092  15.963   5.890  12.549  0.2191  0.1751 -0.0263
21624W        W37093  15.850  17.860   1.016  0.1454  0.0386 -0.3070
21625W        W37094   2.953   8.171   0.117 -0.3469  0.2169  0.1136
21626W        W37095   8.869  13.369  11.226  0.1215  0.2192 -0.1410
21627W        W37096   5.415  15.731   2.572  0.2822  0.0816  0.0381
21628W        W37097   9.493  14.325   0.760  0.0193  0.2777 -0.3036
21629W        W37098   6.978   0.003   1.124 -0.1995  0.1346 -0.1893
21630W        W37099  16.268  15.685  12.100 -0.2670 -0.1809  0.0142
21631W        W37100   8.265   9.772  12.995  0.3264 -0.2089  0.1014
21632W        W37101  12.424  12.261  12.692 -0.0556 -0.0000 -0.1410
21633W        W37102   0.086   4.900  15.035  0.2920 -0.2423  0.0895
21634W        W37103  11.351   2.880  14.805  0.1738 -0.1179  0.2222
21635W        W37104   9.838   7.365   1.617 -0.2979 -0.1017  0.1015
21636W        W37105  11.377  12.366   4.276  0.4738  0.0688  0.2987
21637W        W37106   6.796  18.107   3.321  0.1062  0.3778 -0.0698
21638W        W37107  12.097   4.357  13.038  0.1020  0.1904 -0.3675
21639W        W37108   4.626   1.179  15.373  0.0121  0.1925  0.2016
21640W        W37109   8.875   5.211   2.292 -0.0067  0.0034  0.0627
21641W        W37110   0.009   7.777  13.755  0.2240 -0.1333  0.1372
21642W        W37111   0.596  10.305   6.198 -0.1141  0.0221 -0.2796
21643W        W37112   4.296  18.591   0.725 -0.0221  0.1692  0.1901
21644W        W37113   3.670   6.081  14.853 -0.2824  0.2293  0.0288
21645W        W37114  14.752   1.975  10.917  0.0614  0.1172  0.0677
21646W        W37115   0.532   8.788  14.047 -0.2932 -0.0095  0.1328
21647W        W37116   5.329  17.043  15.073 -0.1606 -0.3235 -0.0842
21648W        W37117  14.391   5.299  15.167 -0.2771  0.0524  0.0154
21649W        W37118  13.430   7.296  10.545 -0.1911  0.3407 -0.2237
21650W        W37119  18.814  14.105  15.042  0.1710  0.0447  0.1058
21651W        W37120   2.367   7.640   4.157 -0.0307 -0.0237  0.0621
21652W        W37121   6.928   5.823  14.076  0.1677  0.1264 -0.1332
21653W        W37122  12.318  13.439  14.330 -0.0062  0.1563  0.1820
21654W        W37123  18.062   0.274   0.233 -0.2232  0.1417  0.0233
21655W        W37124  11.335  10.682  14.033 -0.0777 -0.1130 -0.2185
21656W        W37125   5.001  10.272  10.022  0.1461 -0.1498  0.2114
21657W        W37126  10.458  14.897   3.217  0.3006  0.0881 -0.3627
21658W        W37127   2.886  10.916   0.807 -0.1329 -0.1084  0.0672
21659W        W37128  14.552   5.511   0.062  0.0042  0.0492  0.0361
21660W        W37129   2.208   3.281  14.931  0.1747 -0.0307  0.1521
21661W        W37130   5.611   2.332  11.516  0.0656 -0.1219 -0.3185
21662W        W37131   4.693  16.478  10.074 -0.2011  0.3382  0.0246
21663W        W37132   7.501  17.793   5.856 -0.0627  0.1230  0.0035
21664W        W37133  17.548   9.487  10.594 -0.0485  0.2816  0.0733
21665W        W37134  16.627   0.756   1.755 -0.1017  0.0494  0.0425
21666W        W37135  12.222   1.213  12.858 -0.1011  0.0964  0.0346
21667W        W37136   0.165  17.208  14.145  0.0443  0.1382  0.0664
21668W        W37137  14.050  11.281   1.036  0.0543  0.0801  0.0152
21669W        W37138   5.936   2.875  15.464  0.1061  0.0007  0.0914
21670W        W37139   0.691   6.002   4.266 -0.2054  0.0059  0.2074
21671W        W37140   0.273   6.674   4.404  0.0048 -0.0654  0.0126
21672W        W37141   2.243  14.508   0.580 -0.0403  0.4627 -0.0556
21673W        W37142   2.534   9.741  12.820 -0.0177  0.3137  0.0292
21674W        W37143  17.663   3.778   4.804 -0.0810  0.1226  0.1176
21675W        W37144   6.241  14.683   2.892 -0.0028 -0.2468  0.3622
21676W        W37145   8.810  15.640  12.598  0.0502 -0.1871  0.1194
21677W        W37146  11.282   3.076   4.549  0.0529 -0.1219 -0.0620
21678W        W37147   5.612  15.613   3.029  0.1298 -0.2114 -0.0919
21679W        W37148   9.639   4.521   0.786  0.2016  0.1483  0.1214
21680W        W37149   7.488  15.796  11.381 -0.0243 -0.0622  0.0192
21681W        W37150  11.249  11.164   6.072  0.0610 -0.2540  0.1109
21682W        W37151  18.083  16.423  11.230  0.1163  0.0013  0.2418
21683W        W37152   3.066   2.571   2.065  0.2146 -0.2775  0.1733
21684W        W37153   2.796   5.220  15.245 -0.0661 -0.0741 -0.5015
21685W        W37154   1.014  13.445   3.562  0.2067 -0.0378 -0.1278
21686W        W37155  15.054   1.006  13.497  0.0639  0.0268  0.1109
21687W        W37156  10.289   2.292   2.907  0.1651 -0.1138 -0.1341
21688W        W37157   7.586  15.568   3.533 -0.1952 -0.0197 -0.0818
21689W        W37158  14.278  16.003   3.167  0.0746 -0.2982  0.0204
21690W        W37159  16.362   6.601  13.705 -0.3433  0.0953  0.3565
21691W        W37160  16.217   5.092   2.296 -0.0583  0.1147  0.0819
21692W        W37161  10.675   5.095  14.176 -0.0188 -0.1901  0.0919
21693W        W37162  17.470  10.177   4.292 -0.2786  0.0846  0.0544
21694W        W37163   9.957   3.015  14.374  0.0190 -0.0053  0.0788
21695W        W37164   7.333   6.854   5.047  0.4269  0.0562 -0.1976
21696W        W37165   2.154  14.475  11.598 -0.1235  0.0522 -0.0121
21697W        W37166   5.006  13.522  14.920  0.1851  0.2927  0.0331
21698W        W37167   0.878   1.380  14.447 -0.0075  0.0417 -0.1526
21699W        W37168  18.602  14.851   0.639  0.0374 -0.0328  0.2238
21700W        W37169   2.336   3.109   1.354 -0.1030 -0.1296 -0.0127
21701W        W37170  16.237   2.844   0.135  0.0206 -0.2412  0.2602
21702W        W37171   4.318  11.389   0.036 -0.3000 -0.0622 -0.0265
21703W        W37172  16.894  12.960   2.836  0.0077  0.0247 -0.1308
21704W        W37173   0.128   4.536  12.561  0.0209 -0.0957 -0.1785
21705W        W37174  17.549  12.570   1.996 -0.0885  0.2091 -0.1047
21706W        W37175   0.053  15.057   5.433 -0.3830  0.3116  0.2975
21707W        W37176  17.540  11.639   4.461  0.0633  0.1585  0.0795
21708W        W37177   0.514  14.935   1.392 -0.1707 -0.0761  0.1662
21709W        W37178   9.802  15.709   2.087 -0.0946 -0.0375  0.1982
21710W        W37179   4.244   6.923  12.352 -0.0508  0.3021 -0.1233
21711W        W37180  11.985   1.213   0.588 -0.3102 -0.0312  0.1185
21712W        W37181   9.435  14.674   1.195  0.0792  0.1896  0.0399
21713W        W37182  16.629  10.153   5.146  0.0509  0.3203 -0.0918
21714W        W37183   4.220  17.993   5.096  0.1944 -0.2226 -0.1716
21715W        W37184  15.495  15.416  10.018 -0.2957 -0.1593 -0.2025
21716W        W37185   3.426   6.828   0.584 -0.1546  0.3577 -0.4568
21717W        W37186  14.061  18.841   2.620 -0.2832  0.1416  0.1939
21718W        W37187   4.154  17.060   4.196 -0.0297  0.2052 -0.0944
21719W        W37188  13.611   3.747  12.222 -0.3525 -0.1433  0.2083
21720W        W37189  15.976   2.316  10.545 -0.0012  0.0465  0.0025
21721W        W37190  11.274  13.159  14.398  0.3766  0.1628 -0.0595
21722W        W37191  14.136  17.284  14.564  0.0435 -0.0446  0.0134
21723W        W37192   5.274   9.684   0.730  0.3402 -0.0659 -0.2388
21724W        W37193   2.369  12.667  15.418  0.2737 -0.1482  0.0818
21725W        W37194  11.400  17.584  14.723  0.0516 -0.1910  0.0525
21726W        W37195  16.497  10.552   4.453 -0.3300  0.1318  0.1796
21727W        W37196   9.507  11.436   2.602  0.0465  0.0514 -0.2506
21728W        W37197  18.498   5.246  10.084  0.2270 -0.1537 -0.1624
21729W        W37198   7.916   6.602   4.134  0.0590  0.1468  0.1105
21730W        W37199  10.756  16.080   1.026  0.2247  0.4560 -0.0355
21731W        W37200   8.022  11.876   4.681 -0.1077 -0.2103 -0.3773
21732W        W37201   1.373  15.457   4.488  0.0823 -0.2121 -0.0768
21733W        W37202  16.114  12.320   0.446  0.0370  0.1731 -0.0235
21734W        W37203   0.655   5.558  14.430 -0.1651  0.0055 -0.1537
21735W        W37204   1.202   6.093   4.597 -0.0306  0.2450 -0.2250
21736W        W37205  14.437  14.702   4.585  0.1220 -0.0244  0.2661
21737W        W37206  16.859  18.160  15.259 -0.1512 -0.5497 -0.0140
21738W        W37207  15.901  15.221   2.694  0.3239  0.3674 -0.2921
21739W        W37208  10.629  18.232   4.311  0.0618 -0.2555  0.2261
21740W        W37209   0.736  14.565  14.940  0.0554 -0.1841  0.0574
21741W        W37210  10.202  12.974  14.734  0.2252  0.0157 -0.0442
21742W        W37211   5.974  17.072  13.890  0.0399 -0.1253 -0.1346
21743W        W37212   8.923   0.608   2.192 -0.2258 -0.2432 -0.0469
21744W        W37213  13.866   3.208  13.633  0.1058  0.0547 -0.2746
21745W        W37214   5.990   8.448  10.354 -0.1815 -0.1622 -0.1418
21746W        W37215   7.040   5.741   2.664 -0.1414 -0.1447  0.0124
21747W        W37216  12.972   6.949  10.687  0.2646  0.0913 -0.3141
21748W        W37217   3.028   4.105   1.087  0.1595 -0.1158 -0.1370
21749W        W37218   3.732  17.318   3.935 -0.0621 -0.1202  0.0590
21750W        W37219  12.291   4.475  12.127 -0.5356 -0.1008 -0.0696
21751W        W37220  13.903   2.772   3.419  0.3450  0.0633  0.0786
21752W        W37221   1.107   3.868   2.766 -0.2744 -0.0656  0.2415
21753W        W37222  12.797   7.400   4.451 -0.0378 -0.0685 -0.1582
21754W        W37223   7.707   7.689  14.804 -0.1922 -0.0117 -0.2048
21755W        W37224  15.810   4.909   2.474  0.1072 -0.3108  0.1350
21756W        W37225   9.477  13.224   3.596 -0.1176  0.0073  0.3326
21757W        W37226   2.233   1.170   3.500 -0.0121 -0.0499 -0.0883
21758W        W37227   0.808  11.675   4.043  0.1420 -0.2490  0.2775
21759W        W37228   9.457   9.906   4.858  0.1331  0.3427  0.5594
21760W        W37229   2.059  15.060  14.482 -0.0628  0.0066  0.3439
21761W        W37230   6.520  10.950   1.412  0.2118 -0.2001 -0.0909
21762W        W37231   9.347   9.038  13.542 -0.1289 -0.0163  0.5191
21763W        W37232   3.965   0.847  14.278  0.1421  0.1217  0.3871
21764W        W37233  18.487  13.601   4.357 -0.1644  0.4675 -0.2691
21765W        W37234   8.244   3.278   4.223 -0.0900 -0.0120 -0.0428
21766W        W37235   1.805   9.036   3.710 -0.1981  0.0841 -0.2530
21767W        W37236   5.666   3.994  14.079  0.1916  0.2607 -0.2599
21768W        W37237  15.639   5.286   4.737  0.0312  0.0944 -0.0796
21769W        W37238   0.080  10.453   3.656  0.0049  0.0813  0.0060
21770W        W37239  12.278  16.791  15.127 -0.2826 -0.0905 -0.0690
21771W        W37240   8.739   3.820   4.874 -0.2374  0.2145 -0.5762
21772W        W37241  17.311  11.140   1.978 -0.3380  0.0376  0.1391
21773W        W37242   0.948  12.421   0.605  0.3570 -0.2639 -0.3583
21774W        W37243  15.378   7.348   4.233 -0.2859  0.0139  0.1016
21775W        W37244  18.711  12.631  10.633  0.2972  0.2067  0.2244
21776W        W37245  12.481   9.843   4.424 -0.1837 -0.2517 -0.1329
21777W        W37246   3.302  10.933   4.882 -0.1740 -0.2701 -0.0115
21778W        W37247   0.936  10.851   2.751 -0.0557 -0.0721 -0.3402
21779W        W37248   8.917   7.087  14.833 -0.3446 -0.3789 -0.0417
21780W        W37249   2.543   0.890   1.778  0.0005 -0.0170 -0.1531
21781W        W37250   8.391   6.063   1.701  0.3324 -0.2016  0.1509
21782W        W37251  16.465  14.783   4.414 -0.2044 -0.0764 -0.0889
21783W        W37252  14.093   7.252   2.650  0.1862  0.1956 -0.0337
21784W        W37253  11.058  11.143  15.451 -0.0930  0.1686  0.0494
21785W        W37254  18.324   8.413   1.272  0.3326 -0.0558  0.0202
21786W        W37255  11.485  10.363  11.943 -0.2071 -0.4822 -0.1603
21787W        W37256  15.664   1.451  12.765 -0.0090  0.1947  0.1742
21788W        W37257   3.335  12.472   4.227  0.1838  0.2590  0.2062
21789W        W37258  13.732   2.245   0.392  0.1434 -0.0022 -0.0048
21790W        W37259  11.185  14.559  12.194  0.0271 -0.0935  0.0544
21791W        W37260  15.141   2.668   1.062 -0.0688  0.1611  0.3285
21792W        W37261  12.738  18.296  12.657  0.1665  0.1833 -0.0966
21793W        W37262  11.055  12.994  13.965 -0.1863  0.1144  0.0912
21794W        W37263   3.895   3.406   3.115 -0.1810  0.0304  0.3611
21795W        W37264   3.940   7.327   4.861 -0.1433  0.0047  0.1706
21796W        W37265   4.190  11.122   2.995 -0.2678  0.5792  0.0682
21797W        W37266   8.297   7.688  11.138  0.2126  0.0929 -0.2080
21798W        W37267  10.704   7.321   3.324 -0.2813  0.0422  0.1091
21799W        W37268   5.227   6.880  13.194 -0.1319  0.2596  0.0218
21800W        W37269  12.145   0.134   0.406 -0.0569  0.0090 -0.1791
21801W        W37270   7.537  13.868  14.456  0.2209 -0.1559  0.0755
21802W        W37271   8.857   2.668  11.109 -0.4349 -0.0116  0.0049
21803W        W37272   5.765   7.069  14.928 -0.0462 -0.2106  0.4320
21804W        W37273  17.598   6.618   4.709 -0.0408 -0.0757 -0.0502
21805W        W37274  11.313   2.543  12.189 -0.0372  0.2261  0.2110
21806W        W37275   7.669  10.814  15.467  0.1420  0.0656  0.1697
21807W        W37276  18.395   5.948  14.357  0.0161 -0.0694 -0.2130
21808W        W37277  14.254   3.045   1.538 -0.1630  0.3206  0.1304
21809W        W37278   9.838  11.848  14.260  0.1209  0.3552  0.1438
21810W        W37279  17.244  15.778   3.128 -0.4324 -0.2050  0.0265
21811W        W37280   5.639   7.494   3.931 -0.1048 -0.0144  0.0502
21812W        W37281  17.499   4.740   2.645 -0.1966  0.0915  0.0307
21813W        W37282   0.771   3.485   3.052 -0.0881 -0.2412  0.2998
21814W        W37283   7.969   6.298  13.211 -0.1695 -0.1502 -0.0702
21815W        W37284   9.452   0.085  12.415 -0.0765  0.1239 -0.3711
21816W        W37285   9.862  13.585  13.831  0.1431  0.0307  0.1995
21817W        W37286  10.458  10.583   0.265 -0.1632 -0.1674  0.0975
21818W        W37287  16.888  12.047   3.825 -0.1053  0.0576 -0.0053
21819W        W37288  18.301   8.529  13.100  0.0252  0.3071 -0.1011
21820W        W37289   6.620   9.247  12.617  0.1190  0.6357 -0.1382
21821W        W37290  16.933   5.876   0.226  0.2163  0.1549 -0.3586
21822W        W37291  12.645   3.679  14.332 -0.0838 -0.0768 -0.1464
21823W        W37292   8.349  18.107   0.391 -0.1175 -0.5726  0.0315
21824W        W37293   1.106  16.559   0.791 -0.2519  0.0374  0.1323
21825W        W37294   2.146   0.855  12.535  0.3264  0.0017 -0.1179
21826W        W37295   2.362  11.472   2.674 -0.0353  0.2280  0.3393
21827W        W37296  14.855  14.486   4.811 -0.0611 -0.2849 -0.0257
21828W        W37297  14.471   6.706   5.464 -0.0004 -0.1970 -0.1100
21829W        W37298  12.960  10.092  13.376  0.0144  0.1494 -0.1171
21830W        W37299   6.901  10.038   0.883  0.2580 -0.1821  0.1753
21831W        W37300  10.380  13.450   2.890 -0.1073  0.3367 -0.1576
21832W        W37301  11.198   2.667  14.009 -0.1155  0.2108 -0.0922
21833W        W37302   7.709   0.777  12.928 -0.0145  0.0438 -0.1742
21834W        W37303   7.641   6.505  10.509  0.2500 -0.2846  0.1085
21835W        W37304   6.783   9.687   5.264  0.2181 -0.0259  0.0976
21836W        W37305   4.640   3.354  13.492 -0.1712 -0.0395  0.0444
21837W        W37306   5.905  10.057   4.965  0.0921  0.0580  0.0986
21838W        W37307  17.558   8.269  10.914 -0.2041 -0.2062 -0.1826
21839W        W37308  18.397   4.232  11.678 -0.3108  0.3907  0.1001
21840W        W37309  12.950   7.469   9.621 -0.3726 -0.0973 -0.3065
21841W        W37310  14.416   1.977  15.468 -0.2944  0.1802 -0.1371
21842W        W37311  11.626  17.494   0.162  0.1178  0.3020  0.2137
21843W        W37312   1.958  18.315   1.032  0.0376 -0.0730  0.0948
21844W        W37313   1.541   9.679   0.195 -0.1713 -0.0634  0.5643
21845W        W37314  17.311  12.251   1.108  0.2016 -0.0124  0.0135
21846W        W37315  13.521  10.877   1.067  0.3977 -0.1349  0.0279
21847W        W37316   4.537   6.615   4.179 -0.1325  0.0277 -0.1380
21848W        W37317  15.420  13.235  11.642 -0.0111  0.1127  0.2723
21849W        W37318  11.566   4.997  10.703 -0.2224  0.1617  0.1202
21850W        W37319   7.448  11.278   3.460 -0.0354 -0.0002  0.0550
21851W        W37320   3.713  18.808   0.303  0.1757  0.2056  0.0581
21852W        W37321  14.271   5.166   5.426  0.0752  0.1040  0.3579
21853W        W37322   4.237  18.601   0.193 -0.0531  0.2416 -0.1013
21854W        W37323  10.519   2.487  14.736  0.3411 -0.0638  0.0349
21855W        W37324   5.952  17.088   6.071  0.1279  0.2421  0.3882
21856W        W37325  12.563  13.615   5.432  0.0235 -0.1358 -0.0024
21857W        W37326  18.190  10.051   4.888  0.0690 -0.2668 -0.2308
21858W        W37327   3.085   0.617  14.724 -0.1415 -0.1273 -0.0410
21859W        W37328  16.646  10.444  12.967  0.1614  0.0960  0.2404
21860W        W37329  17.093  12.940   1.966 -0.2244  0.0625  0.0661
21861W        W37330   6.921   8.029   0.889  0.5691  0.0590 -0.2323
21862W        W37331   6.858  13.006  10.978  0.3819  0.0588 -0.1090
21863W        W37332   7.380   9.071  15.222  0.0321 -0.0698  0.1015
21864W        W37333   8.094   8.174   1.166 -0.2199  0.2414 -0.0783
21865W        W37334  11.918  13.121  13.809 -0.1416 -0.0511 -0.2538
21866W        W37335   2.545   1.633   1.175  0.2508  0.0858  0.0061
21867W        W37336   6.002  17.825   3.687  0.1039 -0.3413 -0.2691
21868W        W37337  15.733  11.292   1.803 -0.0244  0.0606  0.5642
21869W        W37338   3.055  17.150   3.335  0.0323 -0.1573  0.1760
21870W        W37339  10.723   7.185  12.300  0.3952  0.2271 -0.1110
21871W        W37340   6.623   1.616  13.572  0.1504 -0.3633 -0.0702
21872W        W37341   9.471   6.323   2.936  0.1187 -0.0327  0.0293
21873W        W37342   2.584   3.782  14.354  0.0687  0.1934  0.2671
21874W        W37343   1.739  14.786   1.955  0.1503 -0.0088  0.0647
21875W        W37344  12.705  16.211  15.451  0.0343  0.0544  0.1181
21876W        W37345   1.792   2.616   0.094  0.2497  0.0263  0.0083
21877W        W37346   9.014   1.651   2.673  0.1583  0.0832  0.3362
21878W        W37347  13.620  11.064  11.573  0.1603  0.0143  0.1932
21879W        W37348   0.632  14.069   3.695  0.1912  0.0648  0.0328
21880W        W37349   6.264   5.310   3.337  0.0122  0.1135  0.0816
21881W        W37350  12.353   7.501   3.631 -0.0412 -0.2927 -0.1603
21882W        W37351  18.889  16.617  13.543  0.1730  0.1343  0.0103
21883W        W37352   1.630  13.013   3.404 -0.3587 -0.0584 -0.0786
21884W        W37353   1.813   1.416   4.541 -0.2313  0.0633 -0.1441
21885W        W37354  14.798   5.523  12.585  0.2798  0.2001  0.0703
21886W        W37355   2.706  17.549   3.203  0.0707  0.0425 -0.1178
21887W        W37356   3.421  11.800  14.907  0.4752 -0.0725 -0.3013
21888W        W37357   6.938  11.222  12.930  0.0298 -0.0447 -0.1545
21889W        W37358  11.942  11.833   2.985  0.1164  0.1579  0.1109
21890W        W37359  10.940   3.434   4.696  0.0549 -0.2855 -0.0777
21891W        W37360   2.423  10.130  12.484  0.0149  0.0221 -0.0736
21892W        W37361  15.596   1.508  11.603 -0.0643 -0.3478 -0.0028
21893W        W37362   8.806  10.199   2.296  0.1282  0.1897  0.0547
21894W        W37363  17.240  12.752  11.672 -0.1913  0.1985  0.2700
21895W        W37364   3.642  18.513  13.019 -0.2347  0.0931  0.2570
21896W        W37365   7.719   9.889   0.000  0.1915 -0.0897  0.2201
21897W        W37366   0.081   9.478   4.556 -0.3246 -0.0373  0.2378
21898W        W37367   4.075   8.438  13.254 -0.1059  0.1583  0.0359
21899W        W37368   1.095   9.788  14.279 -0.2384  0.1808  0.1608
21900W        W37369   5.148  16.618  11.767 -0.2029  0.2327 -0.1809
21901W        W37370   9.702   6.386   2.118 -0.0890 -0.0192 -0.0393
21902W        W37371   5.669   1.737   1.218 -0.0438  0.0520 -0.0095
21903W        W37372   5.508   9.750  11.633  0.2834 -0.0464 -0.0633
21904W        W37373  13.933  11.883  11.221  0.0008 -0.2168 -0.3275
21905W        W37374   0.151   7.204  12.202  0.1484  0.2492 -0.1957
21906W        W37375  16.710  10.884  11.547 -0.1104 -0.1529 -0.2332
21907W        W37376   7.871   9.567  10.687 -0.0612  0.1130  0.0843
21908W        W37377  17.764  15.639  13.718 -0.0390 -0.4847 -0.2698
21909W        W37378  11.953   8.596  13.169 -0.0157  0.0329  0.0012
21910W        W37379  15.996   9.615   1.951  0.0204 -0.1416  0.0108
21911W        W37380  12.389   7.459   4.165  0.1620 -0.1678 -0.2193
21912W        W37381  13.358   8.776   2.981  0.0101  0.2273 -0.1281
21913W        W37382   4.624  15.384  14.688 -0.1940 -0.0564  0.2404
21914W        W37383   1.814  13.497   3.908 -0.1163 -0.0437 -0.2083
21915W        W37384  14.514  13.755   3.869 -0.3468 -0.1734 -0.1003
21916W        W37385   4.664  12.189   1.876 -0.2938 -0.0132 -0.1130
21917W        W37386   3.343   4.208   0.655  0.2327 -0.3375  0.2993
21918W        W37387   8.782   2.297   3.893  0.1681 -0.0657  0.1465
21919W        W37388   7.841   0.693  10.307 -0.1062 -0.0413 -0.2423
21920W        W37389  18.772  15.155  15.348 -0.0257  0.0938  0.0599
21921W        W37390   7.935   0.083   3.035 -0.0420  0.0239 -0.0892
21922W        W37391  15.891   1.081   1.828 -0.2222 -0.0076  0.2462
21923W        W37392   6.231  15.058  12.868 -0.5054 -0.0434  0.1359
21924W        W37393  18.591   2.667   9.594 -0.2580  0.1745  0.4115
21925W        W37394  15.036   0.660   1.558  0.0487  0.3399 -0.4687
21926W        W37395   3.410  15.250   2.661  0.0584  0.1462 -0.0974
21927W        W37396  10.945   6.085   1.733 -0.2840  0.0884  0.0783
21928W        W37397   3.238   2.187   0.965 -0.1329 -0.2292  0.0756
21929W        W37398  13.761   4.180  12.712  0.2562  0.2288 -0.1202
21930W        W37399   5.921   0.813  12.393  0.0307  0.4352  0.0092
21931W        W37400   4.772   0.805  12.412  0.5073  0.0848  0.2259
21932W        W37401   6.591   3.055  15.399  0.0497 -0.1271 -0.0935
21933W        W37402   4.381  17.074  11.810  0.1176 -0.2154  0.0562
21934W        W37403   3.120  17.069   4.532 -0.1084  0.0309  0.0022
21935W        W37404   2.558   6.683   0.711  0.2161  0.2517 -0.0189
21936W        W37405   4.679   7.684   2.178 -0.2286  0.2933 -0.0454
21937W        W37406  16.292  16.502  12.879 -0.0090 -0.1791  0.0410
21938W        W37407   9.970  11.650  13.540 -0.1560 -0.1345  0.2823
21939W        W37408   0.888  12.883  12.808  0.1074 -0.1236 -0.0764
21940W        W37409   2.035   7.536   3.587 -0.4857 -0.1295  0.3470
21941W        W37410  10.782   8.015  12.201 -0.4768  0.0109 -0.0076
21942W        W37411  14.084   7.537  12.195 -0.1595 -0.0421 -0.0213
21943W        W37412   3.002  17.262  13.189  0.0169 -0.0861 -0.1239
21944W        W37413   5.322  13.494  13.406 -0.0138 -0.0231 -0.1614
21945W        W37414   2.381  15.360   4.723  0.2017  0.0307  0.0447
21946W        W37415  17.695   8.527   5.900 -0.1697  0.0619 -0.1939
21947W        W37416   9.976  15.033   5.633  0.0034  0.4694  0.0858
21948W        W37417   8.255   7.946   0.767  0.1515 -0.1927 -0.4507
21949W        W37418   8.326  10.555   2.280 -0.2603 -0.1510  0.0578
21950W        W37419  17.337  14.996  10.561  0.1285 -0.1940  0.1205
21951W        W37420  11.679  18.179   4.410 -0.0759  0.0134  0.1709
21952W        W37421   4.931  14.145   2.708  0.2000  0.1088  0.1051
21953W        W37422   4.884   8.774   0.379  0.1290 -0.2137  0.1821
21954W        W37423  15.437  18.192   2.408 -0.0880  0.1558 -0.1478
21955W        W37424   2.471  14.145  11.953  0.2782  0.1300  0.0107
21956W        W37425  18.662  16.674  10.627 -0.0534 -0.0984  0.0485
21957W        W37426   0.436   9.167   3.145  0.1550 -0.0982  0.0391
21958W        W37427  10.441  14.580   1.814  0.1579  0.4548  0.3428
21959W        W37428   6.867   3.910  12.589 -0.0428 -0.0619  0.0609
21960W        W37429  14.932   1.008  10.286 -0.1303  0.1213 -0.0191
21961W        W37430  16.878  17.632   1.918 -0.1589 -0.1109  0.1940
21962W        W37431   5.324  13.307   0.688  0.3240  0.2396 -0.0988
21963W        W37432   4.535  13.418  14.822  0.2907  0.3140 -0.2608
21964W        W37433   3.326   2.951   0.373  0.0885  0.0478  0.0219
21965W        W37434  15.632  10.830   0.833 -0.2997 -0.1573  0.1004
21966W        W37435  15.103   1.369  12.572  0.1957  0.2533  0.0907
21967W        W37436   2.370   6.975  12.080  0.1143  0.0388 -0.0787
21968W        W37437   6.354   4.322   4.089  0.0116  0.0153  0.0836
21969W        W37438   0.526   3.636   4.749  0.1654  0.3018  0.1217
21970W        W37439   1.627  11.647  12.607  0.3784  0.0362  0.1806
21971W        W37440   0.718  10.696   0.515  0.1361 -0.2813 -0.1943
21972W        W37441   3.248   7.130   1.650 -0.1163  0.2359 -0.0001
21973W        W37442  10.518   8.767   1.939  0.2868  0.1841 -0.0663
21974W        W37443   4.799   1.079  10.704  0.2010  0.1620 -0.2337
21975W        W37444  11.668   7.063  10.593  0.2992  0.3000 -0.2103
21976W        W37445   3.006   0.674   4.247 -0.0568  0.1601  0.0271
21977W        W37446   4.841   2.060   1.652  0.1692 -0.0107  0.0410
21978W        W37447   2.013   9.883  10.622 -0.0279  0.0670 -0.1838
21979W        W37448  16.760  15.546  13.903  0.1408  0.0290  0.3276
21980W        W37449   2.843  13.995  12.704  0.1324  0.3754 -0.2277
21981W        W37450  17.785   3.774  12.313 -0.0133  0.2509 -0.0346
21982W        W37451  14.592  18.172  13.791 -0.2203  0.1895 -0.0077
21983W        W37452   0.047  15.463   1.309 -0.0575  0.1722 -0.4101
21984W        W37453   2.129   7.271   1.729 -0.2286 -0.0927  0.1517
21985W        W37454   0.365  13.284   1.709  0.0159  0.0969  0.0866
21986W        W37455  17.037  11.047   3.330 -0.0201  0.0341 -0.1435
21987W        W37456  18.869  13.381   3.565  0.0613 -0.1747  0.1411
21988W        W37457   1.613  13.029  10.033 -0.0859 -0.0773  0.1571
21989W        W37458   9.637   4.140   4.323  0.1312 -0.0791  0.1455
21990W        W37459  17.380   7.387   5.397 -0.0814 -0.1345  0.1091
21991W        W37460  13.397   3.954   0.929 -0.2296  0.0206 -0.1995
21992W        W37461   1.086  11.622  13.968  0.0810 -0.1062 -0.2556
21993W        W37462  10.944  12.065   1.629 -0.1641  0.1447  0.2201
21994W        W37463  13.203   2.064  12.406  0.1444  0.0608  0.0164
21995W        W37464   0.146   7.604  12.774  0.2347  0.1062 -0.0005
21996W        W37465   5.293   2.927  12.633  0.0910  0.0568 -0.3901
21997W        W37466  11.500   7.270  15.364  0.0060  0.1255  0.2656
21998W        W37467   6.405  16.028   5.016 -0.0290 -0.1627  0.3315
21999W        W37468   4.883   6.439  10.811 -0.2082  0.0932 -0.0116
22000W        W37469  10.877   1.425  11.801  0.5398 -0.1583 -0.2153
22001W        W37470   1.517   8.369   1.194  0.0218 -0.0868 -0.3187
22002W        W37471  15.139  11.761  10.002  0.2133  0.0006  0.0374
22003W        W37472  12.720   1.507   1.709 -0.1466  0.0839  0.0497
22004W        W37473  14.060  14.073   2.728  0.0385  0.0762 -0.0190
22005W        W37474   8.346  11.068  12.816 -0.2788  0.0273 -0.2913
22006W        W37475   6.041  18.476   1.831 -0.1203 -0.1610  0.0894
22007W        W37476   7.907   9.863   4.993  0.2618 -0.0360  0.3235
22008W        W37477  10.116  14.988  12.311 -0.0436 -0.0379 -0.0727
22009W        W37478   7.144  15.196  11.724 -0.1229 -0.2215  0.2273
22010W        W37479   7.156   1.334   0.772  0.2843 -0.0920  0.2268
22011W        W37480  16.820   9.806   2.588  0.0006 -0.0310 -0.1892
22012W        W37481   0.286  15.149   5.927 -0.1381 -0.1493 -0.0325
22013W        W37482  17.322   4.491  15.018  0.3609 -0.1380 -0.1354
22014W        W37483   2.522   0.660   1.287 -0.0380  0.0706  0.3485
22015W        W37484   7.099  15.799  13.746  0.1196 -0.2572  0.1022
22016W        W37485  16.273   4.590   2.451  0.1685  0.3294 -0.4963
22017W        W37486  12.108  11.875   4.528 -0.2474  0.2490 -0.1754
22018W        W37487  10.689  18.065   5.890 -0.1941 -0.1450  0.0876
22019W        W37488   2.888   5.340  10.218  0.1166 -0.1526 -0.2779
22020W        W37489  14.617   1.297  12.481  0.0794 -0.0873  0.0003
22021W        W37490  12.005   1.464   3.741 -0.2102 -0.3438  0.2216
22022W        W37491  14.285  18.468  14.110 -0.1722  0.0258  0.1348
22023W        W37492  17.219   6.927  10.767  0.0453  0.1340  0.5196
22024W        W37493   6.316   8.549   2.099  0.1251  0.0178 -0.0218
22025W        W37494  12.525  11.102  12.124 -0.4571 -0.2762 -0.0496
22026W        W37495  18.301  10.047   1.055  0.0658 -0.3768  0.2282
22027W        W37496   7.677   8.219   0.002  0.0232 -0.1296  0.0648
22028W        W37497  15.053   3.972   0.789  0.1044  0.0026 -0.0064
22029W        W37498  13.088  13.256  12.647  0.5109  0.1027 -0.1695
22030W        W37499   2.398   0.956   5.716 -0.4462  0.0161 -0.3512
22031W        W37500  18.378  13.472   1.287 -0.1071 -0.3641  0.3802
22032W        W37501  16.690   3.633   5.401 -0.1776  0.0491  0.2283
22033W        W37502   4.186  14.571  14.586 -0.1805  0.0655  0.4239
22034W        W37503   6.413   5.682  13.483 -0.3878  0.0229 -0.0594
22035W        W37504  10.747   1.529   1.897 -0.0665  0.0463 -0.2909
22036W        W37505  14.293  10.985  12.244  0.3301 -0.2000  0.1546
22037W        W37506   8.169  12.744   4.872 -0.1103 -0.1167 -0.3042
22038W        W37507  11.705   0.129  13.255 -0.3301 -0.1535 -0.2251
22039W        W37508   9.786   8.323   4.703 -0.4677 -0.2601  0.2672
22040W        W37509   3.797  10.427   3.713  0.1245 -0.4311  0.1630
22041W        W37510  14.414  15.229  14.604 -0.1066  0.1265 -0.1362
22042W        W37511  10.856  14.447   0.753 -0.1095  0.1995 -0.2020
22043W        W37512  18.422   1.333  11.673  0.1041 -0.1170  0.1427
22044W        W37513   6.691  17.399   1.185  0.1545  0.1144 -0.3239
22045W        W37514   3.749   3.419   0.317  0.0109 -0.1359  0.0627
22046W        W37515   7.259   1.542  11.878 -0.0251  0.3250 -0.0087
22047W        W37516   6.774   2.929   2.208 -0.0878 -0.1278 -0.0077
22048W        W37517  15.618   7.715  15.131  0.5233  0.0482  0.1283
22049W        W37518  13.909   4.997  12.704 -0.0867 -0.2800 -0.4782
22050W        W37519   6.556   4.815   3.279 -0.2194 -0.3508  0.1091
22051W        W37520   1.761   5.894   2.713  0.1032  0.0140 -0.3304
22052W        W37521   5.238  17.608  10.937  0.1521  0.2309  0.1989
22053W        W37522   6.584  11.335  15.438  0.2883  0.1831 -0.1612
22054W        W37523  11.910   4.834  12.178 -0.2574  0.2663 -0.0452
22055W        W37524   1.833   7.545   4.878  0.1707 -0.2478  0.1540
22056W        W37525   7.818  14.583   3.490  0.0550  0.2495 -0.1336
22057W        W37526  16.379   0.990   3.045 -0.0790 -0.0351 -0.0679
22058W        W37527  16.587  16.061   0.857  0.1234  0.1590 -0.3735
22059W        W37528   4.374   0.043  14.115  0.1068  0.0859  0.1110
22060W        W37529   2.399  10.820  14.822 -0.1754  0.2649  0.1167
22061W        W37530  11.791   7.590  10.703  0.3052  0.1353 -0.0447
22062W        W37531  16.646   7.073   4.932 -0.1024  0.2230 -0.0271
22063W        W37532  15.718   2.685   5.338 -0.1718 -0.0612  0.5464
22064W        W37533  16.590   7.156   4.369  0.0101  0.2757 -0.0819
22065W        W37534   9.213  18.654  10.435 -0.0964 -0.2340 -0.0533
22066W        W37535  12.281   6.065  15.294  0.0550  0.0663 -0.1755
22067W        W37536  14.355  13.363   1.470 -0.0009 -0.2737 -0.1877
22068W        W37537   5.888   6.475   0.459 -0.0893  0.0025  0.0604
22069W        W37538   6.722  11.767  11.773 -0.0244 -0.1000 -0.0372
22070W        W37539  14.048  14.626   5.373 -0.3953  0.3900 -0.0687
22071W        W37540   9.170   3.626  13.472 -0.1632  0.0247 -0.1815
22072W        W37541   4.966  14.225  10.594 -0.4327 -0.2825 -0.1705
22073W        W37542   7.291   1.923  10.628 -0.0483  0.1401  0.1026
22074W        W37543   2.826  13.390   2.049  0.1163 -0.1755 -0.3788
22075W        W37544   1.788  14.524   0.821  0.0859  0.1213 -0.0898
22076W        W37545   9.752   6.895  14.202 -0.1489 -0.1439  0.0246
22077W        W37546  12.963  15.821   0.082  0.2311 -0.3140 -0.0603
22078W        W37547   6.979  15.980  12.201  0.3027  0.1441  0.5795
22079W        W37548  11.555   7.193  14.464 -0.0106 -0.0810 -0.0908
22080W        W37549  12.972   7.588   3.675 -0.1909 -0.1950 -0.2706
22081W        W37550  18.090  13.058   5.026 -0.2434  0.0745  0.1997
22082W        W37551  17.623  17.277   0.874 -0.3997 -0.1680  0.2712
22083W        W37552   4.362  14.577   0.935  0.0988 -0.0174  0.2094
22084W        W37553  13.618   9.684   2.106 -0.0765 -0.1966  0.0244
22085W        W37554   2.150  10.556   0.213  0.0062  0.3417 -0.0960
22086W        W37555   9.718   8.673   2.640  0.0294  0.1907 -0.0907
22087W        W37556   0.924  13.027  12.280 -0.0583 -0.3033 -0.2670
22088W        W37557  16.195  10.976  12.964  0.2860  0.1537 -0.2339
22089W        W37558   0.942   8.524   2.696 -0.3809 -0.2678 -0.0027
22090W        W37559  12.144  16.305   3.272  0.1539 -0.0291 -0.0698
22091W        W37560   5.521  10.754  11.645 -0.4231  0.0404  0.2751
22092W        W37561   1.024   5.307  11.691  0.3084  0.1724  0.1251
22093W        W37562  17.756   6.647   3.181  0.4950  0.1923 -0.0898
22094W        W37563  10.531  13.025  11.688 -0.1186 -0.0036 -0.2627
22095W        W37564   5.448  18.458  12.949 -0.2027  0.1878  0.1276
22096W        W37565  11.470  10.216  10.818  0.0045  0.1912 -0.1102
22097W        W37566  17.305   0.123  15.203 -0.0874  0.1388 -0.1266
22098W        W37567  13.875   3.413   3.099 -0.2071 -0.2883 -0.0477
22099W        W37568   7.948   8.643   0.289  0.2911  0.4205 -0.0942
22100W        W37569   6.902   3.389   2.320 -0.1038 -0.1112 -0.2210
22101W        W37570   0.362  16.021  10.718  0.0532 -0.2916 -0.0839
22102W        W37571   6.753   8.380   2.520 -0.2080 -0.3853 -0.1577
22103W        W37572  17.444   4.218   2.877  0.2063 -0.1043 -0.0283
22104W        W37573   8.637   3.029   4.205  0.0643 -0.2033 -0.0422
22105W        W37574   6.315  11.859  15.195 -0.0315  0.3347  0.3223
22106W        W37575   6.532  15.102  13.870  0.0409  0.0074  0.0149
22107W        W37576   2.014   0.565   5.049 -0.0395  0.0715  0.2843
22108W        W37577  17.649  12.956  10.731  0.0025 -0.1415  0.1786
22109W        W37578   7.766  16.347  12.546 -0.5394  0.1024  0.2106
22110W        W37579  10.215  13.873  14.832 -0.1362 -0.1041 -0.1126
22111W        W37580  18.649  15.349   0.402 -0.3296  0.0315  0.0473
22112W        W37581  13.163  13.099   0.762  0.0008 -0.2847  0.3333
22113W        W37582   0.463  15.015   3.918 -0.2641 -0.0280 -0.2520
22114W        W37583   0.820   3.110  12.148 -0.2518 -0.3317 -0.1544
22115W        W37584   9.902   9.979   0.825  0.1440 -0.0918  0.2108
22116W        W37585   4.283   2.641   5.398 -0.3513  0.1666 -0.0380
22117W        W37586   3.470  18.305   3.710 -0.2705 -0.1657  0.1570
22118W        W37587   3.346  15.643  10.131  0.0635 -0.3575 -0.0300
22119W        W37588   2.983   6.084   1.786  0.1078  0.1756  0.3482
22120W        W37589   1.225   1.355  15.423 -0.0100  0.0047  0.3830
22121W        W37590  18.805   9.139   3.382 -0.0119 -0.3505 -0.0430
22122W        W37591   5.061  13.073   0.340 -0.1260 -0.3537 -0.0487
22123W        W37592   7.110   3.924   0.411 -0.3080  0.0510  0.1838
22124W        W37593   4.823   2.155  15.385  0.0550 -0.0269  0.1194
22125W        W37594  14.937   8.940  14.152 -0.0345  0.0064 -0.0503
22126W        W37595   8.167   5.740   2.017  0.2588  0.0277 -0.0775
22127W        W37596  10.893  10.158   1.117 -0.1065 -0.2423 -0.0206
22128W        W37597   7.899  17.897   0.643 -0.1625 -0.1154 -0.3188
22129W        W37598   5.242   0.884  13.736  0.0235 -0.0392 -0.0569
22130W        W37599   6.626   9.763   0.552 -0.0347 -0.1282 -0.1551
22131W        W37600   1.030  10.789   3.912  0.1957  0.1360 -0.2027
22132W        W37601   7.270   0.954   5.230 -0.1785  0.2493  0.3248
22133W        W37602   4.438   2.942   0.240 -0.1504  0.2978 -0.0627
22134W        W37603   2.173   3.040  12.089  0.2543  0.0426  0.3134
22135W        W37604  13.973   9.250   4.236 -0.2214 -0.0030 -0.0633
22136W        W37605   4.250   1.054   0.483  0.0171  0.0548  0.2267
22137W        W37606   0.553   6.205  15.103  0.1483  0.0193  0.2360
22138W        W37607   0.919   4.524  14.160 -0.0931  0.1877 -0.1221
22139W        W37608   3.851   1.090  13.338  0.1374  0.1796 -0.0112
22140W        W37609   5.621  16.295  14.586 -0.3022 -0.1396 -0.1628
22141W        W37610  14.743  12.739  13.673 -0.0617 -0.1575  0.0013
22142W        W37611   5.886   4.232   5.145 -0.3292  0.0416 -0.1345
22143W        W37612   4.866  11.022   5.309  0.3609 -0.3032 -0.0349
22144W        W37613   4.191  18.101  14.400 -0.2148  0.2186 -0.2619
22145W        W37614  16.055  15.404  11.720 -0.0015  0.0915  0.2742
22146W        W37615  10.700   1.778   4.860 -0.0067  0.1490 -0.4205
22147W        W37616   3.488   5.011   2.670  0.1030  0.3742  0.1356
22148W        W37617   7.374   2.289  15.410 -0.0670  0.2040  0.0915
22149W        W37618   3.068   5.223  14.202 -0.0357 -0.0413 -0.2485
22150W        W37619  13.713   1.216   0.495 -0.2838  0.2056  0.2726
22151W        W37620  15.866   9.781   3.473  0.1445 -0.0163 -0.2787
22152W        W37621  17.572   9.051   2.754 -0.0482  0.2471 -0.2071
22153W        W37622   3.264  15.762   5.734 -0.0261  0.1531  0.1794
22154W        W37623   4.659   8.384   0.699  0.2525 -0.0938  0.1693
22155W        W37624  15.327  13.336  12.303 -0.1489 -0.1677 -0.5184
22156W        W37625  18.834  13.946   2.966 -0.1611  0.0064 -0.0157
22157W        W37626  15.137  12.743   2.011  0.0173 -0.3335 -0.2794
22158W        W37627  15.687  16.562   2.563 -0.1229 -0.0281 -0.0526
22159W        W37628   3.660   6.436   0.966 -0.0968  0.2560  0.0770
22160W        W37629   5.506   9.586   1.363  0.0036 -0.2550 -0.1151
22161W        W37630   7.791  15.352   1.391 -0.0457  0.0313  0.2352
22162W        W37631  10.482   7.696  12.485  0.1304  0.2071 -0.3736
22163W        W37632  10.573  13.049   4.701  0.5803 -0.1118 -0.1585
22164W        W37633  16.455  10.770   0.628  0.2175  0.1279  0.0658
22165W        W37634  17.801  12.244  12.582  0.1459  0.0761  0.2906
22166W        W37635  14.661   9.362   9.732 -0.4475  0.2231 -0.2529
22167W        W37636   8.276   1.182  14.386  0.1079  0.4100 -0.0583
22168W        W37637   1.545  12.569  14.097 -0.1024  0.3666  0.1108
22169W        W37638   0.536   3.743  10.193  0.1822 -0.0492  0.0136
22170W        W37639   8.639  11.105   3.026 -0.1364  0.0840  0.1196
22171W        W37640   4.061  12.366   9.935 -0.0860 -0.2737  0.0104
22172W        W37641  10.088   8.439   4.294 -0.1273  0.1562  0.3701
22173W        W37642   2.514  13.396   2.803  0.1598 -0.1651 -0.1935
22174W        W37643  10.063  17.586   1.682 -0.2185 -0.2167 -0.0794
22175W        W37644   9.027   1.521   0.311 -0.1026  0.3033  0.3742
22176W        W37645  16.155  18.021  12.775  0.1767 -0.1015  0.0562
22177W        W37646  17.680  18.171  14.103  0.0349 -0.0595  0.1337
22178W        W37647   9.477   4.796  10.755 -0.1099 -0.2384 -0.0988
22179W        W37648  17.664   9.927   3.245  0.2292 -0.1754  0.2900
22180W        W37649   5.081   7.704   2.844  0.1530 -0.0003  0.0137
22181W        W37650  10.496  17.641   5.524 -0.0477 -0.2792  0.1579
22182W        W37651  17.713  13.474   3.931  0.0844  0.2409  0.0636
22183W        W37652   5.796  10.690  14.017 -0.2930  0.2244 -0.1418
22184W        W37653   0.456  17.179   4.269  0.0030 -0.1455 -0.0375
22185W        W37654  11.041  17.651   1.678  0.2346  0.2886  0.1042
22186W        W37655   3.914   5.400  12.319 -0.0035  0.1042 -0.3824
22187W        W37656   8.248  11.982  10.409 -0.2007 -0.3917 -0.0436
22188W        W37657   2.614  13.126  12.900  0.1718 -0.3318  0.1568
22189W        W37658   5.317   1.010  11.596  0.1169  0.2616  0.2192
22190W        W37659   3.804  14.995  14.697  0.2756 -0.1448  0.1805
22191W        W37660   8.512   2.732  12.110 -0.0502  0.2779  0.1706
22192W        W37661  12.757   0.949   0.063 -0.1532  0.3913 -0.1908
22193W        W37662   7.069  16.670   2.710 -0.2029  0.2538 -0.1889
22194W        W37663   0.939   0.145   2.947 -0.0409  0.3902  0.0272
22195W        W37664   0.946   0.939   2.075  0.1969  0.3400  0.1951
22196W        W37665   3.305   0.955   3.821 -0.0741 -0.1481 -0.2737
22197W        W37666   4.843   7.460   1.769 -0.0146  0.1442 -0.2700
22198W        W37667   3.543   6.185  10.903  0.0613  0.1108  0.1268
22199W        W37668   1.159   2.083  11.548 -0.0459  0.2515 -0.3436
22200W        W37669  16.417   5.037   0.225 -0.1434 -0.2720 -0.0767
22201W        W37670  16.667   9.002   0.016 -0.4135  0.0951  0.1800
22202W        W37671  11.936   8.950   4.455 -0.0143  0.2413  0.2214
22203W        W37672  10.184  11.075  12.829  0.0207  0.0707  0.2484
22204W        W37673   5.897   6.999  12.377 -0.0212 -0.0777  0.0792
22205W        W37674  13.270   2.551  14.059  0.1712 -0.1220 -0.1287
22206W        W37675   5.741  10.869  13.553 -0.3510  0.2748  0.3453
22207W        W37676  18.541  14.487  14.886 -0.1179  0.2619 -0.0133
22208W        W37677   2.458   3.735   3.749 -0.4493  0.0254 -0.1078
22209W        W37678   4.337   7.404   4.532  0.2351  0.1056 -0.0561
22210W        W37679   0.704  14.058   4.404 -0.2434  0.0903 -0.1016
22211W        W37680   8.553   7.935   9.513  0.1587 -0.0033 -0.4349
22212W        W37681   3.787  14.311   4.023  0.2626  0.5505 -0.1946
22213W        W37682   5.642   3.938  10.719  0.0386  0.1237  0.1330
22214W        W37683   5.603   2.216   1.265  0.2258  0.1367  0.3098
22215W        W37684   6.986  12.046  10.887  0.1173 -0.1883  0.1632
22216W        W37685   4.268  14.244   5.809  0.3345  0.2292  0.1163
22217W        W37686   4.978   9.712   0.058  0.1377 -0.0559  0.2000
22218W        W37687  15.150   3.278   1.732  0.0565 -0.0885  0.0373
22219W        W37688  10.346  15.795  13.905  0.1506 -0.1754 -0.1391
22220W        W37689   2.546   8.075   2.144  0.2694 -0.1713  0.4858
22221W        W37690   3.490   8.176   1.771  0.1693  0.0009  0.2890
22222W        W37691   9.190   1.648  11.068 -0.0248  0.1324  0.2065
22223W        W37692   8.543   9.599   0.390  0.0318  0.1167  0.0540
22224W        W37693  10.991   8.453   0.579 -0.2805 -0.1509 -0.0953
22225W        W37694  10.234   8.061   3.930  0.1248 -0.5914  0.2446
22226W        W37695   6.235  17.409   3.775  0.3570  0.2023  0.3214
22227W        W37696  12.729   5.933   3.896  0.1209 -0.0918 -0.0017
22228W        W37697   8.303  11.505  14.801 -0.1588  0.3565  0.1867
22229W        W37698  18.786  14.860  12.373  0.0354  0.3856  0.5146
22230W        W37699   6.148   2.714  14.607  0.1384 -0.1784 -0.0350
22231W        W37700   8.343   5.266   2.388  0.2011 -0.1516  0.2328
22232W        W37701   1.098   1.830   3.245  0.0948 -0.1354 -0.1534
22233W        W37702   8.532  15.217   0.529 -0.0178 -0.3745  0.1162
22234W        W37703   5.798   5.039  13.895  0.0048  0.0418 -0.0766
22235W        W37704  13.585   7.950   3.287  0.3065  0.2931  0.3527
22236W        W37705  17.370  10.372  11.322 -0.0019  0.1367  0.0175
22237W        W37706  12.512   5.604  13.198  0.2686 -0.2413 -0.2794
22238W        W37707  17.236  18.299   4.466  0.1817  0.0211 -0.1715
22239W        W37708  16.424   9.197  14.964  0.0323 -0.1086 -0.2656
22240W        W37709  18.361  10.803  14.055 -0.0446 -0.2792 -0.0075
22241W        W37710   8.350   9.628  10.936 -0.4097  0.1914  0.1842
22242W        W37711   8.257  15.428   1.629 -0.2044  0.1851 -0.0957
22243W        W37712   3.728   6.364  13.949  0.1320 -0.0574 -0.1338
22244W        W37713   8.727  12.791  12.570 -0.2352 -0.0529  0.1135
22245W        W37714  14.116   4.107   0.763  0.1665 -0.3170 -0.1603
22246W        W37715   4.427  11.086  10.576 -0.2498  0.1027  0.3888
22247W        W37716   7.434   9.718  14.212  0.1712 -0.0578  0.3228
22248W        W37717   6.077   4.047   1.236  0.1482  0.0041 -0.1182
22249W        W37718   1.493   7.608  15.501 -0.0884  0.0721  0.3308
22250W        W37719  10.380  11.287  15.413  0.0526  0.1649 -0.0240
22251W        W37720   9.486   4.932   2.567  0.0956  0.0843  0.2702
22252W        W37721   9.995   4.028  14.873 -0.3120 -0.2097  0.0447
22253W        W37722   8.934   2.778   3.442  0.3308  0.1459  0.1725
22254W        W37723  12.840   6.987  11.833 -0.2517 -0.1700 -0.3536
22255W        W37724  11.306   5.132   2.594  0.0656  0.0483 -0.1102
22256W        W37725   4.146   6.332   4.576  0.1793 -0.3976  0.1501
22257W        W37726  18.517   3.827  13.267 -0.2338 -0.2032 -0.0902
22258W        W37727  15.511   4.184  14.925 -0.0405 -0.0663 -0.0740
22259W        W37728   1.352  18.278  14.373 -0.0005  0.0269  0.0788
22260W        W37729  10.533   4.812  13.093 -0.2847  0.4225 -0.0135
22261W        W37730  10.713  15.141   6.154  0.1966  0.1660  0.4421
22262W        W37731   5.249   8.638  10.749 -0.1866  0.1172  0.1535
22263W        W37732   2.711   4.257   2.736  0.0278  0.1723 -0.0948
22264W        W37733  13.752   4.608  12.331 -0.2612 -0.0487 -0.0011
22265W        W37734   3.717   6.837   3.820  0.2175  0.2444  0.2481
22266W        W37735   3.030   3.300  15.442 -0.0505 -0.1196 -0.0516
22267W        W37736  16.002  17.432   3.559 -0.4276 -0.3009  0.0125
22268W        W37737  10.479   2.651   1.948  0.2207  0.0304 -0.2263
22269W        W37738   8.793  13.707   2.952 -0.0165  0.0206  0.4369
22270W        W37739  13.614  18.319   0.312  0.2859  0.0654 -0.0131
22271W        W37740  10.519   0.928   5.186  0.4338  0.0730  0.2171
22272W        W37741  17.086  10.479  13.417 -0.0410 -0.1032 -0.2107
22273W        W37742   8.965   7.083  13.607  0.0462  0.1843 -0.0265
22274W        W37743   1.259   5.991   3.414 -0.2182 -0.2888  0.0680
22275W        W37744   6.989   7.716  10.890 -0.1418 -0.0935  0.3527
22276W        W37745   6.301   4.628  13.768  0.2523  0.0727 -0.4560
22277W        W37746  17.726   3.041  10.536  0.1961  0.4407 -0.1584
22278W        W37747   1.117   3.272   0.198  0.2467 -0.0348  0.1989
22279W        W37748   4.557  13.945   4.965  0.1141 -0.1080  0.3293
22280W        W37749  14.479  14.147   3.142  0.1046  0.2127 -0.1392
22281W        W37750   4.361  10.093   1.119  0.0127 -0.1146  0.1250
22282W        W37751   5.857  15.015  11.579  0.0724 -0.1873 -0.0165
22283W        W37752  14.809   6.504   2.407 -0.1918 -0.0481  0.1580
22284W        W37753   7.399  11.722  13.650 -0.0790  0.1620 -0.1700
22285W        W37754   0.260   5.636  11.790  0.0999 -0.0336 -0.2084
22286W        W37755  16.321   2.649   4.427 -0.1270  0.1380 -0.0685
22287W        W37756   8.956   1.895   0.795 -0.1155  0.0340 -0.0063
22288W        W37757  12.931   0.877  10.547  0.1282  0.0402  0.2920
22289W        W37758   5.977  16.745   4.524  0.0738 -0.2248  0.2726
22290W        W37759   6.727  13.550   0.999  0.1568 -0.0291  0.0289
22291W        W37760   9.497   5.761   0.326  0.3127  0.3742  0.0008
22292W        W37761  18.852   9.687  14.606 -0.0968  0.0881 -0.1130
22293W        W37762   6.770   4.056   3.605  0.1616 -0.2068 -0.0446
22294W        W37763   1.497   1.909   2.202  0.0500 -0.4962 -0.1264
22295W        W37764   6.543  12.483  11.772  0.2181  0.1773  0.0075
22296W        W37765  15.125   1.258  13.941  0.0531  0.0127  0.0387
22297W        W37766  15.697   1.848  10.583  0.0063  0.1396  0.1152
22298W        W37767  18.176   8.579  13.713 -0.3375  0.0812  0.1166
22299W        W37768  15.221   3.403   0.435  0.0431  0.1891  0.0919
22300W        W37769  16.988  14.980   3.678  0.0893 -0.2748  0.0226
22301W        W37770   3.739   4.956   4.956  0.0719  0.2428 -0.2662
22302W        W37771  13.708   1.940   9.852  0.2968  0.3535  0.2386
22303W        W37772  15.699   1.843  13.064  0.3837 -0.3370 -0.1392
22304W        W37773   8.329  10.791   4.604 -0.0638 -0.0775 -0.2955
22305W        W37774  10.433  15.080  10.515 -0.2741  0.0246 -0.0110
22306W        W37775   8.618  17.070   5.246  0.1641 -0.1143  0.0823
22307W        W37776   8.728  16.453   4.996  0.3097 -0.0620  0.1132
22308W        W37777  15.067   7.285   4.622 -0.1034  0.1754 -0.2559
22309W        W37778   8.697   7.775   0.938  0.2304 -0.0620 -0.0189
22310W        W37779  15.531  10.836   4.673 -0.0788 -0.0484 -0.0076
22311W        W37780   5.964   8.756  15.070 -0.0432  0.0893 -0.0316
22312W        W37781  11.893   8.906   2.597 -0.1444  0.0615  0.0942
22313W        W37782   4.588   9.463  15.267 -0.1508  0.0082 -0.4333
22314W        W37783  15.469  12.287  13.705 -0.2104  0.0111 -0.3156
22315W        W37784   1.640   8.748   0.354 -0.2303 -0.1946  0.4697
22316W        W37785   2.195  17.214  12.392  0.4043 -0.1080  0.1981
22317W        W37786  14.114   2.099  10.612 -0.4748  0.3056  0.0433
22318W        W37787  17.822   6.013  13.836  0.1599 -0.0033  0.0754
22319W        W37788   2.061  18.793  10.811 -0.1398  0.0047  0.2108
22320W        W37789  12.078  14.584   3.757 -0.0805 -0.1491 -0.0175
22321W        W37790   8.619   5.808   0.746  0.2702 -0.0204 -0.1448
22322W        W37791   5.516   0.544   4.380 -0.2638  0.0030 -0.1263
22323W        W37792  15.771   2.781  11.280 -0.0460 -0.4800 -0.2831
22324W        W37793  10.952   2.065   2.747 -0.1446 -0.3054 -0.0314
22325W        W37794  15.113  17.346   1.524  0.2480 -0.2499 -0.1504
22326W        W37795   7.955   4.358  15.216 -0.1941  0.0347 -0.0558
22327W        W37796   2.141   8.949   0.228 -0.1019  0.0754 -0.0684
22328W        W37797   2.740  12.400  13.711  0.1307  0.4170 -0.1261
22329W        W37798  13.615  13.111  13.112  0.2794 -0.0255  0.1965
22330W        W37799   4.749  14.239   1.880 -0.0304 -0.1024  0.1750
22331W        W37800   1.380   8.288  13.067  0.0579  0.3133 -0.0419
22332W        W37801   4.473  13.535   4.429 -0.1510 -0.3375  0.2747
22333W        W37802  15.905  15.501   3.167 -0.1847 -0.0826 -0.4331
22334W        W37803   0.463   4.967   0.437  0.1185 -0.1253  0.0984
22335W        W37804  11.848  13.789   3.597  0.2955 -0.4391 -0.1943
22336W        W37805  14.438  17.863   0.608  0.2062  0.2716  0.0407
22337W        W37806  12.367  11.485   3.935  0.0264  0.3805  0.0505
22338W        W37807   1.492   0.815   0.590  0.1693  0.0976  0.0626
22339W        W37808  15.197   6.691   0.525 -0.2554 -0.2421  0.0928
22340W        W37809  17.605   7.071   3.437 -0.1659 -0.1370  0.0869
22341W        W37810  16.780   4.140  13.049  0.4550  0.0865  0.1752
22342W        W37811   5.032   6.580  12.802  0.1904  0.4114  0.1716
22343W        W37812   6.717  17.076  12.185  0.0635  0.4742  0.2998
22344W        W37813  12.629  12.186  13.316  0.0189  0.0602 -0.0499
22345W        W37814  10.671   0.878  14.924 -0.1341  0.3315 -0.1926
22346W        W37815  12.909   6.729  14.425  0.1788  0.0186  0.1685
22347W        W37816  12.842   1.516  10.596 -0.1010  0.3771  0.0450
22348W        W37817   1.002  14.665   0.549 -0.1212  0.3333 -0.0379
22349W        W37818  13.873   9.636  13.647 -0.1158  0.0570  0.1702
22350W        W37819  11.550  14.134   3.338 -0.3008  0.2726  0.2319
22351W        W37820  10.154  12.626  10.104  0.0534  0.1588 -0.1016
22352W        W37821   9.086   6.636  14.649 -0.1572 -0.1020  0.2839
22353W        W37822   9.130   7.275   4.166 -0.1058  0.1596  0.3292
22354W        W37823   6.949  15.691  15.496 -0.2321 -0.0248 -0.3942
22355W        W37824  16.012   6.844  12.165  0.0469  0.1422  0.0763
22356W        W37825  17.597  11.326  13.359 -0.2038 -0.1430  0.1662
22357W        W37826  14.204   1.701   5.044 -0.0232 -0.1135  0.2122
22358W        W37827   6.477  16.392  10.993 -0.2061 -0.1172  0.2030
22359W        W37828  13.603  14.433   2.887 -0.3443 -0.1928 -0.5247
22360W        W37829  13.493   8.410  12.881  0.1548 -0.1698 -0.0920
22361W        W37830   6.563  17.460   3.047 -0.1701  0.0760  0.2205
22362W        W37831   2.696   4.858   2.701  0.2312  0.0630  0.0049
22363W        W37832   3.755  10.946   5.191 -0.2258 -0.1742  0.0198
22364W        W37833   1.668   5.822  13.289 -0.1365 -0.2860  0.1723
22365W        W37834   8.163   8.067   1.727 -0.1509 -0.1367 -0.0290
22366W        W37835  16.327   0.329   4.317 -0.1873  0.0735  0.2356
22367W        W37836  17.414   5.255   2.158 -0.0610  0.0593 -0.2330
22368W        W37837   6.948   3.589  10.466  0.1680 -0.0484  0.0648
22369W        W37838  16.883   8.981  12.191  0.1777  0.0100 -0.0365
22370W        W37839   1.277  12.888  11.227  0.0349  0.0200  0.0020
22371W        W37840  13.703  17.112  14.270  0.0584  0.3315  0.2050
22372W        W37841   2.101   6.100   3.063  0.1722  0.3569  0.1093
22373W        W37842   7.753  15.513   5.429  0.2628  0.3815 -0.0191
22374W        W37843   0.047  13.471   0.358  0.0399 -0.1981 -0.1334
22375W        W37844   0.353   7.706  13.351  0.0476  0.1094  0.0414
22376W        W37845  18.393  18.285   2.662 -0.0968 -0.3754  0.2742
22377W        W37846   5.684  16.038   4.448 -0.0422 -0.1924 -0.2676
22378W        W37847  11.812  18.516   4.010 -0.1757  0.1461  0.1020
22379W        W37848   9.975  15.959   0.755  0.1490  0.0470  0.3053
22380W        W37849   9.826  12.200   0.646 -0.1746 -0.1718  0.1223
22381W        W37850   5.315   9.809   2.118 -0.3890 -0.2547 -0.1227
22382W        W37851   4.409   3.463   3.221  0.2004 -0.2635  0.6404
22383W        W37852  16.991   7.250   4.064 -0.0463  0.0404  0.0118
22384W        W37853   5.725   3.813   4.366 -0.1877  0.2031  0.1368
22385W        W37854   0.031  12.768   3.360  0.3269 -0.0566 -0.1048
22386W        W37855   0.206  10.822   5.613 -0.2205 -0.2061 -0.1751
22387W        W37856  18.138   1.189   0.010  0.0680  0.3452 -0.0939
22388W        W37857   4.826   1.178   3.238 -0.3135 -0.3944 -0.0327
22389W        W37858   0.550  10.584   3.860  0.0409 -0.0389  0.0124
22390W        W37859  16.120   0.235  12.818 -0.0879 -0.4036  0.1334
22391W        W37860  17.963   4.846   4.568  0.0672 -0.2845  0.0400
22392W        W37861  17.311  12.588   0.640 -0.1803 -0.0524 -0.2925
22393W        W37862  10.326   8.052  10.621  0.1041 -0.0371 -0.2369
22394W        W37863   5.528   2.721  10.159  0.3036 -0.2767  0.0981
22395W        W37864  11.088   5.485  12.140 -0.0908  0.0819  0.0900
22396W        W37865   7.768   6.503  12.333 -0.3845 -0.2074  0.0547
22397W        W37866  11.032   1.218  12.670  0.3469  0.3332 -0.1650
22398W        W37867   4.418   6.103   4.161 -0.2371 -0.1561 -0.0940
22399W        W37868   1.861   9.932  12.985 -0.0669  0.1338  0.2910
22400W        W37869   7.548   4.909  11.846 -0.0161 -0.3467 -0.1612
22401W        W37870   1.810  16.474   4.303  0.1332  0.2874 -0.1997
22402W        W37871   9.361  18.259   2.252 -0.3523  0.2335  0.1426
22403W        W37872  13.622   9.004  12.231  0.4278  0.0674 -0.2646
22404W        W37873  12.016  17.863   4.589  0.5613  0.1742  0.0616
22405W        W37874  10.292   4.396   2.134  0.1077  0.4582  0.0818
22406W        W37875   9.491   9.257  12.205  0.3698  0.1040  0.1673
22407W        W37876   5.329   5.656   2.798  0.1932  0.0531 -0.1456
22408W        W37877  11.521   1.566  14.960 -0.1293 -0.0010 -0.2840
22409W        W37878   0.657   3.601   0.013 -0.1421  0.2376 -0.2067
22410W        W37879   0.708   2.180  13.607  0.0828 -0.2162  0.0727
22411W        W37880   1.255   3.561  14.834  0.2578  0.1912 -0.0593
22412W        W37881   2.529  11.738   0.433  0.0559 -0.1144 -0.4331
22413W        W37882  15.969  18.932   2.107 -0.2223  0.1189  0.1056
22414W        W37883  16.391  14.788   3.710 -0.1824 -0.2904  0.3458
22415W        W37884   9.747  11.141   3.445  0.0935 -0.1631 -0.0832
22416W        W37885   3.818  14.576  10.416  0.1087  0.0007  0.0670
22417W        W37886  18.255   3.605  10.782 -0.1769  0.1377  0.1099
22418W        W37887   3.286  11.824   5.328  0.0608  0.1825  0.0461
22419W        W37888   8.059  14.504   2.705 -0.1369 -0.2779 -0.1967
22420W        W37889  15.418   8.783  14.573  0.1715 -0.0526  0.3433
22421W        W37890  10.771   2.753   5.211 -0.1710  0.2268  0.1570
22422W        W37891   7.143   0.936   1.099 -0.1056  0.4724  0.0497
22423W        W37892   9.279  16.192   3.268  0.1444  0.0745  0.0106
22424W        W37893   8.985  13.430  12.317  0.1647  0.3222  0.2058
22425W        W37894   8.425  18.438  11.806  0.2130 -0.0522  0.0554
22426W        W37895  18.146  11.207  14.256  0.2169  0.1097  0.0138
22427W        W37896   4.838  13.422   0.571  0.4639 -0.1189  0.0057
22428W        W37897   7.212   9.257  14.292  0.3176  0.1655  0.0186
22429W        W37898  12.177   8.618   1.803 -0.2567 -0.0308 -0.2558
22430W        W37899   9.908  13.957  14.131  0.0168 -0.5468  0.2820
22431W        W37900   1.138   4.394  10.627  0.0175 -0.1822  0.0399
22432W        W37901  14.103   1.389  11.575  0.2043 -0.0099  0.0554
22433W        W37902   3.376  10.008  15.182  0.1497  0.1777  0.0232
22434W        W37903  17.285  11.505  15.468  0.1599  0.2695 -0.0892
22435W        W37904  10.797   2.061  14.145  0.1251 -0.0941 -0.1456
22436W        W37905   8.619   2.357  14.708  0.0086  0.0684 -0.0900
22437W        W37906   1.608  12.753   4.094  0.1866 -0.1296  0.0776
22438W        W37907  14.485  12.350   1.800  0.2849 -0.1573 -0.0082
22439W        W37908  13.850   7.609  13.847 -0.0347 -0.0789  0.1036
22440W        W37909  16.314  10.159   0.642 -0.1240 -0.1389 -0.3058
22441W        W37910   6.038  10.494   0.864 -0.1183 -0.0784 -0.0286
22442W        W37911  17.058  13.040  14.041 -0.1581 -0.0346 -0.0557
22443W        W37912  12.432  13.032  15.047  0.1699  0.0201 -0.0115
22444W        W37913  17.341   5.841   4.790  0.0710 -0.0229  0.3283
22445W        W37914   0.892   7.589  11.148 -0.0463  0.3035  0.1793
22446W        W37915  16.270   9.164   3.190  0.2373  0.1654 -0.2569
22447W        W37916   3.890   9.108  12.059 -0.0524  0.1779  0.1448
22448W        W37917  13.136  18.516  14.240 -0.1021 -0.2371 -0.0131
22449W        W37918   6.360  11.532   2.756 -0.3409 -0.3159  0.1688
22450W        W37919  17.967   4.579   2.442 -0.0681 -0.3671 -0.0680
22451W        W37920  18.397   9.488  15.388 -0.0701 -0.0396  0.1425
22452W        W37921   5.877   1.265  14.133  0.0129  0.2165 -0.0138
22453W        W37922   9.504   0.360   4.341 -0.0476  0.0911 -0.0625
22454W        W37923  16.271   1.514   3.869  0.0780 -0.0652 -0.2851
22455W        W37924  15.550   5.769   4.814  0.1718  0.4878 -0.0017
22456W        W37925   8.102   8.983  11.848 -0.0073  0.1966  0.2046
22457W        W37926   4.910  10.789   3.267  0.3174 -0.0116  0.0418
22458W        W37927  10.126   4.667  13.364 -0.3632 -0.2101 -0.0031
22459W        W37928   8.024  17.106   5.617  0.1338  0.1326  0.1873
22460W        W37929   8.931   1.608  14.992 -0.0118  0.2455 -0.0509
22461W        W37930   8.555  10.574   2.703 -0.0953 -0.1339 -0.2466
22462W        W37931  15.982   8.776  12.102  0.1456  0.3355 -0.0493
22463W        W37932   5.000   0.995  14.172  0.0357 -0.2661  0.0686
22464W        W37933  16.009  16.820  10.448  0.0859  0.1615  0.0051
22465W        W37934  10.307   6.700  11.107 -0.0389  0.0465 -0.1336
22466W        W37935   6.037  13.634  14.933 -0.1980  0.2308  0.0142
22467W        W37936   8.723   3.714   4.374  0.2800  0.0855 -0.0452
22468W        W37937   3.094   0.355  11.494  0.2911  0.2404  0.2586
22469W        W37938  13.695  16.881   1.709 -0.2128  0.4815  0.1495
22470W        W37939   2.410  12.167   3.898  0.4037  0.0780 -0.1383
22471W        W37940  14.994   8.038  10.395  0.0507 -0.0539  0.3867
22472W        W37941  11.501  18.058   9.770 -0.0691  0.1436  0.1340
22473W        W37942   7.574   8.288  14.978  0.0426  0.0507 -0.5417
22474W        W37943  10.842  11.379  13.684 -0.2929 -0.0767 -0.0286
22475W        W37944  14.235   8.021  10.894 -0.0165  0.0805 -0.0521
22476W        W37945   0.754   7.980  14.382  0.0411  0.2109  0.2672
22477W        W37946   5.427  18.218   3.587 -0.2172  0.0568 -0.2044
22478W        W37947   0.519   0.158   2.660  0.2444  0.1114 -0.0903
22479W        W37948   4.852  12.673   2.893  0.0737 -0.1556  0.2439
22480W        W37949   8.703   5.580   4.669  0.1310 -0.0712 -0.0314
22481W        W37950   2.821   8.732   1.045  0.1191 -0.0850  0.1359
22482W        W37951   6.273   9.469   5.153 -0.0064 -0.3875  0.2118
22483W        W37952  11.356  12.484  12.725  0.0416  0.0607 -0.0836
22484W        W37953  12.298  10.081  11.124  0.0277 -0.2367 -0.2263
22485W        W37954  12.419  12.365  11.705 -0.0147 -0.1102  0.0009
22486W        W37955   8.328   4.054  14.392  0.0643  0.0486 -0.1010
22487W        W37956  17.053   0.367  13.744 -0.2504  0.1442 -0.1231
22488W        W37957  18.240  17.968   0.448  0.0966  0.2687  0.1358
22489W        W37958   6.920  18.395   2.848 -0.3032  0.0048  0.0045
22490W        W37959   7.221  12.754  12.215  0.1424  0.2557 -0.2425
22491W        W37960   9.661  12.739   3.990 -0.0518  0.1076 -0.3035
22492W        W37961  10.146   8.194   0.654  0.1043 -0.0036  0.1112
22493W        W37962   0.671   4.234  12.526  0.0503  0.2786 -0.1930
22494W        W37963   5.630  10.210  11.470 -0.0580  0.2338 -0.0290
22495W        W37964  18.028   7.728  13.014 -0.0890 -0.1476 -0.1689
22496W        W37965  17.342  14.326  14.331 -0.0705  0.2789 -0.3926
22497W        W37966   8.216   9.234   0.073  0.0258 -0.0065  0.1324
22498W        W37967  11.506   3.075  12.486  0.0947  0.0871  0.1395
22499W        W37968   4.780   9.966   2.655 -0.0043  0.1469 -0.1038
22500W        W37969   9.327   9.564   2.770 -0.1803 -0.2568 -0.1423
22501W        W37970  16.649   5.483   1.059  0.2113 -0.2151 -0.1689
22502W        W37971  15.078  16.602   3.134 -0.0708 -0.5944 -0.0442
22503W        W37972   4.878  18.422  13.632 -0.2700  0.1933 -0.0641
22504W        W37973   1.273  12.766   1.773 -0.3496 -0.2566  0.1602
22505W        W37974   9.310   4.859   9.456 -0.0999 -0.1138  0.1859
22506W        W37975  16.534   0.014   4.665  0.1996  0.2463 -0.3537
22507W        W37976  15.165  11.872   1.441  0.4055  0.0636  0.0307
22508W        W37977   5.411  15.304  11.426 -0.1525 -0.3775 -0.1585
22509W        W37978  18.561   7.908   1.944  0.1317  0.0808 -0.0356
22510W        W37979   4.439   1.117  11.106  0.0414  0.0240  0.0009
22511W        W37980  11.661   2.213   0.761 -0.0004 -0.1526 -0.0419
22512W        W37981  18.441  11.451   5.220 -0.1905  0.0668 -0.0166
22513W        W37982  14.266   5.648   0.541  0.0334 -0.0470  0.0115
22514W        W37983  17.707   8.155   4.674  0.2930 -0.1709 -0.1789
22515W        W37984   4.494   0.796  13.323  0.0429  0.2780  0.0582
22516W        W37985   9.498  11.100  14.086 -0.0917  0.0066 -0.0087
22517W        W37986   1.705  18.850   6.272 -0.1343  0.1429 -0.0681
22518W        W37987   0.220   1.896  13.473  0.0070 -0.0327  0.0585
22519W        W37988   0.803  12.637  11.059  0.0676  0.0400 -0.2040
22520W        W37989   3.513   2.557  15.243 -0.2989 -0.3920 -0.3070
22521W        W37990   2.162  11.478   2.210  0.3285 -0.2399 -0.0561
22522W        W37991   9.950   6.454   0.615  0.2592  0.3141  0.0798
22523W        W37992  17.025   2.529   3.943  0.0263 -0.0690 -0.0650
22524W        W37993  18.045  18.026  11.583 -0.0731  0.0299  0.0301
22525W        W37994   4.474   9.980   1.896 -0.0751 -0.4155  0.1221
22526W        W37995   2.598  10.903  11.396  0.3630  0.1089 -0.3865
22527W        W37996   9.490  16.895   4.858  0.0178  0.1321 -0.0738
22528W        W37997   8.883  16.898  10.697  0.1882  0.3961  0.2322
22529W        W37998   0.059  15.010   1.076  0.2516  0.1116  0.3890
22530W        W37999   1.457  18.135  11.478  0.0945 -0.1280 -0.1816
22531W        W38000   0.953  18.154   0.118  0.1782  0.0711 -0.0719
22532W        W38001   7.646  10.765  15.001  0.0371 -0.2969  0.2090
22533W        W38002  12.830  14.804  15.331  0.4917 -0.1287  0.2100
22534W        W38003   5.268   7.267  11.150  0.2405  0.1346 -0.1194
22535W        W38004  14.590  15.875  15.232 -0.1311 -0.1329  0.0034
22536W        W38005  10.162  16.710  13.701  0.0069  0.1773 -0.0122
22537W        W38006  13.197   8.834  14.920  0.0100  0.0098 -0.1201
22538W        W38007   3.571   3.719   3.737  0.1149  0.2635  0.0777
22539W        W38008  17.354  16.854   0.683  0.1416 -0.1608  0.0131
22540W        W38009   0.397   4.866  14.679  0.2189  0.0537 -0.1423
22541W        W38010  17.009   0.582   1.428  0.3019  0.0735  0.6125
22542W        W38011   7.614  17.371  13.531 -0.3167  0.0244  0.0995
22543W        W38012   6.752   7.963  11.819  0.1605  0.2511 -0.0750
22544W        W38013   4.341  15.302   3.761 -0.0457 -0.1828 -0.3827
22545W        W38014   2.893  10.635   9.727  0.1940  0.0514  0.3671
22546W        W38015   4.914  16.874   3.362 -0.2140 -0.2843 -0.1106
22547W        W38016   6.218  17.968  11.571 -0.0115 -0.1487 -0.1988
22548W        W38017   3.226   8.308  15.179 -0.4131 -0.1878 -0.0352
22549W        W38018  18.847   4.720  11.707 -0.3908  0.2865 -0.0077
22550W        W38019   3.952  18.659   4.813 -0.0562  0.2253 -0.0605
22551W        W38020  14.828   6.465  11.872  0.0203 -0.0048 -0.2231
22552W        W38021   0.771  16.069  14.737  0.0488 -0.1265  0.1832
22553W        W38022  12.310   4.090   2.625  0.2368  0.1498 -0.1745
22554W        W38023  13.635   2.249  12.343  0.0173  0.0850  0.1249
22555W        W38024   8.254   5.854  12.888 -0.2269 -0.1789 -0.0064
22556W        W38025  10.250   3.967   3.764  0.2430  0.3949  0.0696
22557W        W38026  16.178   3.805   5.493  0.1230  0.1519  0.0324
22558W        W38027  17.701  15.380   2.317  0.0761  0.1973  0.1657
22559W        W38028  18.427  18.805   1.748 -0.1020  0.2389 -0.1263
22560W        W38029   7.815   2.208  10.567  0.2458  0.0557  0.2383
22561W        W38030  12.332   5.215  13.475  0.1097  0.0846 -0.1827
22562W        W38031  13.400   6.186  14.952 -0.0479 -0.2749 -0.1878
22563W        W38032   4.250   2.946  13.337  0.1749  0.0521 -0.1501
22564W        W38033   5.364  12.869  14.395 -0.3124 -0.2333 -0.2933
22565W        W38034   9.251  11.495  11.513  0.1089  0.1089  0.0271
22566W        W38035   7.352  14.580   5.430 -0.1871  0.0522  0.1444
22567W        W38036   0.597   9.895  13.379 -0.0717 -0.1296 -0.0729
22568W        W38037  17.500   7.577  12.868  0.1136  0.0060 -0.3057
22569W        W38038   2.262   3.449  14.175  0.1968  0.3773 -0.0180
22570W        W38039  11.667  12.415   0.220  0.2567  0.4821 -0.1028
22571W        W38040   2.319  13.437   1.487 -0.0477 -0.4216  0.3645
22572W        W38041  13.017  11.332  15.119  0.2119  0.0960 -0.2390
22573W        W38042  17.225  11.337  12.952  0.0947 -0.1967  0.0784
22574W        W38043  11.689  15.916   4.620  0.0410 -0.0604  0.3337
22575W        W38044  10.883  10.419   4.472 -0.1755  0.3031  0.3017
22576W        W38045  12.607   1.394   3.501  0.0670  0.1366 -0.0910
22577W        W38046   4.334  12.548   2.079 -0.0920  0.1409  0.0655
22578W        W38047   5.758  12.572  13.280  0.0515 -0.3111 -0.0208
22579W        W38048  16.797  16.585  11.618  0.2116 -0.1597 -0.0168
22580W        W38049   6.511  15.858  12.345 -0.3534  0.1883 -0.0346
22581W        W38050   5.745  13.219   5.263  0.4118  0.3944  0.2124
22582W        W38051   1.675  18.763  14.509  0.0071  0.0829 -0.0649
22583W        W38052  16.216  12.336  12.477  0.0652 -0.0624 -0.3725
22584W        W38053   1.386   5.707  10.023 -0.2810  0.1159  0.1101
22585W        W38054  15.345   1.929  15.143 -0.2156  0.2013  0.0088
22586W        W38055  14.917  15.927   3.013 -0.2134 -0.0780  0.2998
22587W        W38056   6.235   9.514  12.755 -0.0978 -0.2360 -0.0030
22588W        W38057   1.646  16.068   2.091  0.1870 -0.3066 -0.1134
22589W        W38058   6.152  12.987  13.176 -0.0152 -0.1999  0.1705
22590W        W38059  12.237   8.421   4.980 -0.2408 -0.1835 -0.0422
22591W        W38060  11.560   5.510   3.454  0.3042  0.3709  0.0224
22592W        W38061   3.574   4.087   2.857 -0.0941 -0.2069  0.3728
22593W        W38062   2.738  10.391  13.420 -0.0497  0.5241 -0.0507
22594W        W38063  15.986  18.721   3.944 -0.2216 -0.0455  0.2380
22595W        W38064   2.225   6.447   1.149  0.0095  0.0843 -0.3299
22596W        W38065  16.514  15.241   4.157  0.0463 -0.1080 -0.0975
22597W        W38066   1.564  11.325   1.359 -0.1074  0.0319  0.2444
22598W        W38067   5.931   9.952  11.852  0.2179 -0.4162 -0.0454
22599W        W38068   6.438  12.442   4.879 -0.1827  0.0566  0.2121
22600W        W38069   0.881   0.987   3.783 -0.0816 -0.0018  0.2486
22601W        W38070   4.309   0.584  11.110 -0.0216 -0.1388  0.1178
22602W        W38071   3.287  17.499   5.302 -0.1795  0.3316 -0.0327
22603W        W38072   8.493  12.405  14.271  0.0090 -0.0637 -0.1746
22604W        W38073  11.372   9.109  15.248  0.1474  0.1582 -0.0092
22605W        W38074  11.244  15.851   3.751  0.4034  0.1712 -0.0945
22606W        W38075   5.621   4.399   1.993  0.0870  0.2086 -0.0559
22607W        W38076   4.980   5.519   3.607  0.1956  0.0728 -0.1863
22608W        W38077  12.994   0.805  10.054  0.1506 -0.2301  0.2051
22609W        W38078  18.483   1.507  13.765 -0.1574 -0.1143 -0.3726
22610W        W38079  12.181   4.830  10.796 -0.1293 -0.5042 -0.1810
22611W        W38080   2.481  16.066   0.168 -0.1091 -0.1022 -0.0788
22612W        W38081  10.724   0.324   2.769  0.0403  0.0425  0.1272
22613W        W38082  15.174   1.972   0.312  0.1035 -0.2063  0.3723
22614W        W38083  13.148   2.346  10.750 -0.0848 -0.0942 -0.0749
22615W        W38084  16.985   5.965  14.084  0.1264  0.0596  0.0146
22616W        W38085  17.351  15.304  14.684  0.0058 -0.1703 -0.1456
22617W        W38086  13.118  15.936  14.258  0.0014 -0.2193  0.2320
22618W        W38087  15.646  11.045  12.209  0.3396  0.0057 -0.2879
22619W        W38088   1.668  16.150   0.600  0.1679 -0.0413 -0.1298
22620W        W38089  14.321  10.996   4.129 -0.0163 -0.0554 -0.2093
22621W        W38090   9.322   9.091   4.310 -0.1548 -0.3162  0.1925
22622W        W38091   1.607   1.872   2.693 -0.1078 -0.0067  0.1750
22623W        W38092   2.528   2.066   3.139 -0.0672 -0.1548 -0.0208
22624W        W38093   0.038   3.056  10.889  0.2849 -0.3525 -0.0490
22625W        W38094  15.062   9.192  11.993  0.0827  0.0275 -0.0672
22626W        W38095   2.057  11.251  12.032 -0.3327 -0.3750 -0.1330
22627W        W38096  17.944   0.775  14.209 -0.2826  0.0248 -0.2526
22628W        W38097  18.775  18.588  12.295  0.1528 -0.0456 -0.4156
22629W        W38098  15.722   6.895   1.522 -0.0817 -0.0208 -0.2663
22630W        W38099   0.874   0.341  10.586  0.0511 -0.0282 -0.1978
22631W        W38100  13.115  15.381   0.373  0.1625  0.0157 -0.0679
22632W        W38101   0.818   9.937   3.157 -0.1261 -0.0828 -0.1442
22633W        W38102   0.468  16.295  11.178 -0.1913 -0.1702 -0.1739
22634W        W38103  15.554  14.447   1.187 -0.1172 -0.0668  0.0725
22635W        W38104   8.406  13.903   0.180  0.1356  0.0213  0.4235
22636W        W38105  17.672  18.398  11.344 -0.1295  0.0352  0.0725
22637W        W38106   7.627   5.087   1.508 -0.0874  0.2365  0.0945
22638W        W38107   6.407   9.932  12.920 -0.0416  0.2711  0.0565
22639W        W38108   2.007   4.042  13.457  0.1835  0.1103  0.0736
22640W        W38109   1.552  10.126   2.649  0.1369 -0.1133 -0.0748
22641W        W38110   5.177  13.282   5.085  0.1479  0.1799  0.1002
22642W        W38111   8.942   8.074  14.614  0.4030 -0.0586  0.1081
22643W        W38112   8.622  13.861   1.059  0.0606 -0.1061  0.2100
22644W        W38113  18.341  15.332   1.810  0.0942  0.1778  0.1693
22645W        W38114   0.619   4.089  10.716  0.0681  0.1798  0.1143
22646W        W38115  17.779  17.645  15.006 -0.1689 -0.2639 -0.0768
22647W        W38116   9.173  12.608  12.764 -0.0465 -0.2605 -0.1067
22648W        W38117  14.323  13.363   0.859  0.1516  0.1688 -0.0265
22649W        W38118  11.601  16.161  14.784  0.0734 -0.0609 -0.1495
22650W        W38119   8.120  17.862   1.471  0.0519 -0.2779 -0.3060
22651W        W38120  16.069  13.759  13.616  0.2211  0.0750 -0.2613
22652W        W38121   5.464  18.061  10.878  0.0414  0.3413  0.2876
22653W        W38122  11.144   5.602   2.717  0.1322 -0.1370  0.0346
22654W        W38123   3.535  13.652  14.342  0.2345  0.1556  0.0162
22655W        W38124  18.124   9.668   0.726  0.1049 -0.2057 -0.0746
22656W        W38125   8.556   2.237  12.101 -0.1162 -0.0006 -0.0070
22657W        W38126  14.632  14.489   2.799 -0.3188  0.0297 -0.0033
22658W        W38127   6.689  18.412  13.047 -0.1414 -0.0401  0.0699
22659W        W38128   1.401   3.681   0.805 -0.2935 -0.1864 -0.0171
22660W        W38129  17.561   8.510  13.218  0.1330 -0.0325  0.1710
22661W        W38130   2.444   2.286  14.874 -0.2371 -0.0316  0.0397
22662W        W38131   9.282   2.209   1.600  0.0695  0.1628 -0.1868
22663W        W38132   7.409   7.351  13.844  0.0129 -0.0306 -0.2596
22664W        W38133  10.707  12.901   1.021 -0.1178 -0.0822  0.2172
22665W        W38134  12.966   8.404  15.080 -0.1066  0.0108  0.2947
22666W        W38135   3.228   8.638  13.049  0.1305 -0.0880  0.0165
22667W        W38136   7.997  15.232  15.057  0.0140  0.1867  0.1869
22668W        W38137   3.175  17.849   4.957  0.1325  0.0316  0.0011
22669W        W38138   2.417  18.211  13.339 -0.0704  0.0080  0.0188
22670W        W38139  15.526  13.455  14.397  0.3158 -0.5214 -0.2329
22671W        W38140  11.248   4.555  14.478  0.2441 -0.1916  0.0826
22672W        W38141   4.621   0.739   3.343  0.3248  0.0941  0.0762
22673W        W38142  15.339  10.684  10.329  0.0759  0.0200  0.1324
22674W        W38143   8.651   3.580  12.634 -0.0135  0.3349  0.0482
22675W        W38144  11.821   7.960   0.558 -0.0464 -0.0600 -0.2143
22676W        W38145  14.012  12.818  10.237 -0.1645  0.0657  0.1778
22677W        W38146  11.067  15.979   4.936 -0.0667 -0.1830 -0.2457
22678W        W38147   6.282  12.748  15.300 -0.0735  0.1415 -0.1126
22679W        W38148   4.444   1.660  15.110  0.0782 -0.0913 -0.2484
22680W        W38149  16.912   7.277  15.465  0.2841  0.2496  0.0940
22681W        W38150  16.926   6.091  12.188  0.0271 -0.1000 -0.2223
22682W        W38151   3.909  17.930   3.992 -0.0189 -0.0657  0.2655
22683W        W38152  11.112   6.344  13.929 -0.2477  0.0067 -0.1279
22684W        W38153   2.577   5.603  15.008 -0.1956  0.0565 -0.0279
22685W        W38154   2.035  15.837   1.770  0.0451 -0.2021  0.1419
22686W        W38155   7.251  10.463   2.134  0.1429  0.3720  0.1365
22687W        W38156   9.430  12.732   6.287 -0.3635 -0.0412  0.1773
22688W        W38157   0.767   1.031   1.433 -0.0430 -0.0998  0.4630
22689W        W38158   1.028  18.635   4.202  0.0545  0.2457 -0.0900
22690W        W38159   4.823  17.700  14.601 -0.2392  0.5228 -0.0463
22691W        W38160   6.156   2.873   2.097  0.2434 -0.1683  0.0123
22692W        W38161   7.245   4.411   0.252 -0.0232 -0.0932 -0.0586
22693W        W38162   0.401  18.818   1.058  0.1350  0.3589  0.0026
22694W        W38163   9.456  12.683  14.464 -0.2780  0.0729 -0.2232
22695W        W38164   5.086   2.344  11.671 -0.2488 -0.1371  0.0323
22696W        W38165   5.406  17.425  13.086  0.3730  0.0795 -0.1818
22697W        W38166   2.760  14.568  13.928 -0.1559 -0.1696 -0.0996
22698W        W38167  13.277  14.623   0.023  0.2024 -0.0466 -0.0450
22699W        W38168   2.277   5.852   3.510 -0.1047  0.0257 -0.1229
22700W        W38169   2.497  15.340   0.104 -0.0507  0.1393  0.3702
22701W        W38170  17.871  16.007   0.978 -0.0589  0.1951 -0.2140
22702W        W38171   3.668  13.593  11.727  0.0125 -0.3007  0.4336
22703W        W38172  15.774   6.984   5.110 -0.2297  0.0661  0.0997
22704W        W38173  16.307   9.635   4.002 -0.1399  0.3714 -0.1954
22705W        W38174  15.016  18.550   0.856  0.1707  0.0460  0.3356
22706W        W38175  10.802   1.334   3.183  0.1504  0.1101  0.0253
22707W        W38176  11.595  10.223   3.059 -0.2910 -0.2372  0.0592
22708W        W38177   8.834  12.561   1.426 -0.1129 -0.1651  0.2145
22709W        W38178   0.359   1.132  12.021 -0.0111  0.1172  0.0727
22710W        W38179  11.961   3.930   1.391  0.0915 -0.1853  0.0046
22711W        W38180   6.196  15.653   1.615 -0.0105 -0.0342 -0.2134
22712W        W38181  17.720  12.913   4.613 -0.2378 -0.1323  0.1031
22713W        W38182   9.158   6.461   1.970 -0.3238 -0.0064 -0.1396
22714W        W38183  11.406   0.961   0.144 -0.0272 -0.1087 -0.5033
22715W        W38184   8.967  17.364  14.961 -0.2946  0.1043  0.1981
22716W        W38185   7.240  15.004  12.755  0.0954  0.2119  0.1671
22717W        W38186   1.147   5.210  11.181 -0.1591 -0.0595 -0.2543
22718W        W38187   6.768   4.499   3.879 -0.0717 -0.0710  0.3512
22719W        W38188   1.405   8.495   0.698 -0.2175  0.0153  0.0794
22720W        W38189   1.557  11.245   4.061 -0.1484 -0.1305  0.0913
22721W        W38190  13.604   7.751  12.354 -0.2664 -0.2275 -0.0150
22722W        W38191   3.712  11.482  12.918 -0.4960  0.3116  0.2145
22723W        W38192   0.431  17.920  10.657  0.3729  0.3530  0.0785
22724W        W38193  13.709  11.767  12.902  0.0938  0.1788  0.0502
22725W        W38194   2.831   3.092  10.850 -0.0532 -0.2280 -0.3115
22726W        W38195   0.644   2.288   2.721 -0.4455 -0.0201 -0.3682
22727W        W38196  18.706  10.134   2.956  0.2733  0.2079  0.1768
22728W        W38197  10.418   5.287   1.663  0.3718 -0.2736 -0.0036
22729W        W38198   6.159   7.430  11.349  0.0019  0.4977 -0.0814
22730W        W38199  11.131   1.161  11.440  0.0374 -0.2693  0.2290
22731W        W38200  12.636   7.767   1.466 -0.2752 -0.1645  0.0928
22732W        W38201  16.848  11.104  13.844 -0.0979  0.1278 -0.3265
22733W        W38202   0.849   5.717  14.898 -0.0412  0.2534  0.0874
22734W        W38203  17.148   4.091  13.437 -0.1439 -0.0379 -0.0908
22735W        W38204   9.344  10.935  11.257 -0.2626 -0.0338  0.2730
22736W        W38205   6.776  11.229   2.896  0.0011  0.1387  0.3559
22737W        W38206   5.946   3.162  12.952 -0.1668 -0.0104  0.5657
22738W        W38207   1.828   7.001   0.493  0.1280  0.0845 -0.4230
22739W        W38208  11.765   6.905  10.045 -0.1587 -0.1199 -0.2817
22740W        W38209  13.155   4.764   4.742  0.1309 -0.0593 -0.1504
22741W        W38210  15.334  12.489   3.096 -0.1703  0.1156 -0.4159
22742W        W38211   5.165   0.835   3.113 -0.1338 -0.0266  0.0244
22743W        W38212  14.477   0.129  14.995 -0.1230  0.2044  0.2587
22744W        W38213  11.230  13.610   2.409  0.1688  0.0235  0.3224
22745W        W38214   3.401   9.124  11.499  0.2114  0.2588  0.1169
22746W        W38215   6.853   2.190  14.445  0.1826 -0.2897  0.0664
22747W        W38216   5.972   2.375  11.158  0.3165  0.1344 -0.2736
22748W        W38217   9.070   4.531  10.787 -0.0969  0.2697  0.2418
22749W        W38218   1.883   5.075   0.112  0.3670  0.1452 -0.1218
22750W        W38219   2.746  13.287  10.681  0.0578 -0.1828  0.2329
22751W        W38220   1.335   8.551  12.202  0.0227  0.0254 -0.0008
22752W        W38221  12.743   7.442  14.987  0.2392 -0.1220  0.3400
22753W        W38222  10.405   5.476  14.528  0.2430  0.0332 -0.1715
22754W        W38223  12.015  18.814   2.780  0.1838 -0.1517 -0.0259
22755W        W38224  16.692   2.689  14.374 -0.0134 -0.0099 -0.1206
22756W        W38225  13.621  14.415   4.461 -0.0241 -0.0451 -0.0855
22757W        W38226  16.844  14.077   3.807 -0.1216  0.1063 -0.2323
22758W        W38227  12.430   7.905   2.521 -0.0941  0.3011 -0.3228
22759W        W38228   8.196  14.877   3.662 -0.2027 -0.3294  0.1179
22760W        W38229   6.163  13.332   1.665 -0.1477  0.0944 -0.0062
22761W        W38230   2.868   5.382   2.030  0.0708  0.0430  0.1199
22762W        W38231  11.954  17.438  11.752 -0.1499 -0.0041  0.2299
22763W        W38232   0.649   7.588   0.164 -0.0560 -0.4339 -0.2694
22764W        W38233  13.657  17.046  13.440 -0.0080 -0.2053  0.1631
22765W        W38234   1.538  13.626  14.668  0.0301  0.1628  0.1508
22766W        W38235   7.913   0.395   1.124  0.0839  0.0409  0.0588
22767W        W38236  15.477  15.204   3.553  0.0082  0.1355  0.3436
22768W        W38237   1.500  13.316   0.297 -0.0925 -0.1300 -0.2790
22769W        W38238  12.694  13.011  14.197 -0.4420  0.2847  0.4658
22770W        W38239  15.302  14.208   0.361  0.2240 -0.0501 -0.1254
22771W        W38240  16.220  11.935  10.864 -0.2758 -0.1558  0.1416
22772W        W38241  14.545  16.426   2.500 -0.3013  0.0241 -0.1381
22773W        W38242   6.687  15.235   3.981 -0.0941  0.0560  0.0140
22774W        W38243   4.073  14.338  12.045 -0.0507 -0.0431  0.0244
22775W        W38244   0.030  13.523   2.021  0.2980 -0.2408  0.0270
22776W        W38245  11.626  18.784  10.927  0.2362 -0.0935 -0.3809
22777W        W38246  13.166  11.710   1.375 -0.4496  0.1231 -0.0779
22778W        W38247   1.414   0.074   2.662 -0.0107 -0.1400 -0.5689
22779W        W38248  11.384  18.008   1.712  0.2585 -0.2257  0.6000
22780W        W38249   5.983  10.273  12.877  0.0161  0.0914  0.2237
22781W        W38250   8.736   9.471   1.697 -0.0084  0.1189 -0.1708
22782W        W38251  13.910  15.320  13.920 -0.2958  0.0603  0.2351
22783W        W38252  13.176   0.256  11.652  0.1735 -0.2726  0.2337
22784W        W38253  16.808  14.625   4.043 -0.0528 -0.1276  0.0745
22785W        W38254  10.718   2.918  12.896  0.0749 -0.0639  0.1734
22786W        W38255   6.575  16.951   2.699 -0.1155  0.0207  0.1225
22787W        W38256  17.715   4.670   1.515 -0.0259  0.0524  0.1420
22788W        W38257   6.024   7.429   2.776 -0.0012  0.0308  0.0786
22789W        W38258  15.111  13.827  10.937  0.5780  0.1379  0.1626
22790W        W38259  15.109   1.276   2.959 -0.1790 -0.0839 -0.1014
22791W        W38260   4.341  18.764  10.518  0.0869 -0.3183 -0.0944
22792W        W38261  16.657  18.531  11.737  0.1768  0.3051 -0.0658
22793W        W38262   9.496   7.198  13.876  0.2543 -0.1238 -0.0928
22794W        W38263  12.481  14.900   5.905  0.2677 -0.0844  0.1122
22795W        W38264   3.238  14.694   2.852  0.1005 -0.2018  0.4008
22796W        W38265   6.906   9.667  11.467 -0.1212  0.2601 -0.0022
22797W        W38266   3.427  10.939   2.583 -0.3945  0.1730  0.1061
22798W        W38267  10.759  13.582   3.199 -0.2256  0.3719  0.0122
22799W        W38268   6.613  10.277  13.787 -0.1546  0.1280  0.0260
22800W        W38269  16.961  15.031  13.714 -0.1421 -0.0222  0.1333
22801W        W38270   9.121   0.150  14.148  0.1416 -0.2530 -0.3101
22802W        W38271   3.304  15.463  15.150  0.2812  0.0920 -0.4051
22803W        W38272   6.911   6.266   4.194  0.0107  0.0114  0.1268
22804W        W38273   9.053   3.992   2.678  0.0813 -0.1665  0.0297
22805W        W38274  13.851  15.065  10.800 -0.0086  0.0334  0.2492
22806W        W38275  15.670  12.058   2.342  0.0092 -0.3372 -0.4486
22807W        W38276   2.819   0.480  15.103 -0.2282  0.1395 -0.5554
22808W        W38277   6.787   8.754  12.828  0.0861 -0.1182 -0.0543
22809W        W38278   1.630  13.628  10.521  0.1251 -0.3159  0.2704
22810W        W38279  12.074   7.234  10.879 -0.4113 -0.4803  0.0860
22811W        W38280  11.699   6.375  14.775 -0.2936 -0.0351  0.0927
22812W        W38281   8.151   6.115   0.879 -0.1946  0.1083  0.0739
22813W        W38282   6.198   0.071  11.978 -0.4790 -0.1343  0.2516
22814W        W38283   1.234   5.694   5.298  0.1892 -0.0895 -0.0645
22815W        W38284   7.349  17.153   0.285  0.1263  0.1586 -0.0186
22816W        W38285   1.475   6.984  13.179 -0.0302  0.1790  0.3072
22817W        W38286  15.196   7.331   2.024 -0.0285  0.0373  0.1455
22818W        W38287   4.069   8.848  10.156  0.2651 -0.1122 -0.0173
22819W        W38288  18.112   8.036  11.570 -0.1534  0.3592  0.1687
22820W        W38289   6.497  14.228  14.207 -0.1496 -0.0283  0.0894
22821W        W38290  17.916   8.283   5.315 -0.0356 -0.2581  0.0121
22822W        W38291   0.550   7.213  10.434 -0.0511  0.1774 -0.0721
22823W        W38292   0.209  17.442  11.358  0.0913 -0.0618  0.0757
22824W        W38293   9.373   2.275  15.330 -0.2139 -0.2384 -0.1222
22825W        W38294   5.065   2.766  11.958 -0.1103 -0.0510  0.2840
22826W        W38295  16.273  15.766   2.254 -0.0046 -0.0183 -0.3356
22827W        W38296  16.854   1.580  13.186 -0.1023  0.0071 -0.0012
22828W        W38297  10.080  18.220   1.039 -0.0013  0.1538  0.2996
22829W        W38298   1.779   6.688  14.438 -0.2382 -0.2773  0.0473
22830W        W38299   1.066   9.252   1.000 -0.0234  0.3185  0.1167
22831W        W38300   8.113   8.479  12.251 -0.1592 -0.1108 -0.0680
22832W        W38301   3.503   3.116  14.556  0.0594 -0.2550  0.1871
22833W        W38302  17.951   5.739  14.207 -0.0351 -0.0203  0.3574
22834W        W38303   1.891   9.139  14.226  0.0489 -0.0107 -0.0699
22835W        W38304  13.902   5.960  14.448  0.1755 -0.1303 -0.1221
22836W        W38305  12.575  18.782  12.491  0.1123  0.2806  0.2117
22837W        W38306  15.766   9.738  15.479  0.0239  0.3935 -0.0047
22838W        W38307  18.827   4.136  12.850 -0.0970  0.5905 -0.0465
22839W        W38308  10.038   7.275  14.006  0.3068 -0.3758  0.0938
22840W        W38309   6.768  17.466   6.095  0.1560 -0.0530  0.1916
22841W        W38310  17.686  15.683   2.798 -0.1574 -0.2351 -0.1738
22842W        W38311   4.217   7.356  11.431 -0.0390  0.0201  0.2132
22843W        W38312  16.093  11.454  13.461 -0.0778 -0.2345 -0.3714
22844W        W38313   4.601   7.017  14.988 -0.1079  0.0693 -0.0072
22845W        W38314   2.327  17.376   4.086  0.1480 -0.1616 -0.0892
22846W        W38315   9.285   7.089  14.405  0.0509 -0.1452 -0.2097
22847W        W38316  11.524  11.644   0.977 -0.3849  0.1477 -0.0356
22848W        W38317   9.043   5.353  10.164 -0.0614  0.3399  0.0393
22849W        W38318  16.610   0.661  13.899 -0.0414  0.1177  0.1502
22850W        W38319   7.685   4.995  12.652  0.0326 -0.1693 -0.0490
22851W        W38320   2.539  13.656   3.291 -0.0525 -0.0307 -0.0684
22852W        W38321  13.484   9.581   2.581 -0.3911 -0.0807  0.2522
22853W        W38322  12.267  12.029   0.706  0.2003  0.0212 -0.0035
22854W        W38323   3.102  11.204   1.911 -0.0264  0.0592  0.2865
22855W        W38324  11.521   2.900  11.872 -0.1423  0.0332 -0.0959
22856W        W38325   1.358  18.058  10.340 -0.3201 -0.1384  0.0446
22857W        W38326   1.792  18.263  15.152 -0.0929  0.0747 -0.2078
22858W        W38327   5.737  11.249  11.891  0.2335 -0.0115 -0.0678
22859W        W38328   9.334   1.281  12.587  0.0263  0.0470  0.2553
22860W        W38329   5.474   8.565  13.575  0.0820 -0.2385 -0.3298
22861W        W38330  14.971  11.687  11.943  0.1534  0.2209 -0.2037
22862W        W38331   0.642  12.977   3.429 -0.3755 -0.0889  0.0983
22863W        W38332  18.705  14.950  14.903  0.1248 -0.1160 -0.0003
22864W        W38333   5.468  12.359   0.065 -0.1526  0.0645  0.2456
22865W        W38334  17.127  10.276  12.558 -0.1110  0.0840 -0.3851
22866W        W38335  15.742  10.397  13.526 -0.1573  0.0897  0.1462
22867W        W38336  10.648  16.689   1.997  0.2076  0.2259  0.0305
22868W        W38337  12.012   5.551  11.280  0.1494 -0.1352  0.3668
22869W        W38338   5.398   8.721   2.664 -0.2123  0.1319  0.0322
22870W        W38339  14.109   7.294  12.672 -0.0776  0.1788  0.0221
22871W        W38340  17.818  13.003  14.525  0.1640 -0.0445  0.0059
22872W        W38341   8.570  16.600   5.422  0.0674 -0.0370  0.1362
22873W        W38342  10.794  17.503  15.157  0.3188 -0.0535  0.0924
22874W        W38343  17.840   8.298   1.500 -0.1380  0.2694  0.0557
22875W        W38344   0.845   9.347   3.366  0.0019  0.3412 -0.1806
22876W        W38345   6.483   5.068  14.630 -0.2177 -0.0755 -0.0217
22877W        W38346   5.572   7.048   5.059 -0.0608 -0.5838 -0.0805
22878W        W38347  13.298  17.872   1.615 -0.0581  0.0166 -0.1250
22879W        W38348  11.676  11.329  12.462 -0.0626  0.0313  0.2912
22880W        W38349   8.519  14.559   1.116 -0.0215 -0.1469  0.1202
22881W        W38350  16.924   1.105   1.504  0.2950  0.2123 -0.0435
22882W        W38351  14.882  13.599  13.314 -0.1081 -0.1028  0.3137
22883W        W38352   3.493   0.692   5.055 -0.2060 -0.0492 -0.0224
22884W        W38353   8.069   3.511   3.700  0.1811  0.1927  0.1009
22885W        W38354  16.713   1.942  13.658 -0.1503 -0.3266 -0.1595
22886W        W38355  12.908   3.947   4.887  0.1047  0.0093 -0.1601
22887W        W38356   8.991   4.573  11.353 -0.1029 -0.0571  0.0664
22888W        W38357   0.536   7.021   0.600 -0.0728  0.0713 -0.1668
22889W        W38358   2.083  13.402  13.757 -0.1207  0.0788 -0.0199
22890W        W38359   5.796   0.882  13.240  0.0579  0.3630 -0.2241
22891W        W38360  14.855   4.617  15.477 -0.2856 -0.1388 -0.0501
22892W        W38361   3.005   0.353  14.233 -0.0587 -0.1814  0.0643
22893W        W38362   5.924   0.478   0.989  0.3196  0.3273  0.4132
22894W        W38363   2.411   0.791   0.678  0.0168  0.0981  0.0739
22895W        W38364  18.723   6.073  10.168  0.2153 -0.1459  0.0310
22896W        W38365   2.066   6.898  15.462 -0.4256  0.0781  0.0223
22897W        W38366  18.046  18.937  15.257  0.5878  0.0760  0.1071
22898W        W38367  18.596   9.644   0.619 -0.1942  0.1834 -0.3274
22899W        W38368  15.151  15.741  10.194  0.0934  0.0397  0.0551
22900W        W38369   7.695  16.916   0.467 -0.2120  0.2761  0.2405
22901W        W38370   7.697   9.031  13.381  0.1796  0.2416 -0.2369
22902W        W38371  12.219  12.790   5.026  0.1968  0.0698 -0.1744
22903W        W38372  15.909  10.389  11.114 -0.1872  0.2425 -0.1164
22904W        W38373   9.486   1.373   2.416  0.0280 -0.2959 -0.0277
22905W        W38374   7.755  13.287  11.550  0.1473 -0.0736  0.1515
22906W        W38375   7.287   9.472  13.787  0.2111 -0.0364  0.0212
22907W        W38376   2.055   0.895  11.589  0.4284 -0.0674  0.3055
22908W        W38377  10.614   8.175   0.625  0.1530 -0.2075  0.0675
22909W        W38378   1.495   0.708   3.335 -0.0568 -0.0054  0.0074
22910W        W38379  14.215   1.336   1.921 -0.3021 -0.0734  0.2940
22911W        W38380   0.235   3.586   3.890  0.0074 -0.1740  0.0170
22912W        W38381  15.029   7.297  15.253 -0.3289  0.4829 -0.3195
22913W        W38382  13.835  18.776  14.217  0.1936 -0.0650 -0.0402
22914W        W38383  17.691   5.386  13.139 -0.1252 -0.0582  0.1486
22915W        W38384   8.928   0.154  15.306 -0.0772  0.2486  0.2909
22916W        W38385  12.491   1.099  10.953  0.1698  0.1991  0.1069
22917W        W38386  15.094   5.679  13.593  0.1426 -0.1785  0.0944
22918W        W38387   0.761   8.701   0.214 -0.2177 -0.2970  0.1354
22919W        W38388  18.856   4.496  13.886  0.1981  0.0254  0.1543
22920W        W38389  18.744   2.412   4.284  0.0019 -0.0771 -0.2859
22921W        W38390   9.042  10.080  12.820 -0.2496  0.2569  0.4909
22922W        W38391  16.701  13.167   4.926 -0.0995  0.0640  0.0034
22923W        W38392   1.451  17.588  11.088 -0.1862  0.3136 -0.1329
22924W        W38393   2.091   7.430   0.790 -0.0780  0.0408 -0.0228
22925W        W38394   1.636  17.208   4.990  0.0698  0.1420 -0.1413
22926W        W38395   1.386   5.830  14.712 -0.0678  0.1287  0.1202
22927W        W38396  11.884   5.579  12.639  0.1722 -0.1779  0.2073
22928W        W38397   7.838  12.164  11.570  0.1693  0.3236 -0.3995
22929W        W38398   6.427   3.338   4.881 -0.0481  0.0657  0.0214
22930W        W38399  10.906  10.386  13.939 -0.2110  0.2088  0.1539
22931W        W38400   8.716   6.655   5.096 -0.0450 -0.0412  0.0424
22932W        W38401   3.935  11.716   3.689 -0.1318  0.0107 -0.0462
22933W        W38402   9.914  17.827  11.136 -0.0995 -0.1147  0.0819
22934W        W38403  16.595  11.099   5.412  0.1085 -0.1179 -0.2403
22935W        W38404   6.532  10.821  11.949  0.1436  0.1577  0.4237
22936W        W38405   2.958  15.140   2.866 -0.2704  0.0122  0.2884
22937W        W38406  12.635   5.353  14.375  0.3218 -0.1397 -0.0308
22938W        W38407   6.912  11.138  10.347  0.0317  0.0033 -0.2905
22939W        W38408  14.110  16.342  11.510  0.0595  0.0119  0.0608
22940W        W38409   7.100  10.536   3.212 -0.1826 -0.0628 -0.1005
22941W        W38410  17.149   2.363   4.549 -0.2295 -0.2136  0.2731
22942W        W38411   4.680   9.790   4.759 -0.3969  0.1060  0.0804
22943W        W38412   1.900   1.733  12.109  0.1397  0.1415 -0.1641
22944W        W38413  12.087  12.334   3.672  0.0029  0.2750  0.2009
22945W        W38414   9.256   3.163   3.155  0.2528 -0.0971 -0.0957
22946W        W38415  15.675   0.100   3.061 -0.0729  0.2297  0.0486
22947W        W38416  14.717   4.866   4.303 -0.2792 -0.0005  0.1021
22948W        W38417  10.868  11.719   3.000  0.1348 -0.3236  0.0524
22949W        W38418  10.700   7.574  14.835  0.1012 -0.1009 -0.1451
22950W        W38419  11.116  15.400  14.852 -0.3794 -0.1089  0.4120
22951W        W38420   3.792   6.653  12.497  0.1305  0.3534 -0.0992
22952W        W38421  16.094   1.611  12.465  0.1066 -0.1465  0.2533
22953W        W38422  14.442   2.808   2.038  0.1217  0.0423 -0.3648
22954W        W38423   8.665  11.270  14.530  0.1396  0.0596 -0.0822
22955W        W38424   9.318   3.659   3.316 -0.0686 -0.2419 -0.0413
22956W        W38425   3.033   6.720  12.813  0.3487 -0.0995 -0.0896
22957W        W38426  16.980   0.668  10.944 -0.1507  0.1843  0.0815
22958W        W38427   5.859   6.289  12.820  0.1004  0.2847  0.3827
22959W        W38428   3.120  13.180  14.102 -0.3333  0.4037  0.3377
22960W        W38429  16.122   7.309  12.348  0.2000  0.3497  0.1842
22961W        W38430  18.718   0.670   0.867  0.2329  0.2440 -0.0886
22962W        W38431   5.311  11.536   2.105 -0.3050  0.3498  0.1921
22963W        W38432   4.133   8.060  10.101  0.2198  0.5075  0.2160
22964W        W38433  16.789  14.918  10.461  0.0175  0.0490 -0.0171
22965W        W38434   0.500  18.092  15.190 -0.1605 -0.1839  0.0944
22966W        W38435   4.015  11.265   4.530  0.3019 -0.2336 -0.1343
22967W        W38436  11.212   9.518  10.105  0.0131  0.1197  0.3627
22968W        W38437  17.530  10.315   2.528  0.0429 -0.0734 -0.1225
22969W        W38438  16.523  18.101   3.980 -0.0798  0.0200 -0.0903
22970W        W38439   5.549  18.557   0.056 -0.2122 -0.1934 -0.0501
22971W        W38440   3.021  18.865  11.763 -0.1398  0.0581  0.0407
22972W        W38441   9.362  13.318  13.812 -0.1630  0.0418 -0.2603
22973W        W38442   4.195   5.318  11.813 -0.1233  0.2309 -0.1574
22974W        W38443   0.287   8.787   3.945  0.0275 -0.0949 -0.4426
22975W        W38444  16.940  13.401   4.375  0.0291 -0.3289 -0.1389
22976W        W38445  12.657   7.027   2.710 -0.0037 -0.0772  0.0144
22977W        W38446  10.823  17.715  13.262  0.0584 -0.0911 -0.0614
22978W        W38447  13.511  13.941   0.457  0.2249  0.1967  0.1911
22979W        W38448  18.477  11.748  12.936 -0.1508 -0.1259 -0.0350
22980W        W38449   2.246   4.674  13.938 -0.1504  0.3281 -0.2211
22981W        W38450  12.263   5.100  11.298  0.0012  0.1287 -0.0418
22982W        W38451  10.071  16.259  11.310  0.3902  0.0676  0.1611
22983W        W38452  12.913   7.511  10.496  0.1149 -0.1321  0.1436
22984W        W38453  14.863  10.986   2.834 -0.0470  0.2258  0.1382
22985W        W38454   2.084  18.676  11.364 -0.0495  0.2765  0.1120
22986W        W38455   8.563  18.659   3.786  0.0383  0.1593 -0.1501
22987W        W38456   7.571   5.828   3.065 -0.1333 -0.0217  0.2636
22988W        W38457   9.409   4.647   3.799  0.1564  0.2213  0.2035
22989W        W38458   1.613  13.560   2.283  0.3626 -0.0433  0.1267
22990W        W38459   3.743  13.195   4.262  0.2872  0.3181  0.0273
22991W        W38460   3.374   3.563   4.733 -0.1630 -0.1604  0.1146
22992W        W38461   4.853  11.536  14.411 -0.0732  0.1290  0.1546
22993W        W38462   1.904  14.674   1.256 -0.3300 -0.1818 -0.0445
22994W        W38463   4.911  13.557   3.532 -0.2526  0.2184 -0.1979
22995W        W38464  18.819   1.962  11.816 -0.0233  0.1862  0.0044
22996W        W38465   7.892  14.451   4.748 -0.0952 -0.3192  0.3749
22997W        W38466  10.895   5.505  14.439  0.3440 -0.3733 -0.1640
22998W        W38467   3.716  17.807   2.991  0.2182 -0.2066 -0.1675
22999W        W38468  17.101  13.262   1.316  0.1035  0.0514  0.0344
23000W        W38469   7.240  17.682  12.640 -0.1915 -0.2260 -0.0451
23001W        W38470   0.383  11.185  13.005 -0.0673 -0.1388 -0.2112
23002W        W38471  11.892   4.660  10.357  0.0386 -0.2020  0.3464
23003W        W38472   1.158   3.939   2.215  0.0140  0.0483 -0.0224
23004W        W38473  10.673   9.096  13.044 -0.2746 -0.1791 -0.0634
23005W        W38474   3.100   6.388  11.757  0.0886 -0.0460 -0.3796
23006W        W38475  18.522  10.916  13.539 -0.1210  0.1486  0.0562
23007W        W38476  10.863  13.637   3.777  0.1460 -0.1720  0.1757
23008W        W38477   5.099  18.258   0.699 -0.3134 -0.0353 -0.0216
23009W        W38478  16.594   0.895   0.016 -0.0813 -0.2075  0.0732
23010W        W38479   5.410   5.516   5.155  0.1328  0.0207 -0.0507
23011W        W38480  17.841  16.712   2.566  0.5469  0.1312  0.0489
23012W        W38481  13.162  13.152   3.487  0.3267  0.3116  0.0129
23013W        W38482   1.194   3.002  13.173 -0.2021  0.1073  0.0568
23014W        W38483  15.981   0.275   3.458  0.0521  0.2900 -0.0585
23015W        W38484  15.450  12.991  14.437  0.0180  0.0828  0.1655
23016W        W38485  18.670  15.318   0.907  0.1085 -0.2320 -0.0952
23017W        W38486   2.138   7.233   2.286  0.0736  0.1035  0.1191
23018W        W38487   3.001  11.346   5.771 -0.0030 -0.0810  0.2074
23019W        W38488  14.579  15.089   4.269 -0.0256 -0.0462  0.0759
23020W        W38489  12.526  18.803   2.760  0.0198 -0.2514  0.0238
23021W        W38490  11.797  13.971   5.392  0.2313  0.2497  0.2470
23022W        W38491   5.247   0.944  12.347 -0.0689 -0.0104 -0.0726
23023W        W38492   4.182   9.209   0.050  0.0344 -0.0016  0.0104
23024W        W38493  17.814  10.720   4.392 -0.2035  0.1217 -0.0689
23025W        W38494  11.415   4.025   5.489 -0.0609 -0.4118  0.1395
23026W        W38495   7.057   4.254  13.270 -0.0378 -0.2618  0.0977
23027W        W38496   4.345   4.368   5.619  0.0832 -0.1732 -0.0829
23028W        W38497  17.717  18.629   0.018  0.2193  0.2858 -0.2786
23029W        W38498  11.913  15.486   4.839  0.0312  0.1546  0.2373
23030W        W38499   5.251  14.216   3.090  0.0275  0.2020 -0.0533
23031W        W38500   2.123  15.992   4.664 -0.0338 -0.1726  0.2749
23032W        W38501  16.603   6.935  11.996 -0.0563 -0.2529  0.4992
23033W        W38502   2.722   6.992   5.000 -0.1503 -0.2959  0.5188
23034W        W38503   2.402  16.134   3.640 -0.0960  0.0691  0.0689
23035W        W38504   5.961   2.655  12.941 -0.2045  0.1364 -0.1645
23036W        W38505   4.579   5.622   4.541 -0.1085  0.5435 -0.1198
23037W        W38506  15.663   0.733   3.821 -0.1082  0.1066 -0.1164
23038W        W38507   7.174  10.264   4.563 -0.0283  0.0358 -0.0880
23039W        W38508   9.676  16.221   1.174 -0.0971  0.3048 -0.1353
23040W        W38509   5.961  14.082  14.695  0.4413  0.2350 -0.0328
23041W        W38510   7.147  15.680   1.210  0.1493 -0.0978  0.0339
23042W        W38511   5.961  18.897  13.735 -0.0294 -0.0994  0.2452
23043W        W38512   2.414   6.147  13.474 -0.1994  0.2270  0.1343
23044W        W38513   2.036   2.165   3.217 -0.0731 -0.1756  0.1494
23045W        W38514   1.842   3.286  12.513  0.0269  0.1261  0.1009
23046W        W38515  13.330   1.836  11.346 -0.2702  0.1100  0.0499
23047W        W38516   3.085   0.890  12.254  0.0946 -0.3185  0.2866
23048W        W38517   5.305  12.762   2.648 -0.2030 -0.1143 -0.0376
23049W        W38518  15.452   4.173   2.365  0.1262 -0.1391  0.0829
23050W        W38519  13.379   3.180   0.301  0.0012  0.0668  0.1827
23051W        W38520  13.376  12.150  14.332  0.2826 -0.2758 -0.2714
23052W        W38521   3.037  12.432   1.536  0.0214 -0.1249 -0.0237
23053W        W38522   1.613   7.743  12.268 -0.0477 -0.2092  0.1676
23054W        W38523   8.466   2.484   5.166  0.1863 -0.0116 -0.0297
23055W        W38524  11.494  16.828  11.902 -0.0264  0.1639 -0.0852
23056W        W38525   0.354   2.742   2.544 -0.1606 -0.0955 -0.1373
23057W        W38526   5.089  10.233  13.308 -0.1400  0.0676 -0.2053
23058W        W38527   5.486  18.723  13.885  0.1019 -0.0966  0.0736
23059W        W38528   7.543   0.623  14.853 -0.0524  0.2099 -0.4356
23060W        W38529   5.327   5.794  14.136 -0.1422 -0.1277 -0.5961
23061W        W38530   2.324  17.212  11.560 -0.5708 -0.0368  0.0825
23062W        W38531   8.010   3.152  14.675 -0.0744 -0.1008  0.2524
23063W        W38532   6.001  17.340  14.314 -0.5127  0.1048  0.0171
23064W        W38533   5.076   2.555  15.403 -0.2145  0.1897  0.1990
23065W        W38534   8.461   1.791   1.026  0.3007  0.0345 -0.0136
23066W        W38535  12.933   1.588  14.855 -0.0264  0.3879 -0.1775
23067W        W38536   7.765   8.224   0.549 -0.1705 -0.1602 -0.0094
23068W        W38537   3.271   5.845   1.079  0.0631  0.2863  0.1049
23069W        W38538  17.761  15.027   3.920 -0.1430 -0.2869  0.2499
23070W        W38539   2.706   3.731   1.029 -0.0566 -0.2462 -0.1288
23071W        W38540   9.485  10.470   2.707  0.2870  0.0327  0.2072
23072W        W38541  15.649   6.928   0.624  0.2518  0.2311  0.1047
23073W        W38542   1.305   6.598   4.220  0.2624 -0.1972 -0.0844
23074W        W38543  17.805  16.285   0.220 -0.1191  0.0554  0.4855
23075W        W38544   9.446   4.883  14.734 -0.0422  0.2629 -0.0223
23076W        W38545  12.561  16.626   1.063  0.0058  0.0132 -0.0375
23077W        W38546  16.479  11.818  10.446 -0.1052 -0.1299  0.0715
23078W        W38547   9.281   9.056   5.237 -0.3187  0.2801 -0.3879
23079W        W38548  14.712   0.043   3.491 -0.2198 -0.2973 -0.0376
23080W        W38549   5.211   7.744  15.074 -0.0093  0.3462 -0.0248
23081W        W38550   1.110   9.474   2.218  0.2836  0.2003 -0.0800
23082W        W38551   6.620   0.154   0.814  0.2020  0.2709  0.0684
23083W        W38552  12.837   7.132  12.888  0.1448  0.0718 -0.0382
23084W        W38553   5.216   2.229   0.312 -0.0250  0.1183 -0.2365
23085W        W38554   1.085  11.556  10.509 -0.1543 -0.1952  0.0330
23086W        W38555  16.392   8.669   3.449  0.0794  0.1569  0.0896
23087W        W38556   4.625   9.076   4.115  0.1880 -0.0839  0.2476
23088W        W38557   1.445   1.172   5.451 -0.0253  0.1599 -0.3917
23089W        W38558   7.683  14.730  12.765 -0.4560 -0.1002 -0.1145
23090W        W38559   8.292  10.332   5.039 -0.0751 -0.0563  0.1637
23091W        W38560   0.201   8.399  11.383 -0.4912  0.1863  0.0299
23092W        W38561  17.042   3.503   1.823 -0.1804  0.0513 -0.1287
23093W        W38562  10.869  17.806  14.676  0.2860  0.0125  0.0381
23094W        W38563   4.662   5.742   9.737 -0.0457 -0.1991 -0.1140
23095W        W38564  18.230  14.318   1.850 -0.1204  0.1110  0.0668
23096W        W38565   7.170  10.072  14.472 -0.4520  0.0454  0.1874
23097W        W38566  14.541  11.407   2.718 -0.2049  0.3623 -0.1763
23098W        W38567   2.201   5.839  13.046 -0.1029  0.0904  0.2482
23099W        W38568   7.100   1.846  15.078  0.0653 -0.1137 -0.0689
23100W        W38569  14.319  10.488  14.047 -0.1069 -0.0061 -0.0653
23101W        W38570  16.112   7.779  11.519 -0.1561  0.3575  0.0452
23102W        W38571   0.947  18.909  11.802  0.0164 -0.0252 -0.2972
23103W        W38572   9.946   6.828  12.350  0.0411  0.2375  0.2178
23104W        W38573  18.718   6.775   4.373 -0.3388  0.2675  0.2288
23105W        W38574   3.313   0.976  10.348  0.1105  0.2972  0.0684
23106W        W38575   8.198  12.435  11.255 -0.1163 -0.0198 -0.2090
23107W        W38576   9.067  14.265  12.558 -0.3024  0.0594 -0.1611
23108W        W38577   6.765   6.198  11.612  0.0167 -0.1570 -0.0041
23109W        W38578  11.619   2.865  11.213 -0.1455 -0.2558 -0.0572
23110W        W38579   7.479  14.891  13.234  0.3363  0.2130  0.2509
23111W        W38580  11.113   1.724   3.936 -0.2387  0.0307  0.0399
23112W        W38581   3.003   9.314   0.275 -0.2460  0.0288 -0.0885
23113W        W38582   3.085  16.478   2.675 -0.0911 -0.1093  0.1271
23114W        W38583  12.954   6.486   9.502  0.2308 -0.2230 -0.1575
23115W        W38584   1.029   8.303   1.033 -0.1181 -0.0593 -0.1720
23116W        W38585   0.911  10.093  11.440 -0.2742 -0.0869  0.1286
23117W        W38586   9.719  13.582   0.016 -0.0017 -0.0103  0.0290
23118W        W38587   4.075   2.607  15.242  0.1603  0.2962 -0.0507
23119W        W38588  12.153  18.915  10.825  0.2508 -0.2345 -0.0321
23120W        W38589   6.843  15.451  12.190 -0.0172 -0.1369 -0.2303
23121W        W38590   0.119  10.283  15.423  0.2632 -0.0958  0.0241
23122W        W38591   7.093  11.857   5.065 -0.3409 -0.0932 -0.1034
23123W        W38592   9.908   9.003  10.978  0.1153  0.0632 -0.0771
23124W        W38593  18.548  10.885  14.526 -0.2582 -0.0276 -0.1721
23125W        W38594   9.401   6.790  11.982 -0.1733  0.1373  0.1434
23126W        W38595   2.205  16.021  14.392  0.0874 -0.5107 -0.1489
23127W        W38596  10.793  18.605   1.961 -0.2671 -0.1576 -0.0337
23128W        W38597  11.734  14.716   1.259  0.2879 -0.4632 -0.1553
23129W        W38598   5.138  10.454   1.342 -0.2369  0.3268  0.0377
23130W        W38599   5.175  14.448   3.952 -0.1201 -0.3146  0.1704
23131W        W38600  15.677  17.366  11.785  0.0246 -0.0770  0.0607
23132W        W38601  13.882  15.569   2.166  0.0058 -0.0179 -0.0546
23133W        W38602  11.023  17.279  11.381  0.1061  0.2058  0.1959
23134W        W38603  15.575  14.090   1.559  0.0330 -0.0096  0.0901
23135W        W38604   5.578   5.376  13.251  0.0972 -0.0425 -0.1614
23136W        W38605   6.596  12.046  13.029 -0.0617  0.0025  0.1450
23137W        W38606   1.189   0.448   0.908 -0.0283  0.4326 -0.1342
23138W        W38607  11.770  13.729  11.146  0.0818 -0.2554  0.0656
23139W        W38608  10.434   5.629   3.583  0.2162  0.0554  0.2606
23140W        W38609   6.063  13.764   1.970  0.0005  0.1378  0.0862
23141W        W38610   2.712  12.772  10.509 -0.0004  0.1559 -0.0874
23142W        W38611   8.964  10.597  11.402  0.1560  0.3205 -0.0162
23143W        W38612   7.341   6.921   1.655  0.1639  0.0219  0.1244
23144W        W38613   2.962   6.400  14.590 -0.0623  0.2305  0.0443
23145W        W38614  13.723  18.053  11.628 -0.1048 -0.1753 -0.0491
23146W        W38615   4.452  16.867  12.286 -0.1908 -0.1284  0.0656
23147W        W38616  17.299   4.117  12.424  0.0448 -0.3052 -0.1868
23148W        W38617   7.295   3.196   2.761  0.2774  0.0778 -0.0410
23149W        W38618   1.397   5.696   1.401 -0.0183 -0.0883  0.1253
23150W        W38619  13.125   0.443  11.093 -0.0406 -0.2554 -0.3458
23151W        W38620   8.323   1.709  15.199 -0.2327  0.2003 -0.0120
23152W        W38621   6.915  12.196  11.984 -0.0441 -0.3833 -0.1569
23153W        W38622   4.530  13.804  13.955 -0.0733  0.0252 -0.0451
23154W        W38623   1.926  18.393   4.006 -0.3950 -0.0565 -0.3246
23155W        W38624  15.523   9.216  15.395  0.0501  0.1554  0.1053
23156W        W38625   6.865   6.643   4.974 -0.1408 -0.1396 -0.2572
23157W        W38626   3.099   6.722   4.793 -0.1785  0.1221 -0.1008
23158W        W38627   9.336   6.578   0.046 -0.2268 -0.0311  0.1025
23159W        W38628   0.251  12.181  10.219  0.0957 -0.3888 -0.2292
23160W        W38629   2.974  16.114   3.015  0.0412  0.0866  0.4134
23161W        W38630  12.942  17.827   3.871 -0.2182  0.4147 -0.0298
23162W        W38631  13.462   9.154  10.494  0.0182 -0.0832  0.1746
23163W        W38632   3.178  18.519   4.018  0.0759 -0.1502  0.0195
23164W        W38633   3.041   1.139  10.822  0.3531 -0.0016 -0.1438
23165W        W38634   7.762  13.960   2.847 -0.0631  0.0789  0.3232
23166W        W38635   1.488  12.330   0.008 -0.0078  0.1841  0.2186
23167W        W38636   4.983  15.672   0.421 -0.1096  0.2493 -0.0512
23168W        W38637   4.256  10.099  12.319 -0.0946  0.1587  0.1921
23169W        W38638  16.132   1.863   0.121 -0.0002 -0.0715  0.2686
23170W        W38639   7.801  14.604  13.672  0.0602  0.4368  0.2590
23171W        W38640  13.845  16.285  12.819  0.1339  0.2150 -0.2863
23172W        W38641  12.482   6.980   3.678 -0.0318 -0.2563 -0.1872
23173W        W38642   4.603  10.788  11.352 -0.2641 -0.1546 -0.0285
23174W        W38643  15.685   0.577   2.701  0.0425 -0.2360 -0.2092
23175W        W38644   1.104   5.355   0.543 -0.0737 -0.1549  0.4081
23176W        W38645   4.443  12.620   4.033 -0.2793 -0.0880 -0.1576
23177W        W38646  16.030   9.293  12.547 -0.0326 -0.1288 -0.1379
23178W        W38647  11.939   7.694   4.209  0.0198  0.0096 -0.0048
23179W        W38648  17.140   2.183  12.321 -0.2066  0.1693 -0.2239
23180W        W38649   1.145  17.850   1.137 -0.0010  0.4371  0.1508
23181W        W38650   7.255  18.894  12.702  0.0015  0.0223  0.0057
23182W        W38651  14.187  17.316  11.482  0.2547  0.0222 -0.2621
23183W        W38652   4.728   2.139   0.338 -0.4041 -0.2831 -0.0126
23184W        W38653   3.369   5.803   5.140  0.2117  0.2616 -0.0766
23185W        W38654  12.294   3.250  11.576 -0.1900  0.1171 -0.0199
23186W        W38655   8.113  10.862   5.533  0.0358 -0.3354  0.0552
23187W        W38656   6.372  10.048   2.239  0.1666 -0.0283 -0.0170
23188W        W38657  17.507   8.634   5.087  0.0834 -0.1340 -0.2572
23189W        W38658   5.176   0.327  13.785  0.0167 -0.2479  0.0750
23190W        W38659   8.767   4.199  11.629  0.0923 -0.2647  0.0643
23191W        W38660  14.959   7.351  11.752  0.3774 -0.0123  0.2418
23192W        W38661   5.325   9.533  15.011 -0.1574  0.1968  0.2282
23193W        W38662   6.662  15.538   0.738  0.1294  0.0859  0.0290
23194W        W38663  10.924  13.033   1.489 -0.0082  0.0592  0.1039
23195W        W38664  14.468  11.709  11.819 -0.2108 -0.0791 -0.2531
23196W        W38665  18.614  14.299   0.220 -0.1709  0.2136 -0.3181
23197W        W38666   0.212   3.894  13.137 -0.1129  0.0898  0.1330
23198W        W38667   7.799  12.213  10.427  0.1194 -0.1989 -0.0974
23199W        W38668   6.973   6.544   1.014  0.0421 -0.2619 -0.2712
23200W        W38669   4.121  10.568  13.930 -0.1121  0.2088  0.0231
23201W        W38670  10.938   5.477   4.388 -0.0606 -0.1118 -0.0642
23202W        W38671   8.499  16.203   3.399  0.3508 -0.4395  0.0424
23203W        W38672  14.256  10.018   0.256 -0.1331 -0.3146  0.2289
23204W        W38673   0.376  14.464   4.575 -0.0102 -0.1909 -0.0784
23205W        W38674   6.150   5.434  10.006  0.0348  0.1712  0.5469
23206W        W38675   4.008   3.623   3.573  0.4193 -0.1531 -0.2148
23207W        W38676   3.467   1.345  10.696 -0.0650  0.1009  0.2410
23208W        W38677  13.815  11.234  12.984 -0.1610 -0.1240 -0.2051
23209W        W38678   4.012  12.491  12.540 -0.3489  0.0692  0.0733
23210W        W38679  15.781  18.706   1.462  0.3287  0.0018  0.0676
23211W        W38680   8.467  13.600  11.473 -0.4521 -0.0144 -0.0004
23212W        W38681   6.684   8.946   5.850  0.1720 -0.3256 -0.0008
23213W        W38682  16.085  11.092   2.857  0.0611 -0.0362  0.1334
23214W        W38683  12.781  17.847  12.973 -0.0754  0.1528  0.0099
23215W        W38684   9.539  16.870   2.895  0.3084  0.0891  0.0699
23216W        W38685  15.625  16.365  14.438  0.0254  0.2709 -0.2940
23217W        W38686  13.179   4.439   5.155 -0.1125  0.3461  0.2837
23218W        W38687  18.613  13.494   0.761  0.0214  0.5222 -0.0641
23219W        W38688  17.264  12.267  11.721 -0.2873 -0.2221 -0.0073
23220W        W38689  13.232   6.187  13.223  0.0672  0.1270 -0.0583
23221W        W38690   5.278  15.147   5.051 -0.0454  0.0828  0.1070
23222W        W38691   2.530  14.713  13.037  0.1293 -0.0798  0.4419
23223W        W38692  13.684   7.464   4.164 -0.0822  0.0990  0.0379
23224W        W38693  18.782  12.186   4.749 -0.0774 -0.2477 -0.1251
23225W        W38694   7.790   0.005  14.929 -0.0530  0.0407 -0.2485
23226W        W38695   6.310  13.489  10.004 -0.0075  0.1497 -0.0671
23227W        W38696   7.399  18.184   3.469 -0.0723 -0.1021 -0.0272
23228W        W38697   2.501   6.830   3.698 -0.0254 -0.1518  0.0751
23229W        W38698  18.093   0.494   4.748  0.4630 -0.0124  0.2526
23230W        W38699   2.306  18.686   3.672  0.0566  0.1497 -0.0055
23231W        W38700   2.088  17.465   0.267 -0.1303  0.1877 -0.0816
23232W        W38701  18.818   8.012  15.219 -0.0108  0.0443  0.1548
23233W        W38702   9.782  18.116  12.951 -0.3330 -0.0828  0.3150
23234W        W38703  18.122  10.974  11.186 -0.0388 -0.0118 -0.1760
23235W        W38704  10.937  11.570  12.403  0.2727  0.1422 -0.0748
23236W        W38705  13.667  12.347  12.213 -0.2924  0.1031 -0.0644
23237W        W38706   6.752  10.886   4.061  0.0646  0.2732 -0.0582
23238W        W38707  17.847   3.795  13.793  0.0658  0.0947 -0.1466
23239W        W38708  12.271  15.821   3.389  0.2002 -0.1115  0.0023
23240W        W38709  10.231  14.494  12.210 -0.1940 -0.0486  0.0091
23241W        W38710  10.971  11.500   2.518  0.2321 -0.3020  0.0665
23242W        W38711  13.659  17.529  11.313  0.3101 -0.1165 -0.2042
23243W        W38712   4.134  17.661  10.465 -0.0237 -0.0573 -0.0593
23244W        W38713   6.704   3.353   3.701  0.0051  0.0763  0.3641
23245W        W38714  11.668   8.514   5.226 -0.0569  0.1099  0.0284
23246W        W38715   5.479  16.044  14.029  0.1117 -0.1755 -0.2838
23247W        W38716   3.589  12.743   5.226 -0.1109  0.0670 -0.2521
23248W        W38717   9.432  12.517  12.302  0.0712  0.1396  0.0521
23249W        W38718   5.605   0.213  11.431 -0.1738  0.0540  0.2776
23250W        W38719   4.318   6.807  13.419  0.1296  0.0891 -0.3029
23251W        W38720   6.044   9.733   3.486 -0.3776 -0.2978  0.1770
23252W        W38721  13.408  13.060   2.380 -0.1212  0.0291  0.3286
23253W        W38722   7.683  17.869   1.777  0.1316 -0.0300 -0.1267
23254W        W38723   9.520  14.456   0.287 -0.1252  0.0649  0.0729
23255W        W38724   4.662  17.996  11.599  0.2278 -0.0995 -0.1597
23256W        W38725   9.459   0.423  12.025  0.0484  0.2222  0.0987
23257W        W38726   6.061  16.756   3.521 -0.3068  0.0362  0.2137
23258W        W38727  11.111   4.226  10.973 -0.3356 -0.0224  0.2039
23259W        W38728   7.139   2.574  11.806 -0.0798  0.4659  0.1471
23260W        W38729   2.959  12.587   2.993 -0.0281 -0.3570  0.1935
23261W        W38730  12.019   5.638   5.036  0.0611  0.1146  0.1094
23262W        W38731  17.573  16.332  12.457  0.2833 -0.0134  0.0993
23263W        W38732  10.021  12.966   1.133 -0.1318  0.0555  0.4914
23264W        W38733  17.646   7.090  11.970 -0.2280 -0.2080  0.2705
23265W        W38734  17.644   6.188  12.951 -0.4015  0.0085  0.3587
23266W        W38735  13.731   6.466   4.786  0.3976 -0.1987  0.0691
23267W        W38736   3.957  13.863   2.709 -0.0146 -0.1111 -0.0035
23268W        W38737  11.638   5.401   0.695 -0.1029  0.0913 -0.0179
23269W        W38738  11.679  12.108   4.590  0.2407  0.0117 -0.2055
23270W        W38739  11.160   8.557   2.240  0.0999 -0.0182 -0.1762
23271W        W38740   7.621  12.247   0.121 -0.1995  0.0833 -0.0808
23272W        W38741   9.593  17.809  10.648 -0.1610 -0.0263 -0.3637
23273W        W38742  15.486  13.235   2.088 -0.0618  0.0338 -0.1328
23274W        W38743   7.561  12.394   4.578  0.0880  0.1490 -0.4425
23275W        W38744   2.586   7.371   5.348  0.2053  0.0858 -0.2410
23276W        W38745  17.524   3.152  11.391  0.0563  0.1796  0.2731
23277W        W38746  13.605  17.306  12.937 -0.0606  0.0564  0.3421
23278W        W38747   5.950   9.173   1.923 -0.1812 -0.4138  0.0324
23279W        W38748   6.640   1.712  13.068  0.2555  0.0963  0.0482
23280W        W38749   6.396  15.983   5.909  0.1286 -0.0892  0.0864
23281W        W38750   0.147   8.899  12.855 -0.3349  0.0615  0.1037
23282W        W38751  16.194  11.857   2.806 -0.0626 -0.1095 -0.2318
23283W        W38752  10.003   1.722   3.847  0.1282  0.0918  0.2214
23284W        W38753  15.512   3.477  12.416 -0.0370 -0.0747 -0.3059
23285W        W38754   9.838   8.044   0.250  0.2781 -0.1495 -0.0160
23286W        W38755   2.884  10.794  11.840 -0.0619 -0.0171  0.0622
23287W        W38756   6.434   7.884  11.210  0.0176  0.0322 -0.0106
23288W        W38757  12.454   8.436  11.927  0.1901 -0.0430 -0.0651
23289W        W38758  10.105  14.315  11.105  0.1556 -0.0522 -0.1867
23290W        W38759   8.421   3.120  11.236 -0.0420  0.1593 -0.2785
23291W        W38760  15.111   5.644   2.584  0.0978  0.1600  0.1736
23292W        W38761  12.444   5.924  12.748  0.0088 -0.1529 -0.1607
23293W        W38762  17.883   1.654   5.395 -0.2774  0.3300  0.2717
23294W        W38763   1.141   2.755  14.766  0.1099  0.0559  0.1725
23295W        W38764   9.939   4.568   4.764 -0.3125  0.1520  0.3588
23296W        W38765  15.321   8.718  10.642 -0.0475  0.0938 -0.0446
23297W        W38766   1.014  15.444  11.740 -0.3282  0.1787 -0.1331
23298W        W38767  11.914  12.330  13.994 -0.2404 -0.3288 -0.1731
23299W        W38768  13.668  12.089  13.335  0.0250  0.0869 -0.1092
23300W        W38769  17.272   7.733  14.259  0.0696 -0.2722  0.0169
23301W        W38770  10.872  15.879  12.739 -0.1613 -0.1215 -0.0351
23302W        W38771   1.299  11.015  13.573  0.2307  0.2029  0.2023
23303W        W38772   8.169  11.677  12.169  0.0254  0.1016  0.0857
23304W        W38773   1.269   3.795   0.292 -0.2411  0.1855  0.4379
23305W        W38774  18.168  18.791  11.189  0.0569 -0.1867  0.4573
23306W        W38775  18.167   7.046  13.702 -0.0185 -0.2755 -0.1416
23307W        W38776   4.828   4.316   1.409  0.1388 -0.3101 -0.2894
23308W        W38777  16.254   2.488  12.557 -0.0293 -0.0395  0.2977
23309W        W38778  10.626  14.603  14.162 -0.0809 -0.1320 -0.2072
23310W        W38779   2.413  10.824   1.666 -0.0291 -0.0025  0.0185
23311W        W38780   7.480  15.490   1.785  0.0935 -0.2018 -0.2109
23312W        W38781  11.327  13.349   1.337  0.1053 -0.1444 -0.0873
23313W        W38782  14.531  15.782  10.804  0.1324 -0.2246 -0.1528
23314W        W38783  16.819  17.720   3.829 -0.1553 -0.0034 -0.0361
23315W        W38784  18.807  13.242  14.536 -0.0118  0.1192  0.4640
23316W        W38785   5.190   5.140  10.637  0.1074 -0.0863 -0.3346
23317W        W38786  13.783  15.502   3.724  0.0231  0.2259 -0.4563
23318W        W38787  16.074   7.827   9.606  0.2380 -0.1137 -0.0220
23319W        W38788   9.792  16.790  13.038  0.0112  0.0061  0.1646
23320W        W38789   6.560   2.015   5.382 -0.0085  0.1925  0.1021
23321W        W38790   4.003   3.839   2.954 -0.1672  0.2661  0.0726
23322W        W38791   5.398   0.406   1.109 -0.2998  0.1238 -0.1983
23323W        W38792   5.287   2.827   5.670 -0.1005 -0.5692  0.2155
23324W        W38793   5.725  12.466   5.127 -0.3427 -0.0203  0.2671
23325W        W38794   0.044  13.444  11.344 -0.1174 -0.1181 -0.2959
23326W        W38795   6.234  15.419   3.793  0.1294 -0.0050  0.0840
23327W        W38796   1.685   5.423  10.312 -0.4959  0.2269 -0.2914
23328W        W38797   0.726   9.905  10.968 -0.0216 -0.1864 -0.1980
23329W        W38798   3.265   9.863  12.084 -0.0121  0.3608 -0.1812
23330W        W38799  16.014  13.205   0.875 -0.2752  0.2222  0.2928
23331W        W38800  18.669   1.931   5.535  0.1384  0.2409  0.1229
23332W        W38801  12.116   0.831  14.748 -0.2306  0.0625 -0.3212
23333W        W38802   2.075  11.736  10.191 -0.0250 -0.1332 -0.1404
23334W        W38803  10.957  18.266   1.590  0.0567  0.0875 -0.1428
23335W        W38804  17.834  10.800   0.356  0.1866 -0.0156  0.2544
23336W        W38805  13.511   7.488   1.393  0.1109 -0.0973  0.0791
23337W        W38806   7.171   8.266   3.065  0.0947 -0.1047 -0.0139
23338W        W38807   3.172   1.786  12.481 -0.0158  0.0399 -0.2398
23339W        W38808   9.874  12.968   4.340  0.0514  0.1424 -0.0939
23340W        W38809  17.836  12.849   0.648 -0.5169 -0.2557  0.0156
23341W        W38810   3.023   5.739  15.168  0.2503  0.0615  0.2098
23342W        W38811   2.791   9.175  10.820 -0.1345 -0.0668 -0.1394
23343W        W38812   6.266  13.742   0.705  0.1317 -0.3783  0.3011
23344W        W38813  13.301  10.336  13.737  0.1003  0.0246 -0.0834
23345W        W38814   0.525  10.791  15.117 -0.1654 -0.2375  0.0063
23346W        W38815   0.381   3.106   4.689 -0.0575  0.3591  0.1201
23347W        W38816  17.945   8.590  14.252  0.0880  0.4115  0.0736
23348W        W38817   4.206  18.206   3.075  0.0863  0.2967  0.0036
23349W        W38818   5.745   4.643  15.277 -0.4083  0.0903  0.0587
23350W        W38819   9.008   3.849  14.951  0.0179  0.5269 -0.1428
23351W        W38820  13.218   1.545  13.154 -0.2241  0.0237 -0.4131
23352W        W38821   4.450   3.518   1.213 -0.2911 -0.2850  0.0278
23353W        W38822  13.506  15.173  11.220  0.0383  0.0904  0.0071
23354W        W38823   6.893   5.577  10.922 -0.1091  0.0147 -0.2252
23355W        W38824  17.830  17.072  11.931 -0.1771 -0.1671 -0.3221
23356W        W38825  15.126  16.291  15.298 -0.1701  0.1239 -0.1659
23357W        W38826   3.508  18.467   1.795 -0.0903 -0.3330 -0.0193
23358W        W38827   3.285  18.419   2.528  0.1200  0.0623 -0.0438
23359W        W38828   2.307  14.412   2.678 -0.0309  0.1709 -0.1088
23360W        W38829  10.933   0.459   4.240 -0.3368  0.2678  0.1424
23361W        W38830   5.309   6.045  12.071 -0.1688 -0.0623 -0.1571
23362W        W38831   0.271  14.183  11.692  0.0823  0.0362  0.2379
23363W        W38832  12.533   0.123  15.400  0.1411 -0.1116  0.1098
23364W        W38833   9.494  17.179   3.748  0.1633  0.0927 -0.1896
23365W        W38834  14.905  13.955   2.906 -0.2148  0.0714  0.1086
23366W        W38835   3.609  12.955   2.340 -0.0286  0.4328 -0.3029
23367W        W38836  12.356  11.342  13.770  0.0513  0.0435  0.3634
23368W        W38837   1.800  10.392  14.564  0.4021  0.1633 -0.1143
23369W        W38838   4.861  14.236  11.764 -0.1638 -0.1074  0.2212
23370W        W38839   3.112  13.402  10.380 -0.1211 -0.0806 -0.0386
23371W        W38840   3.821   0.206   4.370  0.1758  0.1161 -0.1782
23372W        W38841  11.154  15.775   0.806  0.0365 -0.0695  0.2845
23373W        W38842  17.838  16.878  13.406  0.2607  0.1743  0.3314
23374W        W38843   2.363   1.246   1.451  0.2855  0.2814  0.2491
23375W        W38844   3.460  17.558   2.313 -0.2156  0.2496 -0.2836
23376W        W38845   6.491  17.211   0.121 -0.0851  0.0882  0.0504
23377W        W38846  13.073  11.435   0.507 -0.3580  0.2261  0.0134
23378W        W38847   3.246  15.995  15.188  0.1176  0.1360  0.0854
23379W        W38848  10.538   5.259   2.174  0.0231 -0.0696  0.0781
23380W        W38849   4.674  16.221  12.660  0.0767 -0.2730 -0.1642
23381W        W38850  14.385  13.559   2.373  0.3025 -0.0181 -0.3020
23382W        W38851   5.367   8.548  13.006  0.0129 -0.1114  0.0440
23383W        W38852   1.175  13.372   5.138  0.1355  0.1276 -0.0428
23384W        W38853  12.561   9.616  14.119  0.1554 -0.1190  0.1480
23385W        W38854  10.822   6.313  12.439 -0.2719  0.2066  0.0380
23386W        W38855   1.152  18.620   2.775 -0.1341  0.2064 -0.3427
23387W        W38856  11.469   6.460  14.316  0.3046  0.0803 -0.1736
23388W        W38857   7.274  15.743   3.207 -0.1104 -0.0049  0.0189
23389W        W38858   5.735  12.160   4.321  0.1831 -0.2120 -0.0296
23390W        W38859   9.351  16.662   3.939 -0.2202 -0.1069  0.1029
23391W        W38860   9.081  18.217  14.850  0.0590  0.0829 -0.1800
23392W        W38861   5.030  16.957   2.419  0.0319 -0.2040  0.0068
23393W        W38862   4.163  17.279   4.649 -0.0348 -0.0112  0.2332
23394W        W38863  14.898  15.313  12.580 -0.0268  0.0613 -0.0204
23395W        W38864  11.612  18.380   0.968  0.0886  0.2633  0.1873
23396W        W38865  12.364   3.544  11.980  0.2782 -0.0638  0.1376
23397W        W38866   8.483  10.980  13.429 -0.2087 -0.2466 -0.0863
23398W        W38867  18.324  12.499  12.145 -0.3349  0.1016 -0.1173
23399W        W38868  15.011  12.819  14.896 -0.2757  0.1778 -0.0786
23400W        W38869   6.984   9.616   0.246 -0.2798 -0.1193  0.1381
23401W        W38870  10.335  13.666  14.300  0.0449 -0.0975  0.2613
23402W        W38871  10.862   8.224   5.887 -0.4765  0.4496 -0.3484
23403W        W38872  13.483   9.995  14.044  0.4338  0.0637  0.0064
23404W        W38873   5.160  14.151  12.922  0.0020  0.0616  0.0860
23405W        W38874  15.021   4.218  10.868  0.2210 -0.4099 -0.0663
23406W        W38875   8.539  11.739   0.935  0.2876  0.0860  0.2766
23407W        W38876   5.164   9.881   3.037  0.3172 -0.1567 -0.2944
23408W        W38877   9.519   6.306   3.890  0.0839 -0.0265 -0.1443
23409W        W38878  14.611   8.863  13.381 -0.0545 -0.0015 -0.0650
23410W        W38879  11.177  13.698  14.530 -0.1991  0.0806 -0.1081
23411W        W38880  15.214  17.767   4.018 -0.1372 -0.0002  0.1473
23412W        W38881   0.034  11.427   0.244  0.2524  0.1337  0.1861
23413W        W38882  15.839   6.883   2.842  0.0725 -0.1546  0.3867
23414W        W38883   1.486   1.050  15.189  0.1541  0.0105  0.1876
23415W        W38884  13.511   2.098  10.932 -0.1870 -0.0791 -0.1580
23416W        W38885   2.434  12.414   4.769  0.0385  0.1724  0.3515
23417W        W38886   8.679   1.012  11.565 -0.0805 -0.2188 -0.0131
23418W        W38887  11.509  17.560  11.410  0.1515  0.1848  0.1097
23419W        W38888  17.578  13.444  13.962  0.0990  0.0792 -0.0715
23420W        W38889  13.536  15.732   5.132  0.0860 -0.3704  0.0584
23421W        W38890  14.650   5.505   1.790  0.1171  0.1923 -0.0064
23422W        W38891  18.162   9.103   4.145 -0.1228  0.1301  0.1321
23423W        W38892  14.479   0.914   0.929  0.2449 -0.0832  0.1169
23424W        W38893   4.667  16.495   3.027  0.2630 -0.0983  0.1351
23425W        W38894  17.712  15.570  14.984 -0.2698 -0.2686 -0.4591
23426W        W38895   6.070   4.809   3.432 -0.3832  0.2039  0.0207
23427W        W38896   0.250  14.914  15.204 -0.0892 -0.3012  0.0495
23428W        W38897   0.287   1.175  11.307  0.2089  0.1131 -0.2637
23429W        W38898   2.107  18.498  14.752  0.4544 -0.1638 -0.0043
23430W        W38899   8.284  17.427   4.040  0.0747 -0.1921  0.3169
23431W        W38900   0.819   6.506  12.929  0.5477  0.0309 -0.2030
23432W        W38901  12.554   0.497   5.299 -0.3508 -0.2456  0.1004
23433W        W38902   8.227  13.586   1.230 -0.1682 -0.0974 -0.0873
23434W        W38903  15.691   6.821   4.240 -0.1128  0.0620  0.1844
23435W        W38904  10.738  17.550  13.901 -0.0130  0.1094  0.0896
23436W        W38905  12.198  15.535   2.898  0.2243 -0.1312 -0.0451
23437W        W38906   7.322   8.629  12.930  0.1495  0.0935 -0.0303
23438W        W38907   6.238   9.815   1.322 -0.0391 -0.0371  0.1240
23439W        W38908  10.830  11.796  14.542 -0.0328  0.0510  0.3292
23440W        W38909  18.003  13.835   3.719 -0.4891  0.2212 -0.1539
23441W        W38910  14.455  11.665  13.557 -0.2363  0.1130  0.2158
23442W        W38911  18.443   8.330  14.383 -0.0058 -0.1799 -0.0276
23443W        W38912   7.170   4.623  11.986 -0.0137  0.2911  0.0407
23444W        W38913  12.046  13.994   1.656 -0.1958 -0.0700 -0.0494
23445W        W38914  13.424  10.764   3.622 -0.1111 -0.0276  0.3263
23446W        W38915   0.823  13.722  13.171 -0.1486  0.2904 -0.2008
23447W        W38916   8.315  14.965   2.301  0.2223  0.0806 -0.0317
23448W        W38917  14.541   2.631   2.911  0.1875  0.0608  0.3580
23449W        W38918   0.216   1.988   0.805  0.4626  0.1395  0.0496
23450W        W38919   8.193   9.942  15.306  0.1089  0.0540 -0.3813
23451W        W38920   3.422  11.566   2.734 -0.1586  0.0431  0.2179
23452W        W38921   6.314   2.605   4.357  0.1877 -0.1895 -0.2822
23453W        W38922  12.907  11.905  11.972  0.2837 -0.1251  0.1056
23454W        W38923   7.222  14.554  13.051  0.1160 -0.0938 -0.1669
23455W        W38924   1.741   7.889  10.382 -0.0916  0.0785 -0.5084
23456W        W38925   2.813   8.664  11.596  0.1076  0.2617  0.2113
23457W        W38926  14.483  16.730  11.902  0.1007 -0.5539 -0.1170
23458W        W38927  17.950  12.746   3.606 -0.0833 -0.2057  0.1462
23459W        W38928   5.631   9.129  13.290  0.1350  0.2664 -0.2502
23460W        W38929   3.354   8.313   4.878  0.2735 -0.0469 -0.2285
23461W        W38930  15.710  10.453   2.980 -0.1354 -0.0128 -0.0384
23462W        W38931   8.681  15.123  10.782 -0.1188  0.1100  0.4179
23463W        W38932   9.657   3.435  13.329  0.0466  0.3459 -0.1463
23464W        W38933   1.380  13.595  12.406  0.0554  0.0417 -0.2755
23465W        W38934   1.491  12.928   5.052  0.0198 -0.2082 -0.1408
23466W        W38935  17.976   0.262   1.492  0.1021 -0.0392 -0.2217
23467W        W38936   2.843  14.016  12.229 -0.0082 -0.3062 -0.1554
23468W        W38937   5.474   9.861   3.480  0.0426 -0.0560  0.2716
23469W        W38938  17.976  15.378   5.475  0.0178 -0.1811 -0.0715
23470W        W38939  18.494  11.229  12.837 -0.0209 -0.2606 -0.1294
23471W        W38940   3.536  14.593   1.555  0.1496  0.1300 -0.1091
23472W        W38941   8.496  15.220   3.306  0.1635  0.0235 -0.2239
23473W        W38942   6.963  10.953   1.590 -0.1224  0.1064  0.2690
23474W        W38943   6.031   3.360   1.771 -0.2053 -0.2008  0.2276
23475W        W38944  17.073   5.120   5.946  0.2860 -0.2146  0.0856
23476W        W38945   4.714  17.234  12.674 -0.1579  0.2174 -0.1401
23477W        W38946  12.220  10.904  10.948 -0.1258  0.0759  0.1829
23478W        W38947  11.619   5.921   4.801  0.1548  0.0800 -0.1330
23479W        W38948  13.481   5.703   5.224  0.0464  0.1490  0.0469
23480W        W38949  16.295   1.165   5.630  0.0202 -0.0875  0.0803
23481W        W38950   8.764  10.501  13.655  0.2370  0.1155 -0.1974
23482W        W38951   4.648  17.541   2.723  0.0610  0.1607 -0.4125
23483W        W38952  14.676   7.911  11.189  0.0167 -0.2770  0.1024
23484W        W38953  13.259   0.319   1.412 -0.0384  0.2675  0.0817
23485W        W38954   0.125   0.654  15.377 -0.3041 -0.1984  0.2212
23486W        W38955   0.970  11.777  11.522  0.0756  0.0853 -0.1161
23487W        W38956   8.054   0.291   5.478 -0.1766  0.1572 -0.2218
23488W        W38957  13.275  18.529   2.259  0.0532  0.1076 -0.0033
23489W        W38958  11.847  17.150  13.604  0.0207 -0.1539  0.4682
23490W        W38959  18.126   0.081  13.083 -0.1648  0.3118  0.3309
23491W        W38960  12.893  16.810   2.010  0.1122  0.2191 -0.2334
23492W        W38961   3.908  16.073   3.406 -0.0819 -0.1857  0.4486
23493W        W38962   2.113  17.521  14.703 -0.2246  0.0896  0.1571
23494W        W38963   1.352   3.131  14.469  0.0778  0.1939 -0.1484
23495W        W38964  10.355   4.025  15.436  0.2490  0.0149  0.1260
23496W        W38965   3.461   4.982  11.088  0.0514  0.1089  0.0014
23497W        W38966   1.142   9.996   2.370  0.1427 -0.5267  0.2566
23498W        W38967  18.730  12.642  14.411 -0.2734  0.2609 -0.0215
23499W        W38968  15.358   0.760  11.709  0.0518 -0.0153 -0.1117
23500W        W38969  12.581  17.340   2.670  0.1540 -0.0681 -0.1144
23501W        W38970   4.726  17.371  12.097  0.0726  0.0458  0.0279
23502W        W38971  13.241   9.009   0.674 -0.1113 -0.1964 -0.2180
23503W        W38972  17.864  17.140  10.926  0.1159 -0.0783  0.2602
23504W        W38973   4.689  15.551   1.414  0.2120  0.3259 -0.2372
23505W        W38974  11.205   8.437  11.952 -0.2215 -0.4309 -0.0910
23506W        W38975  16.019   6.280   0.219 -0.0601  0.0480 -0.0197
23507W        W38976   9.269   1.204   1.396  0.0871 -0.1982  0.1598
23508W        W38977   5.781   1.867  11.289 -0.2511 -0.2382 -0.1072
23509W        W38978   5.377   4.440  12.567  0.1106 -0.2638  0.0016
23510W        W38979   8.458   2.138   4.343  0.1473 -0.0518 -0.0241
23511W        W38980   3.136  16.320   0.133 -0.1385 -0.2220 -0.0980
23512W        W38981   0.487   6.189   2.865 -0.0793  0.0903  0.0851
23513W        W38982  12.796   4.006   9.572  0.0057 -0.0788 -0.0695
23514W        W38983   5.018  15.741  14.867 -0.1943  0.0369  0.2987
23515W        W38984   3.966   9.680   4.128  0.2748 -0.0678 -0.1326
23516W        W38985  18.320   6.448   4.650 -0.0074 -0.1446 -0.0818
23517W        W38986  17.962  13.269  14.963  0.0193 -0.0061 -0.1522
23518W        W38987   4.820  11.436   3.784  0.5367 -0.3439  0.0003
23519W        W38988  18.905  10.136  14.988  0.0517  0.4484  0.1520
23520W        W38989  13.902  10.278   1.939 -0.2348  0.2663 -0.1486
23521W        W38990   2.526   4.230   4.426  0.3492 -0.0438 -0.2933
23522W        W38991  11.539  15.875  13.839  0.1746 -0.0702  0.2264
23523W        W38992   3.407  18.152  14.729 -0.0615  0.1670  0.2288
23524W        W38993  12.967  15.502  11.372  0.1350 -0.2358 -0.1694
23525W        W38994   6.761  10.768  14.545  0.0076  0.0046  0.0877
23526W        W38995  13.712  12.628  11.184 -0.3415 -0.1306  0.2975
23527W        W38996  16.059  14.714   2.588  0.1236 -0.1105  0.1237
23528W        W38997  18.059   1.579  14.133  0.1198  0.0329  0.1575
23529W        W38998   8.158   3.698  11.773  0.1567 -0.1146  0.0985
23530W        W38999   6.869  16.938   0.940  0.2715 -0.0748 -0.0072
23531W        W39000  18.731  12.503   1.041 -0.0825 -0.1072  0.2037
23532W        W39001   8.890  15.780  15.413  0.2032 -0.0262 -0.1529
23533W        W39002   9.954  17.312  11.168 -0.0446 -0.0796  0.0105
23534W        W39003   7.627   1.442   2.047  0.0978 -0.2603  0.2907
23535W        W39004   9.240  12.107  12.961  0.2094  0.2324  0.2867
23536W        W39005  17.118   1.666  11.273 -0.0736  0.2041 -0.0526
23537W        W39006  10.628   3.737  13.006  0.4028 -0.0098 -0.0753
23538W        W39007   9.379   6.291   2.433 -0.0352  0.1870 -0.0942
23539W        W39008   1.049  17.240   9.846  0.1827  0.0775  0.2538
23540W        W39009  15.101  11.320   3.582 -0.3341  0.1716 -0.0429
23541W        W39010  12.818  12.204  13.888  0.0181 -0.2097 -0.2433
23542W        W39011  17.005  12.556  11.165 -0.1845 -0.2503 -0.2005
23543W        W39012   0.929   8.832  10.601  0.2454 -0.0639 -0.0775
23544W        W39013  18.589  10.629   5.577  0.1087  0.1515  0.0712
23545W        W39014  15.498   0.448  13.016 -0.0899 -0.0552 -0.2796
23546W        W39015  10.851  12.140   3.260 -0.0118  0.1315 -0.0182
23547W        W39016  14.187  15.166  11.845  0.1281  0.0272  0.0628
23548W        W39017  18.182   6.161   5.866  0.3361  0.3255  0.1291
23549W        W39018  10.521  10.594   1.061  0.4217  0.1333 -0.4098
23550W        W39019   1.925  17.770   0.982 -0.1172  0.2566 -0.2133
23551W        W39020   1.115  11.601  12.913  0.1570  0.0673 -0.0982
23552W        W39021  12.039   8.207  11.703 -0.2584 -0.1585 -0.1797
23553W        W39022   7.606  16.054   2.902  0.2034  0.2937  0.3866
23554W        W39023  16.238  15.342  15.390  0.0145  0.5546  0.2335
23555W        W39024   9.759   8.941   0.805 -0.1612  0.0910  0.1269
23556W        W39025  15.787   8.963  14.973 -0.0637  0.1640 -0.1087
23557W        W39026  12.158   6.616   1.176 -0.0834 -0.4423 -0.2350
23558W        W39027  15.910   4.872  14.616  0.0886  0.2003  0.0059
23559W        W39028  12.887   2.720   2.198 -0.1663  0.1593  0.1250
23560W        W39029   1.009  16.884  14.217 -0.4516  0.2753  0.0503
23561W        W39030  12.097  10.150  14.960 -0.2156 -0.0031 -0.2735
23562W        W39031  17.456   3.212   1.796  0.0372  0.0822 -0.2065
23563W        W39032  11.771  14.619  12.099  0.2589  0.0015 -0.2930
23564W        W39033   4.176  12.406   1.597  0.1319 -0.0789  0.2484
23565W        W39034   7.178  11.050  14.261  0.0557  0.0480  0.1659
23566W        W39035   2.654  17.281   0.105  0.0823 -0.0156  0.0871
23567W        W39036   1.886   7.700   4.384 -0.2473 -0.1979 -0.2273
23568W        W39037  14.239  14.140  15.470 -0.1466 -0.2369  0.2435
23569W        W39038   0.035  11.115   4.210 -0.0650 -0.2355  0.1068
23570W        W39039   9.187  15.751  14.962  0.0912 -0.0448  0.3432
23571W        W39040   3.398  14.907  14.985  0.0744  0.0352  0.0406
23572W        W39041  15.463   6.932   5.548 -0.0069  0.2608  0.1882
23573W        W39042  16.381   3.056  10.473  0.0223  0.2426 -0.2034
23574W        W39043  12.774  14.983   3.346  0.1643 -0.0150  0.0066
23575W        W39044   3.139   9.629  12.496 -0.0724  0.4275 -0.1576
23576W        W39045   7.071  15.629  14.850 -0.2485 -0.0256 -0.0209
23577W        W39046  14.570  12.888   3.441 -0.0240 -0.2758  0.2608
23578W        W39047   4.307  16.421   1.769  0.0661  0.0976 -0.0620
23579W        W39048   8.280   4.241  13.867  0.3523 -0.0573  0.0625
23580W        W39049   8.103   9.185  10.483 -0.3414  0.1184  0.0046
23581W        W39050   8.245  14.550  14.036 -0.0409 -0.2238  0.1657
23582W        W39051  15.422   4.821  11.292  0.3010 -0.0528  0.0931
23583W        W39052   4.665   4.291  12.015 -0.0027 -0.1782  0.1290
23584W        W39053   2.670  10.394  12.102 -0.0153 -0.3753 -0.3201
23585W        W39054   0.288   2.722   4.444  0.2072  0.2250  0.0380
23586W        W39055  10.810  15.047   0.211 -0.0394  0.2772 -0.0317
23587W        W39056   9.001   5.958   4.513  0.1231 -0.2836  0.1484
23588W        W39057   8.626  17.140   4.336 -0.0882 -0.0336 -0.3269
23589W        W39058   9.478  14.101   3.560 -0.2413 -0.5357 -0.2431
23590W        W39059  12.139   2.791   9.315  0.0896  0.0512  0.1845
23591W        W39060  10.122  16.213  13.873  0.1636 -0.0708  0.1173
23592W        W39061   1.135  12.701   4.756  0.1113 -0.5097  0.1242
23593W        W39062   0.221  15.227   3.500  0.2636  0.0388  0.1383
23594W        W39063  14.168   1.849  11.875  0.0944  0.0037 -0.1832
23595W        W39064  16.779   9.472  15.176  0.0619  0.1928 -0.1420
23596W        W39065   0.592  16.643  13.022 -0.1450 -0.1000 -0.0340
23597W        W39066   7.859   8.608  12.885 -0.1158 -0.4957 -0.1600
23598W        W39067   9.120  10.524   1.200  0.0101 -0.0758 -0.0320
23599W        W39068  18.756   7.594  12.250 -0.0233  0.3749 -0.4503
23600W        W39069   8.538   3.698  14.851 -0.0719 -0.0067  0.1120
23601W        W39070  12.734   9.700  14.661  0.2310  0.0409  0.2607
23602W        W39071  18.098   3.331   4.391  0.1564  0.4887 -0.0675
23603W        W39072  17.823   1.203  13.931 -0.0405 -0.1521  0.0893
23604W        W39073   7.127   9.597   4.716  0.2665  0.0546 -0.3110
23605W        W39074   8.601   2.961  10.711 -0.0833 -0.1640 -0.0591
23606W        W39075   1.874   6.668  15.100 -0.0244  0.0902 -0.3402
23607W        W39076  11.037  12.415  13.903 -0.1678 -0.3986 -0.2270
23608W        W39077   3.140   7.319   4.946  0.0536 -0.0874  0.3861
23609W        W39078  16.857  10.501   4.792 -0.1004  0.0966 -0.1012
23610W        W39079   0.821  18.192   3.160  0.2784  0.0421  0.0321
23611W        W39080   8.070  15.339   3.523 -0.0419 -0.2730  0.0594
23612W        W39081  15.057   3.528  10.197  0.1307 -0.2559  0.0519
23613W        W39082  10.726   7.475   2.199 -0.1864 -0.0209  0.3073
23614W        W39083   7.410  11.170  15.108 -0.0114 -0.0899 -0.0975
23615W        W39084  10.792  11.028  11.041 -0.0660 -0.0279  0.1205
23616W        W39085  15.380   4.477  13.809 -0.2191 -0.1151  0.2858
23617W        W39086  13.539  18.378  11.139 -0.1032  0.3452 -0.0367
23618W        W39087   8.565  16.820  14.388  0.0244  0.2991  0.0436
23619W        W39088   3.543   9.790   1.534 -0.0352  0.2496  0.1777
23620W        W39089  16.247   5.882  11.661 -0.0008 -0.3012  0.3205
23621W        W39090  13.778  17.561  15.000 -0.0383  0.1050 -0.0937
23622W        W39091   7.825  12.162  15.161  0.0530  0.0691 -0.1073
23623W        W39092   5.254  12.480  12.620 -0.0094  0.1182 -0.0586
23624W        W39093  10.116   1.186  10.888  0.1313 -0.0898  0.2902
23625W        W39094  11.919  13.305   6.024 -0.1064 -0.3353 -0.1250
23626W        W39095   8.301  18.744   1.064  0.2073 -0.0141 -0.3628
23627W        W39096   5.061  14.397  13.330 -0.3047 -0.0128 -0.0979
23628W        W39097  13.754   0.509  13.127  0.0721 -0.0829 -0.1825
23629W        W39098   0.460  11.233   6.093 -0.0493 -0.0925  0.3660
23630W        W39099  18.917   4.010   4.366  0.0728 -0.0244  0.0971
23631W        W39100   1.313   6.659   1.597 -0.0193  0.0420  0.1180
23632W        W39101   4.173  14.485  12.736  0.2546  0.0943  0.1615
23633W        W39102  13.233   9.411  12.080 -0.2816  0.1106 -0.2729
23634W        W39103  10.287   0.252  12.218 -0.1504  0.4134  0.2725
23635W        W39104  12.136   6.964  11.359 -0.1904  0.1909  0.0067
23636W        W39105   5.716   8.072   3.684  0.0541  0.1586 -0.0583
23637W        W39106   7.117  14.078  13.767 -0.4270  0.2409 -0.1868
23638W        W39107   8.841  15.887   3.511  0.1178  0.0226 -0.2022
23639W        W39108   1.102  18.710  13.635 -0.1454 -0.1132  0.1806
23640W        W39109   3.989   0.873   1.145  0.2664 -0.2573  0.1193
23641W        W39110  16.306  18.423   4.744 -0.0036  0.1482 -0.2279
23642W        W39111   4.052   6.462   3.947  0.1757 -0.5887  0.0835
23643W        W39112  18.166   3.096   3.138 -0.4009 -0.0841 -0.1090
23644W        W39113  14.863  11.370  13.814 -0.0239 -0.1669 -0.0958
23645W        W39114  12.477  10.371  12.554  0.1589 -0.1247  0.1332
23646W        W39115   1.702   7.523   1.571  0.1159  0.2386  0.2174
23647W        W39116   8.877   7.660  14.987 -0.1229 -0.0736  0.2148
23648W        W39117  17.420  15.924   0.055 -0.1629 -0.1474  0.0451
23649W        W39118  14.256  14.324  12.988  0.1365  0.1977 -0.2487
23650W        W39119   9.187  15.314   5.903  0.2463  0.0211 -0.2487
23651W        W39120  15.385   4.857  10.378 -0.1528 -0.4287 -0.0392
23652W        W39121  17.871   0.816   1.717  0.1301  0.2874  0.2954
23653W        W39122  13.184   7.536   4.173 -0.0536  0.0755  0.1409
23654W        W39123  18.773  10.454   2.484  0.0267 -0.1117  0.2011
23655W        W39124  18.400  15.731   4.738  0.2000  0.0910 -0.0733
23656W        W39125  14.871  11.033   1.365  0.4308  0.1323 -0.4332
23657W        W39126   0.938   4.718  14.649  0.2571 -0.0788  0.3464
23658W        W39127   8.234  18.291  14.857  0.1894  0.2488 -0.1530
23659W        W39128   6.530   1.259   3.014 -0.1961  0.3698 -0.0766
23660W        W39129  13.910   2.485  10.951  0.1258 -0.0436 -0.0570
23661W        W39130   1.361   1.384   2.414 -0.0319  0.0924  0.3468
23662W        W39131   9.126   8.675   2.869 -0.2794  0.0951  0.0280
23663W        W39132   6.242   1.580   2.657 -0.0488 -0.0451  0.0266
23664W        W39133   6.408  11.823   5.883 -0.0881 -0.2069  0.2342
23665W        W39134  16.970   5.378  11.854  0.1134 -0.0986  0.1600
23666W        W39135   7.236  13.165   3.682  0.0972  0.2250 -0.1917
23667W        W39136  18.082  12.922  11.845 -0.0971  0.0419  0.2766
23668W        W39137  10.212  11.770  15.319 -0.1592  0.1798 -0.1523
23669W        W39138  12.567   6.925   4.240  0.1849  0.1155  0.0685
23670W        W39139   6.023  16.378   4.822 -0.0537 -0.0427 -0.1023
23671W        W39140   5.622  13.089  11.876  0.4360 -0.1516 -0.2130
23672W        W39141   6.591  12.851   3.354 -0.0849  0.3375  0.0602
23673W        W39142  16.377  17.910   1.189  0.0030 -0.0675 -0.2223
23674W        W39143  17.149  12.467  13.307  0.2981 -0.0747  0.0521
23675W        W39144   7.953  16.513   4.582 -0.1802  0.0755  0.1304
23676W        W39145   1.670  12.481  15.089  0.0425 -0.1114 -0.0167
23677W        W39146   0.457   2.806  13.491  0.0711 -0.1804  0.0199
23678W        W39147   4.342   6.010  11.271  0.1644  0.3073  0.4204
23679W        W39148  18.177  15.735  14.779  0.0125  0.3598 -0.2923
23680W        W39149   7.568   7.615   4.223  0.0777 -0.3706 -0.4131
23681W        W39150  16.189   8.258   1.713  0.0836 -0.2634 -0.2849
23682W        W39151   2.813   0.951  14.274 -0.2743 -0.0370 -0.0201
23683W        W39152  15.192   3.319   2.322 -0.0937  0.0660 -0.0667
23684W        W39153  11.111  11.578   4.961 -0.0710 -0.0870  0.0437
23685W        W39154  14.863  15.499   2.520 -0.2206 -0.0126  0.4458
23686W        W39155  11.379  11.442  13.666  0.1079  0.0296  0.0055
23687W        W39156   4.220   9.553  13.660 -0.0942  0.1006  0.3176
23688W        W39157   4.898  11.141   4.174 -0.2099 -0.2667  0.0358
23689W        W39158  15.417  11.795  11.262  0.1205 -0.1256 -0.0073
23690W        W39159   8.445   2.295   1.352  0.0430 -0.0636  0.2214
23691W        W39160   1.522   3.659   1.303  0.1059 -0.0652 -0.4151
23692W        W39161  10.837  13.213   2.141  0.0812  0.2791  0.1078
23693W        W39162   7.584  11.396  13.369  0.0216  0.1426  0.0140
23694W        W39163  18.565  16.238  11.365 -0.1497  0.1532  0.0655
23695W        W39164  13.370  15.971  12.035 -0.3488  0.1083 -0.0129
23696W        W39165   4.214   4.726   1.849 -0.3105 -0.3247  0.1110
23697W        W39166   9.304   2.286   3.934 -0.2218 -0.0183  0.1297
23698W        W39167  15.167   6.298  15.093  0.2455 -0.1691 -0.0098
23699W        W39168   1.965   2.589  11.825 -0.0595 -0.0344  0.0567
23700W        W39169   7.595  18.288  11.124 -0.0078  0.3658 -0.1345
23701W        W39170   5.908  14.971   3.781  0.1772 -0.0084 -0.1016
23702W        W39171   9.929  15.707  14.166  0.0177 -0.0603 -0.1036
23703W        W39172   0.356  13.125  14.999  0.1280 -0.3195 -0.0189
23704W        W39173  14.933  18.429  11.475 -0.0959  0.0761  0.1770
23705W        W39174  16.702   0.487   2.956 -0.3279  0.0536  0.1215
23706W        W39175  14.996   0.092  12.110 -0.0257  0.1690  0.1234
23707W        W39176  11.236   8.452  10.860  0.0080 -0.0219 -0.0690
23708W        W39177   9.554   0.143   0.713  0.2301  0.2315  0.0366
23709W        W39178   6.089   6.669   1.575 -0.3051 -0.0783 -0.3022
23710W        W39179  13.508  11.950  14.881 -0.3062 -0.0862 -0.1033
23711W        W39180  14.511   9.377  10.550 -0.1105  0.2533 -0.2449
23712W        W39181  16.680   8.162   1.580 -0.0231  0.1656  0.0399
23713W        W39182  10.407   7.450   4.327  0.0911 -0.2206  0.2484
23714W        W39183  15.105   6.714  10.656  0.5962 -0.1115 -0.2575
23715W        W39184   9.102  13.486  14.463  0.1570  0.0343 -0.1054
23716W        W39185  14.386   0.246   2.618 -0.0726 -0.0054  0.0534
23717W        W39186   5.982  15.119  11.064 -0.6351 -0.0653  0.2171
23718W        W39187  16.565  13.885  13.705 -0.0644  0.0011  0.1783
23719W        W39188  14.843  18.256   1.739  0.0558 -0.0769 -0.0711
23720W        W39189  15.978   1.436  10.489  0.3414  0.3484  0.0121
23721W        W39190  16.817  16.030   0.400 -0.0907  0.1286  0.2233
23722W        W39191  16.598   1.205  15.155  0.5947  0.2800  0.2822
23723W        W39192  13.240  13.918  11.055  0.1433  0.0464 -0.1331
23724W        W39193   6.825   8.297  10.929  0.0877 -0.2622 -0.0547
23725W        W39194   6.092  17.767  14.763  0.1276 -0.1120  0.0963
23726W        W39195   5.911  17.724  12.973  0.0379  0.1404  0.1063
23727W        W39196   9.671  16.871  15.393  0.1203  0.1033  0.2368
23728W        W39197  18.624  18.376   1.938  0.3972 -0.0004 -0.1034
23729W        W39198   5.866   1.230   6.858 -0.1062 -0.1567 -0.3216
23730W        W39199   3.035  11.204   5.234 -0.2079  0.1413 -0.0729
23731W        W39200   4.898   1.634   0.930  0.1673  0.3191  0.0790
23732W        W39201  12.290   0.809   5.607  0.1857 -0.0300 -0.0371
23733W        W39202  14.488   5.033   3.836  0.0239  0.0303  0.2829
23734W        W39203   2.777   3.610  14.766 -0.2256 -0.2304 -0.1696
23735W        W39204  11.311  14.542  14.642  0.0519 -0.0907  0.1506
23736W        W39205  16.268  12.277  15.461 -0.0337  0.2603 -0.3138
23737W        W39206   5.834  11.725  15.151  0.2007 -0.2874 -0.1355
23738W        W39207  11.474  13.279  15.238  0.2811 -0.1597  0.3381
23739W        W39208   8.773  14.477  13.444 -0.3521 -0.0231 -0.1186
23740W        W39209   2.202  15.664   0.441  0.0951 -0.0586 -0.2381
23741W        W39210  17.698  13.398  12.621 -0.3234 -0.1700 -0.1509
23742W        W39211   8.043   0.931   3.836 -0.1890 -0.1742 -0.1569
23743W        W39212  11.477   4.673   2.739  0.1384  0.2191 -0.2961
23744W        W39213  16.101   6.770  14.427 -0.0827  0.0636 -0.2393
23745W        W39214  11.702   7.154   5.719  0.2994 -0.3983  0.1514
23746W        W39215   3.843  14.956  15.271 -0.1443  0.1117 -0.2233
23747W        W39216   0.260   8.557  13.685  0.0921 -0.2738  0.2683
23748W        W39217   3.776   2.350   9.932 -0.0001 -0.0948  0.0756
23749W        W39218   0.884   1.850   4.480  0.1708  0.1948 -0.3675
23750W        W39219  11.343  11.904  11.444 -0.2355  0.0680  0.1303
23751W        W39220  15.066   4.128   3.299  0.0680 -0.1941 -0.1449
23752W        W39221  14.556   9.820   5.144  0.0658  0.0520  0.1566
23753W        W39222   5.176  12.136  12.247  0.0136  0.2298  0.2642
23754W        W39223  15.655  14.839   4.467 -0.0925 -0.1671  0.2329
23755W        W39224   0.284   6.323  12.833 -0.0775 -0.3303 -0.4494
23756W        W39225  13.193  18.746   4.130 -0.2852  0.4323  0.1648
23757W        W39226   0.646  16.430   3.903 -0.0838 -0.3574  0.3246
23758W        W39227   3.908   7.246  10.482 -0.2575 -0.1453 -0.1892
23759W        W39228   5.148  15.730   3.040 -0.1762  0.1690  0.5467
23760W        W39229   2.411   2.053   3.609  0.1202  0.0722  0.1369
23761W        W39230  12.896   3.118   9.588 -0.1786  0.1947 -0.3966
23762W        W39231  15.853  15.945  13.674  0.0209  0.0038 -0.0027
23763W        W39232  18.386   5.958   5.499  0.0028 -0.0714  0.0498
23764W        W39233  14.102   2.606  10.522 -0.0459 -0.2964  0.0662
23765W        W39234  18.091  11.427  12.996  0.0350 -0.1896  0.2316
23766W        W39235   2.385  14.967  15.194 -0.1790  0.0289 -0.3235
23767W        W39236  13.851  16.797   4.350 -0.1929 -0.4711 -0.2092
23768W        W39237  14.319  15.594  13.234 -0.2917  0.3534  0.1332
23769W        W39238   9.307   3.733  10.239 -0.0227 -0.0515 -0.1601
23770W        W39239  14.626   2.918  11.825  0.0624  0.1446  0.2567
23771W        W39240  10.302   6.479   3.364  0.0789  0.0679 -0.2090
23772W        W39241   6.849  16.117  10.792  0.2365  0.0556 -0.2035
23773W        W39242  18.139  13.351  12.294 -0.1126  0.2528 -0.1376
23774W        W39243  14.638  11.141   3.329 -0.3642  0.5362  0.0868
23775W        W39244   8.201   1.782   3.134  0.0883 -0.0430 -0.2293
23776W        W39245  17.121   4.503  13.156 -0.0544 -0.0323  0.0197
23777W        W39246   4.914   8.191   4.779  0.1395  0.1678 -0.0529
23778W        W39247   3.060  16.257  14.783 -0.1457 -0.0713 -0.1275
23779W        W39248   6.506   4.275  15.085  0.1918  0.1010 -0.0375
23780W        W39249   0.508   8.302   3.236 -0.2645  0.1215 -0.2949
23781W        W39250   6.365  11.552   4.916 -0.1156 -0.0142 -0.0318
23782W        W39251   5.295   4.291  14.228  0.0672 -0.1362 -0.3146
23783W        W39252  17.625  13.565   3.471  0.0242  0.3398 -0.2549
23784W        W39253  14.449  12.682   5.099  0.2080 -0.1394  0.1395
23785W        W39254  16.733  13.704  11.373 -0.3626 -0.1481  0.2756
23786W        W39255   0.404   7.585  12.346 -0.1047 -0.1487  0.1641
23787W        W39256   8.925   2.534   2.504 -0.3677 -0.1229 -0.2267
23788W        W39257  17.626   0.610   4.294 -0.1931 -0.0899  0.3583
23789W        W39258  15.377  12.167  10.217 -0.1929  0.0228  0.1487
23790W        W39259   6.781   7.135  13.283  0.0571 -0.0168  0.1257
23791W        W39260  12.027   6.406  10.829 -0.0413  0.0385  0.0778
23792W        W39261   1.317   7.446  12.470 -0.1354  0.0123  0.3523
23793W        W39262   2.841  18.002   1.855 -0.1119  0.1520 -0.2411
23794W        W39263  12.341   7.351   4.834  0.3895  0.4172 -0.0006
23795W        W39264  15.638   5.746   2.830 -0.0725  0.1385  0.2553
23796W        W39265   4.381  16.096  13.194 -0.0424 -0.0126 -0.1667
23797W        W39266  16.583   7.319   3.731 -0.0383  0.1380  0.1265
23798W        W39267  11.796  14.644  13.446  0.0021  0.2340  0.0317
23799W        W39268   9.191   6.532  12.723 -0.1979 -0.4124 -0.0544
23800W        W39269   4.547   3.099  14.716  0.0362  0.0415 -0.1746
23801W        W39270  13.779   7.266  11.882 -0.0039 -0.1812 -0.1287
23802W        W39271  17.112  12.987   9.802  0.0227 -0.5313 -0.0655
23803W        W39272  14.653   9.347  14.187  0.2088  0.3359 -0.1248
23804W        W39273   9.131  18.583  12.853  0.0598 -0.4310  0.0939
23805W        W39274   4.615  11.110   1.336 -0.1317  0.0114  0.4001
23806W        W39275  18.709   7.734   3.795  0.3005 -0.1526 -0.1018
23807W        W39276   7.855   2.589  14.673  0.0945  0.3209 -0.0892
23808W        W39277   9.538   4.116   2.539 -0.0455  0.1445 -0.2330
23809W        W39278   2.907  10.940  14.863 -0.1774 -0.2534  0.1310
23810W        W39279   5.224   6.539  14.566 -0.0196  0.0536  0.3053
23811W        W39280   8.585  18.345   0.811  0.1842 -0.1031  0.1136
23812W        W39281   7.402  14.456  14.060 -0.1232  0.2040  0.0956
23813W        W39282   4.538  12.668  11.254  0.0186 -0.1363 -0.3647
23814W        W39283  13.923  14.603   5.944  0.3032 -0.0622 -0.0010
23815W        W39284  15.351   7.639  11.836 -0.2273  0.2125  0.0895
23816W        W39285   0.946   2.644  10.884 -0.3519 -0.2671 -0.3858
23817W        W39286   6.962  12.762   9.524 -0.0260  0.0102  0.0150
23818W        W39287   9.618   4.939   1.119  0.0357  0.3756 -0.1127
23819W        W39288   1.207   2.578  12.904 -0.0362 -0.1636  0.1905
23820W        W39289  18.858  18.528  11.453  0.0217  0.1224 -0.2708
23821W        W39290  10.875   0.481  13.782 -0.3404 -0.0193  0.1659
23822W        W39291  14.662  12.652  14.194  0.2082 -0.1235  0.0557
23823W        W39292  16.909   4.480   4.769  0.1770  0.0699 -0.2541
23824W        W39293   2.583   5.628   4.454 -0.0987  0.0585 -0.3548
23825W        W39294  18.234   9.039   0.070 -0.3539 -0.0897 -0.1423
23826W        W39295  13.880   5.408  14.192  0.2043  0.2107  0.1106
23827W        W39296  10.342  16.346  11.746  0.1459 -0.1026  0.1697
23828W        W39297  15.841   5.066   1.557  0.0556  0.0950  0.1369
23829W        W39298   4.013  13.533   4.529  0.3175 -0.2935  0.0857
23830W        W39299  12.587   2.883  14.549  0.1729  0.1251  0.1530
23831W        W39300  13.018  13.725   2.810  0.5237 -0.3247 -0.1743
23832W        W39301  17.712  10.423   5.014  0.1104 -0.1141  0.0646
23833W        W39302   6.983  16.189   3.658 -0.0360 -0.2768 -0.1042
23834W        W39303   1.456  12.023   1.378  0.3113  0.1412 -0.0364
23835W        W39304  17.277   1.358   5.338 -0.0061  0.0109 -0.0971
23836W        W39305  12.178   9.961   3.565 -0.0283  0.1045 -0.0233
23837W        W39306  18.527   2.002  15.386 -0.3057  0.2484 -0.1215
23838W        W39307   0.713  15.615  11.330  0.0468  0.0573  0.1358
23839W        W39308   1.516  11.890  15.190 -0.0390  0.2770  0.0666
23840W        W39309   3.552  12.048   4.051 -0.2315  0.1307  0.3542
23841W        W39310  15.934  11.455   0.403 -0.2027  0.0872 -0.3153
23842W        W39311  15.755   8.730   0.413 -0.0248 -0.1400 -0.2142
23843W        W39312   5.492  16.502   4.627  0.0164  0.0241  0.2295
23844W        W39313   1.234   9.579   3.196  0.1825 -0.1244  0.0165
23845W        W39314  11.336   9.322  11.815 -0.3194  0.3051 -0.2183
23846W        W39315  15.858  18.629  11.109 -0.0159 -0.1432 -0.0485
23847W        W39316   5.489   4.905   2.346 -0.4010  0.0468  0.3784
23848W        W39317  10.880  14.636   2.436  0.1432 -0.2010  0.3838
23849W        W39318   8.008   5.257   1.803 -0.1336 -0.0782 -0.4206
23850W        W39319   8.026   8.121  15.134 -0.0145 -0.1076 -0.5441
23851W        W39320  15.149   0.309  11.627  0.1972  0.0067 -0.0669
23852W        W39321   5.734   2.049   2.246 -0.1422 -0.0460  0.1577
23853W        W39322  14.349  17.989  14.203  0.0428 -0.1212 -0.2344
23854W        W39323  13.201   3.257   3.688  0.0017  0.0911  0.0810
23855W        W39324   6.480   9.535   0.984  0.1013  0.2037 -0.2041
23856W        W39325   4.508   7.539  15.380 -0.1752 -0.0983 -0.1582
23857W        W39326  14.514  12.256   0.918  0.1241 -0.0909  0.0740
23858W        W39327  16.380  14.260   2.801 -0.1728  0.0996  0.0501
23859W        W39328   5.207  13.570   1.530  0.0689  0.0290  0.3369
23860W        W39329   5.250   4.049  15.082 -0.1332 -0.4937 -0.1805
23861W        W39330  15.761  14.616   3.026  0.0999 -0.0309 -0.0001
23862W        W39331  11.586  11.702  13.249  0.0619 -0.1757  0.1570
23863W        W39332   3.560   4.449   0.176 -0.0009 -0.5066 -0.0344
23864W        W39333   3.487  11.169  14.014  0.2884  0.1209 -0.0123
23865W        W39334   3.312   3.789  11.070  0.0931  0.0869  0.0476
23866W        W39335  17.297  15.495  12.033  0.2313 -0.0081  0.2398
23867W        W39336  15.091  18.720  15.332 -0.0338  0.1221 -0.0219
23868W        W39337   9.907   1.409  15.232  0.1960 -0.2430  0.2364
23869W        W39338   5.057   8.073  11.611 -0.0368 -0.1812  0.0961
23870W        W39339  13.244   5.026   5.713 -0.1971 -0.1300 -0.3336
23871W        W39340  11.333   6.064   2.664  0.2374  0.1032 -0.0218
23872W        W39341   6.957  18.053   3.835  0.1377  0.1026  0.1435
23873W        W39342   8.704   2.045  15.174  0.3521  0.0772 -0.3313
23874W        W39343  10.346  11.841   5.439  0.0451 -0.1453  0.1176
23875W        W39344   2.568  14.666  11.022 -0.2047 -0.0854  0.1964
23876W        W39345  16.074   5.505   4.905 -0.2975  0.1523 -0.0168
23877W        W39346   1.929  15.598  14.523  0.0238  0.1871 -0.2150
23878W        W39347   7.277  15.831  10.911  0.0443  0.1101 -0.1630
23879W        W39348   9.404   3.794  14.326  0.1754  0.1076 -0.2581
23880W        W39349   5.886  16.624  14.163 -0.1446  0.4061 -0.1195
23881W        W39350   9.886   0.395   2.000 -0.2140 -0.1327  0.3039
23882W        W39351  16.649  16.829   3.386  0.2631  0.0040  0.2317
23883W        W39352  18.643  15.530  14.919 -0.0365 -0.1636  0.2653
23884W        W39353   6.142   3.939   5.499 -0.1435 -0.1527  0.1343
23885W        W39354   3.612   5.469  13.303  0.0242  0.3914  0.0570
23886W        W39355   2.966   7.564   0.734 -0.1562  0.1471  0.0559
23887W        W39356  12.237  18.279   4.476 -0.0999 -0.1950  0.2983
23888W        W39357   8.499   8.178  14.403  0.0038 -0.1578  0.2732
23889W        W39358   0.765   1.363  10.287  0.0994  0.0900 -0.3995
23890W        W39359   1.843   7.752  13.629  0.0703  0.0157 -0.0595
23891W        W39360  11.719   1.011  14.410 -0.1881  0.2215 -0.2583
23892W        W39361   2.492   0.836  11.675 -0.1576  0.3910 -0.3363
23893W        W39362  11.266  14.768   0.292 -0.5467  0.0919  0.0895
23894W        W39363   4.574  15.832  14.476  0.0326  0.2048  0.1176
23895W        W39364  16.198   2.139   4.157 -0.1375  0.2302  0.1762
23896W        W39365   4.253  17.943   1.822  0.1152 -0.1163  0.2737
23897W        W39366  11.038   6.005   3.615 -0.1742  0.1384  0.0967
23898W        W39367   9.495   8.440  10.164  0.0149  0.0990 -0.4465
23899W        W39368  18.028  18.613  14.224  0.3003 -0.2456 -0.1841
23900W        W39369  14.556   9.377  12.313 -0.0873  0.0174 -0.1499
23901W        W39370   6.475   0.912   0.356  0.1871  0.1386  0.2059
23902W        W39371   1.303   2.939   5.545  0.1123  0.1088 -0.2500
23903W        W39372  17.184  10.630   1.729 -0.1947  0.0407 -0.1710
23904W        W39373   4.990  15.984  10.894 -0.1071 -0.3241  0.0351
23905W        W39374  14.744  18.656   4.738  0.3503 -0.0713 -0.2449
23906W        W39375   0.182  15.361  12.313 -0.0728 -0.2017  0.1299
23907W        W39376   8.823   3.118  14.042  0.2357  0.2832 -0.0735
23908W        W39377  17.935  15.738   5.092  0.0634  0.2694  0.3688
23909W        W39378  16.633   8.493  11.033  0.1467 -0.1465 -0.0335
23910W        W39379  14.551   2.251  15.126  0.1769 -0.0915  0.3244
23911W        W39380  12.014   4.235  10.577  0.1859  0.1466 -0.1692
23912W        W39381  18.437  16.818   4.271 -0.1160 -0.1208  0.0677
23913W        W39382  18.665   0.986   3.321 -0.4156 -0.0783  0.1116
23914W        W39383  13.367  12.818  11.725  0.1123 -0.0089  0.0343
23915W        W39384   7.566  10.772   5.565 -0.2939  0.0925  0.1146
23916W        W39385  11.244  13.717   5.194 -0.3724  0.0248  0.0979
23917W        W39386  18.706  12.183  15.053 -0.3654  0.0748  0.0285
23918W        W39387   6.642  13.251   1.403  0.0032 -0.0421  0.1615
23919W        W39388  13.852   5.905   0.284  0.3169 -0.0790 -0.0639
23920W        W39389   4.528  18.764   2.321  0.3889 -0.1829  0.0910
23921W        W39390  10.533  16.016  14.305  0.1604  0.0136 -0.0518
23922W        W39391  10.018  18.094  10.721  0.0056  0.1342  0.0496
23923W        W39392  10.558  11.798   4.027  0.1482 -0.2143  0.0187
23924W        W39393   6.871   4.265  11.908 -0.1556  0.4828 -0.0189
23925W        W39394   7.052  10.006   3.175  0.0728  0.2084 -0.1809
23926W        W39395   0.844  13.657   5.437 -0.2471  0.0971 -0.1035
23927W        W39396  10.616   8.243   4.259 -0.2438 -0.0932  0.1937
23928W        W39397  13.823  14.366  12.021  0.1488  0.1605 -0.0029
23929W        W39398   7.728  10.982   2.721 -0.0766 -0.2312  0.1876
23930W        W39399   4.319  13.031  11.522  0.0568 -0.0732 -0.0632
23931W        W39400  11.712   6.966  13.191 -0.2214 -0.0026 -0.2276
23932W        W39401   3.238  17.258   5.752  0.4723 -0.2666  0.1846
23933W        W39402  18.353   4.117   3.197 -0.2036 -0.1896  0.2429
23934W        W39403  14.265  12.609  10.686 -0.0214  0.0564  0.0377
23935W        W39404  17.478   7.257   1.893  0.1522  0.0935  0.1618
23936W        W39405  14.820  17.162   2.909 -0.4729 -0.1961  0.2402
23937W        W39406  16.138   8.272   4.115 -0.2543  0.0221 -0.0287
23938W        W39407  16.148  16.424  10.801  0.1814 -0.0998 -0.1074
23939W        W39408  11.153   7.508   3.194 -0.1633  0.3296  0.0643
23940W        W39409   4.725   4.635   1.819  0.2570  0.0786 -0.0276
23941W        W39410   7.143   5.996   3.202  0.2181  0.0425  0.1851
23942W        W39411  10.351   0.100   6.144 -0.0554 -0.2855  0.1872
23943W        W39412  13.178  11.287  11.685  0.2185  0.1853 -0.0719
23944W        W39413  16.649  18.319   1.959 -0.0882 -0.5434 -0.0007
23945W        W39414  15.356   9.264  14.153  0.1362  0.0096  0.0966
23946W        W39415  16.374  15.597   1.690 -0.0704  0.0815  0.2528
23947W        W39416  16.687  17.858   2.274  0.1971 -0.0433 -0.1371
23948W        W39417  14.574   7.173  12.039 -0.0216 -0.3484  0.2233
23949W        W39418  10.025   2.303  14.710 -0.4862  0.4488 -0.3036
23950W        W39419   0.715   5.473   1.424 -0.0584 -0.2583  0.3080
23951W        W39420   0.839   4.860  11.494 -0.0902  0.0282  0.1049
23952W        W39421  11.265   2.341   0.488  0.2046  0.1683  0.3904
23953W        W39422   9.877  16.372  13.434  0.1808 -0.1562  0.0351
23954W        W39423   9.282  12.055   0.616  0.0611 -0.1215  0.1450
23955W        W39424   4.906  15.166  10.136  0.0859 -0.1473  0.2576
23956W        W39425  13.129   8.043   0.460 -0.0229  0.1166  0.1771
23957W        W39426  18.471  11.294  12.018 -0.0722 -0.0590 -0.0569
23958W        W39427   8.601   1.562   2.916  0.3023 -0.2014 -0.1948
23959W        W39428  16.576   8.175  15.204 -0.1600 -0.0511 -0.2230
23960W        W39429   1.415   2.986   3.817 -0.2507  0.0934 -0.2796
23961W        W39430   6.762  13.376  13.732 -0.2531 -0.1422  0.0689
23962W        W39431  16.961   8.261  11.528 -0.2368  0.3065  0.1423
23963W        W39432   7.784  10.086   2.501  0.0385 -0.1367 -0.0753
23964W        W39433   7.858   6.114   4.757 -0.3527 -0.4071 -0.0056
23965W        W39434   2.998   3.788   3.645  0.1954 -0.2961 -0.2875
23966W        W39435   7.271   3.792  14.454 -0.1324 -0.0567  0.2332
23967W        W39436   3.652   4.130  10.962 -0.0914 -0.1197 -0.0659
23968W        W39437  10.561   3.099   4.934  0.0814  0.0384 -0.1930
23969W        W39438  10.213  16.568   2.213  0.3426  0.0811  0.0002
23970W        W39439  18.095  10.455   0.116  0.0068  0.3936  0.1806
23971W        W39440  16.785  11.614  13.131  0.1036  0.4133  0.1438
23972W        W39441   6.056   6.635   3.838 -0.1942  0.1840 -0.3344
23973W        W39442  18.791  14.552   5.297 -0.0334  0.0728 -0.0582
23974W        W39443  12.992   3.521   2.836 -0.0452 -0.0392 -0.5460
23975W        W39444   8.325  12.769   3.562 -0.0153  0.0539 -0.1960
23976W        W39445  13.858  10.983  12.529  0.3919 -0.0561 -0.3306
23977W        W39446   7.380  18.181   1.506  0.1280 -0.0243 -0.3655
23978W        W39447  10.633   6.485   1.973  0.3531 -0.0042 -0.1474
23979W        W39448  16.080  10.888  13.522  0.1286  0.4113 -0.1046
23980W        W39449  15.016  13.018   4.262 -0.0590  0.1333 -0.3738
23981W        W39450  13.753   4.263   1.143  0.0690  0.4195  0.0170
23982W        W39451   7.534   2.800  15.492 -0.2289  0.0554  0.0275
23983W        W39452   1.612  13.823   0.192 -0.3174 -0.1907 -0.0339
23984W        W39453   0.870   3.573   0.733  0.3071  0.3613  0.4345
23985W        W39454   9.161  17.567   3.625  0.2082  0.0129  0.0448
23986W        W39455  11.784  11.547   2.054 -0.2475 -0.2000  0.0720
23987W        W39456  12.464   3.743   8.966 -0.3996  0.0540  0.0626
23988W        W39457   9.723   3.209  15.035  0.0873  0.0873  0.2538
23989W        W39458  15.548  17.543   3.457  0.1819  0.4115 -0.0004
23990W        W39459   1.136   8.608   2.246 -0.0529 -0.3879 -0.0458
23991W        W39460   8.663  12.195   1.764  0.1866 -0.2074  0.0942
23992W        W39461   7.047   9.128   2.599  0.0945  0.1545 -0.0051
23993W        W39462   7.612  12.577   2.598 -0.2781 -0.0076 -0.2379
23994W        W39463  18.821   4.752  11.021 -0.2912  0.3292 -0.0249
23995W        W39464   6.009  18.530   0.384  0.3868 -0.2510  0.1347
23996W        W39465  12.462  16.218  11.640  0.1549 -0.0833  0.1403
23997W        W39466  12.825  17.482   4.845 -0.0822 -0.2248 -0.0634
23998W        W39467  16.084   6.463   2.704 -0.1367  0.1425 -0.2178
23999W        W39468  13.494   0.577  11.554  0.2678  0.0796 -0.2746
24000W        W39469  16.517  17.370  15.437  0.1089  0.1555 -0.1192
24001W        W39470   5.705   2.067   4.027  0.3456  0.4226 -0.0319
24002W        W39471  18.326  15.411   0.006 -0.1114  0.1589  0.0947
24003W        W39472  15.171  14.076   2.507  0.2177  0.2008 -0.4337
24004W        W39473  18.900   2.263  14.841 -0.0196 -0.2772  0.2497
24005W        W39474  16.967  12.728  13.660  0.3967 -0.1746 -0.1444
24006W        W39475   2.028  11.009   2.451  0.1787 -0.3102 -0.1526
24007W        W39476   0.120  16.826  15.371  0.0699 -0.0683 -0.1196
24008W        W39477   9.130   6.123  13.971  0.0633 -0.0858 -0.0303
24009W        W39478   8.279  14.420   2.204 -0.2039  0.1929  0.1172
24010W        W39479  16.820   6.036  11.196  0.2018  0.4828  0.1511
24011W        W39480  10.665  12.407  13.237  0.0246 -0.3339 -0.5171
24012W        W39481  14.051  17.838  13.745  0.0413 -0.0304  0.0063
24013W        W39482   0.224   5.370   1.643 -0.0309 -0.2750  0.1069
24014W        W39483  15.384  11.054   2.330 -0.0741 -0.0883 -0.2973
24015W        W39484  12.105   0.544   9.672  0.0636 -0.1720 -0.0201
24016W        W39485  13.377   3.087  15.239 -0.0246  0.3977 -0.0082
24017W        W39486  13.919   0.217   2.965 -0.0110  0.0160 -0.1496
24018W        W39487  12.055  17.986   4.058  0.2414  0.1396 -0.0495
24019W        W39488   4.905  17.181  15.364 -0.4071 -0.1479 -0.4555
24020W        W39489  11.175  16.164  11.466 -0.0725  0.1211  0.1361
24021W        W39490   2.797   2.944  13.345 -0.1597  0.2608  0.1643
24022W        W39491  13.543   8.313   0.452 -0.2315 -0.0599 -0.4788
24023W        W39492  16.758   3.434   1.007  0.1129 -0.1711  0.1458
24024W        W39493  17.114   9.442   2.901 -0.0199 -0.2355  0.1061
24025W        W39494   2.744   4.734  14.131  0.1177 -0.1927 -0.1269
24026W        W39495  16.043  17.469  15.271 -0.0011  0.1874  0.1786
24027W        W39496   6.680   5.481   2.400 -0.0333  0.0142  0.3775
24028W        W39497   4.764  15.882  11.389  0.1527 -0.0022 -0.3206
24029W        W39498   6.204  11.080   1.890  0.2140 -0.2271 -0.2356
24030W        W39499  13.648   1.652  15.011 -0.0880 -0.3070 -0.1735
24031W        W39500   4.777   6.445   0.807 -0.0003  0.0832  0.1310
24032W        W39501  13.539  18.521   3.855 -0.1310  0.3812  0.1928
24033W        W39502  11.925  10.684   1.398 -0.0708  0.3960  0.0190
24034W        W39503   3.315   9.545  14.897  0.2141  0.3059 -0.4205
24035W        W39504   7.891   6.562  10.013 -0.0502 -0.2682  0.1667
24036W        W39505  11.580  16.743  12.677  0.1575  0.3026 -0.2666
24037W        W39506   4.306  11.484  14.981  0.1292 -0.2675  0.0385
24038W        W39507   2.203   2.020  14.449  0.0066 -0.2814 -0.0887
24039W        W39508  14.523   1.365   5.221 -0.1311  0.0830  0.0240
24040W        W39509   3.802   4.447   1.934  0.1345  0.0183  0.2640
24041W        W39510   2.918  17.193  14.731  0.3329  0.0722  0.2579
24042W        W39511   3.905   2.002  14.016 -0.4440  0.0697  0.1394
24043W        W39512   3.226  13.485   1.595  0.1250 -0.1086 -0.0839
24044W        W39513   9.061  14.983  10.557 -0.1644 -0.1347  0.1928
24045W        W39514   8.416  13.277  14.356  0.0940  0.1154  0.0685
24046W        W39515  18.724   5.780  11.126  0.0370 -0.2292  0.0810
24047W        W39516   5.811  11.860  11.499 -0.1533  0.0033  0.0752
24048W        W39517   9.868   3.945  10.918  0.2621 -0.0677 -0.0156
24049W        W39518  17.867  14.045  13.660 -0.0672 -0.0384 -0.4790
24050W        W39519  10.817  10.606   3.443 -0.2074 -0.1424  0.0298
24051W        W39520   7.979  15.187  12.831 -0.0126 -0.0841 -0.5852
24052W        W39521   8.544  15.720   1.910  0.0866 -0.2982 -0.0498
24053W        W39522   5.498  18.830  10.604 -0.2392  0.3019 -0.4391
24054W        W39523   7.185  17.163  13.314  0.1393 -0.0833 -0.1241
24055W        W39524  15.993   5.582  12.148  0.0459  0.2390  0.3297
24056W        W39525  15.373  16.576   5.100  0.1879 -0.0398  0.4730
24057W        W39526   6.277  18.769   3.778 -0.1198 -0.1798  0.0794
24058W        W39527   0.836  17.683   5.100  0.1920 -0.2793  0.1767
24059W        W39528  18.043   2.623  10.977  0.3462  0.2024 -0.5108
24060W        W39529   7.578  15.420   6.354 -0.1298 -0.1654 -0.0025
24061W        W39530   0.023  11.382   5.078  0.0149  0.1087  0.3190
24062W        W39531   2.862   6.579  15.318  0.4579  0.3872  0.1525
24063W        W39532  15.807  13.057  11.949 -0.0260 -0.0304  0.0363
24064W        W39533  18.232  10.139  13.829  0.3476 -0.2789 -0.1676
24065W        W39534   9.170   2.490   2.039 -0.2599  0.0962  0.0986
24066W        W39535  16.266   6.646   4.252  0.1581  0.3189 -0.0974
24067W        W39536   6.586   9.381   0.054 -0.0827 -0.1914 -0.1641
24068W        W39537  18.370   8.286   5.060  0.1887  0.3229 -0.0362
24069W        W39538   1.262   5.352  13.050  0.1974  0.0748  0.3847
24070W        W39539   5.045   1.315   5.638 -0.1957 -0.1836 -0.0832
24071W        W39540   6.485   7.466   0.659 -0.0620 -0.0036 -0.2137
24072W        W39541   4.706  16.376   4.137 -0.1957  0.0223  0.0590
24073W        W39542  15.097   3.546  13.857  0.0469  0.0560  0.0408
24074W        W39543  15.718  17.882   3.845  0.0082 -0.0327  0.3636
24075W        W39544   9.411   3.029  14.672  0.3455 -0.1271  0.0859
24076W        W39545  13.003  11.309  12.142  0.3439  0.1418  0.3007
24077W        W39546   5.215  12.289   3.482  0.1865  0.0752 -0.3077
24078W        W39547   0.905  17.915   2.053 -0.3331 -0.0419 -0.1280
24079W        W39548  13.898   5.342  13.511 -0.0111  0.0813  0.2523
24080W        W39549   3.489   2.080   2.230 -0.1288 -0.0545 -0.0635
24081W        W39550   6.866  18.593  13.536  0.1500  0.1242  0.0380
24082W        W39551   0.336   4.293  12.185  0.2039 -0.0098 -0.2787
24083W        W39552   5.538  12.765  12.885  0.0941  0.1664 -0.0589
24084W        W39553   8.638   4.783   2.163  0.2454 -0.1403  0.3412
24085W        W39554  14.819   2.736   4.871  0.0638 -0.4037 -0.1880
24086W        W39555   6.099   9.133  12.405 -0.1543  0.3475  0.2315
24087W        W39556  11.601   9.113  14.087  0.1375  0.0295 -0.0034
24088W        W39557   3.076   9.615   5.363 -0.0793  0.0875  0.0107
24089W        W39558   1.411   8.127   6.314 -0.1957  0.0948 -0.3836
24090W        W39559   9.590   9.289   4.896 -0.0322  0.1302 -0.0821
24091W        W39560  11.069   4.736  10.495 -0.2186 -0.2196  0.1565
24092W        W39561   7.107  16.114  12.760  0.1483 -0.0620  0.0550
24093W        W39562  11.749  17.134   5.212  0.0361  0.0271  0.1050
24094W        W39563  18.372  14.098   2.280 -0.0625 -0.0788 -0.0011
24095W        W39564   7.910  13.776  10.899  0.1179 -0.2912  0.0196
24096W        W39565   1.622   3.663  10.493 -0.0370 -0.1473 -0.2534
24097W        W39566  12.467  16.472  14.439  0.0855  0.0160 -0.0450
24098W        W39567   7.498   2.443   2.701  0.1252 -0.0511  0.0011
24099W        W39568  17.267  15.289  13.148 -0.0225  0.3364  0.1473
24100W        W39569  13.206   2.425   4.364  0.2292 -0.2226 -0.0386
24101W        W39570  10.739  10.051  13.595 -0.2726  0.0996 -0.0271
24102W        W39571  13.061  16.384   0.259  0.0219 -0.0980 -0.0007
24103W        W39572  11.725   1.351  12.279  0.0205  0.0976 -0.2570
24104W        W39573  13.399   9.257  12.825 -0.4314 -0.0228  0.1608
24105W        W39574  14.951  14.255   1.189  0.1962 -0.1035 -0.2063
24106W        W39575  18.673  11.503  12.439  0.1710  0.0678 -0.0998
24107W        W39576   3.591  13.392   4.804  0.1247 -0.0617  0.0363
24108W        W39577  16.633  12.276  10.974  0.1210  0.1580  0.3063
24109W        W39578   1.909  11.547   3.538 -0.3379  0.0508  0.1774
24110W        W39579   0.140   0.428   1.132  0.0278 -0.0425  0.2845
24111W        W39580   4.871   7.299  11.921 -0.0368  0.2388 -0.1299
24112W        W39581  16.116  17.024  15.063  0.1868 -0.1576  0.4232
24113W        W39582  10.095   7.024   4.178  0.1307  0.0932 -0.0625
24114W        W39583   7.811  16.876   2.368  0.3007 -0.3335 -0.3293
24115W        W39584   4.439  10.679   5.346 -0.1576  0.0818 -0.1405
24116W        W39585  10.853  13.051   0.533  0.0090  0.2603  0.0035
24117W        W39586  10.416  15.589  14.486  0.1152  0.0359 -0.3547
24118W        W39587   3.966   1.224   2.033  0.2201 -0.1350 -0.1221
24119W        W39588  14.163  17.444   2.549 -0.1703  0.0347  0.3131
24120W        W39589   9.962  17.560  14.682 -0.0960 -0.3062 -0.1541
24121W        W39590   6.080   4.506   1.466  0.0851 -0.1455  0.0195
24122W        W39591  14.881   8.710   4.024 -0.0169  0.2064 -0.1194
24123W        W39592   6.816   9.473  14.301  0.2520 -0.4596 -0.1171
24124W        W39593  17.625  18.819  14.434  0.1090  0.2990 -0.0796
24125W        W39594   4.426   7.677   1.299 -0.1644  0.0363  0.0788
24126W        W39595  15.073  13.751   5.568  0.0441 -0.3376  0.3481
24127W        W39596  16.635   6.136   4.346  0.2893 -0.0889 -0.3539
24128W        W39597  13.115  15.199   1.145 -0.0297 -0.0429  0.0764
24129W        W39598   3.880   7.297   4.053 -0.1800 -0.2525  0.4102
24130W        W39599  13.256   0.378  12.886  0.0170 -0.3022  0.1274
24131W        W39600  15.208   7.082  10.128  0.0523 -0.1324 -0.0059
24132W        W39601   4.409  10.369   2.891  0.1869  0.3319  0.3448
24133W        W39602   1.416  18.250   1.319 -0.0219 -0.0122 -0.1002
24134W        W39603  17.612   4.410  13.263  0.2333 -0.0288 -0.1107
24135W        W39604  16.005   0.484   0.441 -0.0719 -0.2569  0.2818
24136W        W39605   6.529  17.831  15.507 -0.0599  0.0304 -0.0525
24137W        W39606  17.291   9.040  10.730  0.0089 -0.0208  0.1079
24138W        W39607  14.709  13.021  14.526 -0.0217  0.2261 -0.2079
24139W        W39608   7.309  15.187   4.675 -0.1349 -0.0314  0.0870
24140W        W39609  14.949  16.911   5.159  0.0478  0.0366 -0.1366
24141W        W39610  10.306  18.183  11.156  0.0348  0.1232  0.1581
24142W        W39611  10.164  13.786  10.890 -0.3546 -0.1371  0.1468
24143W        W39612   9.146  15.114   3.608  0.0457 -0.1208 -0.0302
24144W        W39613   0.881   2.626  13.747 -0.0168  0.2642  0.0735
24145W        W39614   3.938   4.251   3.269 -0.0912  0.3566  0.0536
24146W        W39615  13.567  12.224  12.738 -0.1089 -0.1308  0.2227
24147W        W39616  10.646   2.688   1.033 -0.3327  0.1536 -0.0440
24148W        W39617  15.914  13.282  14.708 -0.1360 -0.2930  0.1228
24149W        W39618   7.399   5.324   2.561 -0.1046 -0.2983 -0.0642
24150W        W39619   0.958   4.974  12.954 -0.2630  0.0928  0.1078
24151W        W39620  16.965  17.304  12.722  0.1585  0.0963 -0.2708
24152W        W39621   0.226   9.711  12.149 -0.1628 -0.4614 -0.3485
24153W        W39622  17.627  17.590   2.521  0.2271 -0.0595 -0.0876
24154W        W39623  11.199  11.002  12.615 -0.0099 -0.0978  0.0011
24155W        W39624  17.451   3.197   2.275  0.1752  0.1529 -0.0550
24156W        W39625   4.749   4.776   1.263  0.0141 -0.2810  0.1344
24157W        W39626  16.346   1.390   1.237  0.3577  0.0117 -0.1209
24158W        W39627   2.354   6.645  14.346 -0.0250 -0.0845  0.2469
24159W        W39628   8.813  11.673   4.124  0.1048  0.2065  0.1496
24160W        W39629   2.579  14.332   1.734 -0.0615  0.3959 -0.7177
24161W        W39630   1.288   6.060   0.292  0.3218  0.0446 -0.2870
24162W        W39631   4.340  16.244  11.540  0.0457  0.0693  0.0958
24163W        W39632  15.971  17.151  13.214 -0.0808 -0.0147 -0.1938
24164W        W39633   9.427   8.866  10.685 -0.0078  0.0742  0.0776
24165W        W39634  15.956   8.286   2.662  0.0514  0.1031  0.0925
24166W        W39635  17.746  11.477   2.164  0.1810 -0.0258 -0.2743
24167W        W39636   0.608  15.235  13.100  0.0971 -0.1478 -0.0877
24168W        W39637   1.125  10.630   0.770  0.4866 -0.0396 -0.0682
24169W        W39638  14.624  17.491   3.289 -0.4519 -0.2694  0.2486
24170W        W39639   5.139   9.417   3.419  0.0802  0.1414  0.3266
24171W        W39640  16.633   7.440  12.361  0.3357  0.1655 -0.1777
24172W        W39641  13.439   6.575  13.597  0.1860  0.0899  0.0632
24173W        W39642  17.631  12.259   3.488  0.1757  0.2108 -0.0317
24174W        W39643  13.812  10.565   0.304  0.1710 -0.5739 -0.0325
24175W        W39644  18.634   2.473  13.736 -0.1355 -0.1412  0.0564
24176W        W39645   0.029  15.734   3.406  0.0521 -0.1256  0.0264
24177W        W39646  15.809  11.474  13.042  0.1359 -0.1033  0.1833
24178W        W39647   3.438   9.855   1.007 -0.0818  0.2432  0.0979
24179W        W39648   1.852  10.103  13.982  0.0854 -0.3820 -0.1290
24180W        W39649   8.993   9.948   4.775  0.1106  0.0679 -0.0485
24181W        W39650   8.500  10.506  14.074  0.0577  0.0514  0.2654
24182W        W39651   7.998  18.806  10.248  0.1592  0.3092  0.0507
24183W        W39652   6.669   6.137  14.807 -0.1281  0.1059 -0.1806
24184W        W39653  17.438  18.866   5.036 -0.1306 -0.1749  0.0882
24185W        W39654   9.660  17.496  12.449 -0.2741 -0.0796 -0.1322
24186W        W39655  13.197  12.775  11.214  0.1107  0.0029 -0.0381
24187W        W39656  11.460   7.729   0.086 -0.2661  0.3866  0.0524
24188W        W39657   8.030   2.120  11.320  0.1352  0.0085 -0.1737
24189W        W39658   7.964   4.546  11.634 -0.0787 -0.0625 -0.2137
24190W        W39659  10.557  16.623   1.085 -0.1499 -0.1243 -0.1670
24191W        W39660  13.077  18.269   1.849 -0.1598 -0.0071 -0.2599
24192W        W39661  11.752   2.099   3.405 -0.1237 -0.2817 -0.2241
24193W        W39662  17.998   3.483   2.133  0.1097  0.1552  0.0808
24194W        W39663   4.737   7.836   4.499 -0.2540  0.0695  0.1366
24195W        W39664   3.797  12.969  14.523  0.1027  0.0826  0.3193
24196W        W39665  18.794   8.629  13.206  0.1821 -0.2236 -0.1155
24197W        W39666   5.644   0.047  14.954 -0.1024  0.2319  0.0149
24198W        W39667  15.357  18.104   2.920 -0.0814 -0.0486 -0.1153
24199W        W39668   8.850  12.026   3.346 -0.2212  0.1207 -0.0382
24200W        W39669  18.454   7.648   4.386  0.2261 -0.0280  0.2413
24201W        W39670  14.940   0.083  13.348  0.0850  0.2550  0.2113
24202W        W39671   9.824   5.412   4.151  0.0734 -0.1065  0.2059
24203W        W39672   4.620  18.430  10.751 -0.2520  0.2255 -0.0454
24204W        W39673  10.271  17.283   5.172  0.2340 -0.3758 -0.1588
24205W        W39674   3.481   5.745  12.242 -0.1313  0.0540 -0.1833
24206W        W39675  16.908   7.961   3.054 -0.0489 -0.0116 -0.1703
24207W        W39676   7.743   3.259  12.916  0.0824 -0.2438  0.1237
24208W        W39677   4.438   0.567   4.844  0.0885 -0.0867  0.1226
24209W        W39678   4.388  12.589   3.147  0.2050 -0.3781 -0.0888
24210W        W39679  15.655   8.391   0.926 -0.4476  0.0756 -0.0381
24211W        W39680  14.483   9.560   2.103  0.0943  0.2008 -0.0617
24212W        W39681   7.411  15.153   5.334 -0.3583 -0.3949  0.1285
24213W        W39682  14.729  15.219  13.007 -0.1359 -0.2017 -0.1656
24214W        W39683  17.607  16.348  13.349  0.2550 -0.0491 -0.0071
24215W        W39684   1.122   9.097   4.285 -0.0235 -0.1076  0.3173
24216W        W39685   6.743   1.615   5.117  0.0278 -0.0304  0.1739
24217W        W39686   8.628   7.174  12.787 -0.0846  0.0948  0.2528
24218W        W39687   0.992  15.141   1.535 -0.0060  0.0068  0.0184
24219W        W39688   1.202   9.919  11.016 -0.2432  0.0175 -0.0667
24220W        W39689  10.718  15.693  15.062 -0.0044 -0.0091  0.0868
24221W        W39690  10.858   5.986  10.812  0.0781  0.1391  0.1169
24222W        W39691  17.098   9.147   0.446  0.3508 -0.0521  0.1539
24223W        W39692   8.689   1.647   3.484  0.0673  0.0904  0.0908
24224W        W39693   8.630  17.310  13.671  0.3088 -0.0614  0.0830
24225W        W39694  16.279   9.564  14.684  0.1823 -0.2118  0.4043
24226W        W39695   7.386   9.432  10.863 -0.1561 -0.0999 -0.2730
24227W        W39696  17.713   3.617   4.308  0.1274 -0.0342  0.1829
24228W        W39697  14.506   8.110  13.532 -0.1274  0.2287 -0.1553
24229W        W39698  12.517   7.306  13.200  0.3022  0.0589 -0.3404
24230W        W39699  14.318   5.314   2.217  0.0079 -0.0365 -0.0970
24231W        W39700   1.349   7.738  13.432 -0.0380 -0.2925 -0.1700
24232W        W39701  11.381   2.037   1.475  0.0671 -0.3788 -0.1576
24233W        W39702   4.210  10.056  14.890  0.0445 -0.3480  0.0224
24234W        W39703   7.702  15.953   3.986  0.0178  0.0100 -0.0252
24235W        W39704   2.095  17.060   3.215 -0.0141 -0.1409 -0.1021
24236W        W39705  10.685  18.407   1.153  0.0637  0.0161  0.1828
24237W        W39706  16.817   7.440  11.920  0.0414  0.0192  0.1257
24238W        W39707  15.815   2.043  14.289 -0.2270  0.2188 -0.1679
24239W        W39708   3.295  15.530   3.612 -0.1498  0.0970  0.1940
24240W        W39709  18.280  12.778   0.422  0.4313 -0.0086  0.1922
24241W        W39710   8.026   2.396  12.860 -0.1992  0.1443 -0.1485
24242W        W39711  14.270   4.929  14.745 -0.0834 -0.2660  0.0159
24243W        W39712   0.459   5.504  12.572 -0.5734 -0.3674 -0.4081
24244W        W39713  13.478  11.644  11.280 -0.0246  0.0132 -0.2191
24245W        W39714  18.095  18.937  13.603  0.1116  0.1874  0.0364
24246W        W39715   4.698  11.805   0.715  0.0394 -0.2275  0.0134
24247W        W39716   8.091  10.747  14.174 -0.1157  0.3006 -0.1425
24248W        W39717   2.242  16.585   3.403  0.1997  0.1720 -0.2949
24249W        W39718  15.176  14.189   4.065  0.0847  0.0549  0.0001
24250W        W39719   9.473  17.390  11.983 -0.0838  0.3240  0.1569
24251W        W39720   2.052  10.156   2.211 -0.1170  0.0689  0.3291
24252W        W39721   8.721  16.616  13.931  0.1624  0.1418 -0.0042
24253W        W39722  15.256   0.309   2.749 -0.1447  0.0537 -0.3017
24254W        W39723  16.803   5.616  12.288 -0.3015  0.1344  0.0543
24255W        W39724  16.401   9.943  13.085 -0.1908 -0.1473  0.0232
24256W        W39725   2.234   3.516  13.452  0.1887 -0.1950 -0.0149
24257W        W39726   7.680  14.787   1.306  0.2608  0.0814 -0.3855
24258W        W39727   5.677   2.088   0.274  0.0297 -0.0239 -0.0675
24259W        W39728  16.394   2.925  12.361 -0.0240  0.0805  0.0623
24260W        W39729  11.034   9.801  15.395 -0.2667 -0.0935 -0.3726
24261W        W39730   5.549   0.893  14.325 -0.0517 -0.2691  0.2802
24262W        W39731   6.883   1.334  11.256 -0.2199 -0.3004 -0.1361
24263W        W39732  11.237   7.432  14.138 -0.0603  0.1438  0.0585
24264W        W39733   9.781   5.769   2.076 -0.0230  0.1940  0.0745
24265W        W39734   0.412  16.307   2.691  0.0117 -0.2666  0.0363
24266W        W39735  16.602   2.156   3.843 -0.1207  0.2663  0.1003
24267W        W39736   7.739  10.847   4.603 -0.1292 -0.1534 -0.2270
24268W        W39737   7.627   5.572   0.237 -0.0983  0.0817 -0.0005
24269W        W39738   1.518   8.630   3.421 -0.0233 -0.0573 -0.2543
24270W        W39739   1.387  12.045  13.911 -0.3459 -0.0714 -0.0342
24271W        W39740  17.658   2.285   1.710 -0.0938 -0.3873  0.1252
24272W        W39741  16.000  13.582   2.290 -0.1646  0.0240 -0.3400
24273W        W39742   6.027  10.271  15.417 -0.0979  0.0692  0.1079
24274W        W39743  12.328   7.153   2.211  0.0002  0.1717  0.1613
24275W        W39744   9.453   3.283  11.871  0.1218  0.0131  0.0248
24276W        W39745  13.833   1.891  14.564  0.1154 -0.1799 -0.3453
24277W        W39746  18.207  12.552  14.493 -0.1004 -0.3188  0.3998
24278W        W39747   8.548  14.895   5.398 -0.4150  0.0265  0.3269
24279W        W39748   9.721   0.095   1.194  0.0725  0.2979 -0.2998
24280W        W39749   6.260  14.545   4.101  0.0903 -0.0121 -0.0648
24281W        W39750   6.646  16.673  14.759 -0.1270  0.0413 -0.0432
24282W        W39751  17.798   0.314   0.693  0.3670 -0.2043 -0.2756
24283W        W39752   8.854  11.674   0.056  0.1766 -0.0608 -0.0021
24284W        W39753   7.352  11.313   2.720 -0.0990  0.0690  0.3934
24285W        W39754  13.926  13.607  13.305 -0.0841 -0.2081 -0.0644
24286W        W39755  12.334   9.260   1.968 -0.0403 -0.2916  0.0364
24287W        W39756  11.971  15.420   3.353 -0.1800 -0.0207 -0.1618
24288W        W39757   1.317  15.930  10.654 -0.1428  0.1286 -0.1265
24289W        W39758   2.487   0.274   5.212  0.2451 -0.0610  0.0795
24290W        W39759   0.389  14.095  12.701  0.2521  0.1195  0.2026
24291W        W39760   5.771   5.199   3.284  0.2160  0.3582 -0.2547
24292W        W39761   0.268  15.763   1.746 -0.0271  0.1060  0.0179
24293W        W39762   6.984  18.517   1.401 -0.2930  0.0239  0.0450
24294W        W39763   9.676   8.278   0.920 -0.2670  0.1949 -0.1440
24295W        W39764   0.115   5.942  13.777 -0.2049 -0.1930  0.1759
24296W        W39765  11.762   8.496   0.497  0.2625 -0.3174  0.2449
24297W        W39766  16.505  17.069   0.332 -0.0925  0.1727 -0.2236
24298W        W39767  16.073   7.274  15.219  0.3237  0.0182 -0.0453
24299W        W39768  14.150   1.996  14.961 -0.2106 -0.0676  0.0838
24300W        W39769   8.611   1.613   2.383 -0.0993  0.3983 -0.0426
24301W        W39770   3.883   3.175  11.518  0.1482  0.0521  0.2759
24302W        W39771   7.837   2.147   4.054  0.0323  0.1111  0.0873
24303W        W39772   6.549   3.303   3.234 -0.0636  0.1739  0.1764
24304W        W39773   7.000   9.622   2.835 -0.3032  0.0177  0.0153
24305W        W39774   2.001   2.346  15.223 -0.0877  0.3042  0.3281
24306W        W39775  10.728  11.131  12.821  0.1923  0.1594 -0.0926
24307W        W39776   0.406   9.132   1.171 -0.0860  0.0907 -0.2298
24308W        W39777  13.030  12.612  15.103  0.0019  0.1573  0.0112
24309W        W39778  16.739   9.312   3.284 -0.4108  0.0353  0.1471
24310W        W39779  11.178  15.331  15.356  0.1941 -0.0227  0.1020
24311W        W39780   7.155  18.138   0.992 -0.0087 -0.3479  0.3146
24312W        W39781   9.905   3.512  12.845 -0.1906  0.1956  0.0977
24313W        W39782   0.217   1.708   4.197  0.0149 -0.1675  0.0755
24314W        W39783  10.182   6.331   0.141  0.0232 -0.0278 -0.1375
24315W        W39784  11.670   7.594   2.985  0.1955 -0.0378  0.2100
24316W        W39785   8.361  16.007  11.847 -0.0063 -0.0127  0.3576
24317W        W39786  15.957   9.895  13.260  0.2233 -0.0675  0.1110
24318W        W39787  17.946  15.843   2.268  0.1711  0.0243 -0.0878
24319W        W39788   4.308  17.839   4.614 -0.1719 -0.3806 -0.2733
24320W        W39789   2.366  17.973   3.094  0.0527  0.3321 -0.0395
24321W        W39790  11.980   2.412  11.356 -0.0737 -0.0897 -0.2513
24322W        W39791  14.845  14.053   2.060 -0.2910  0.2316 -0.0420
24323W        W39792   9.819  11.667   2.283  0.2663 -0.2079 -0.1301
24324W        W39793   2.569   6.999  13.411 -0.1021 -0.1555  0.1503
24325W        W39794   3.744   9.467  13.024  0.0507 -0.1308  0.0041
24326W        W39795  10.784   7.670   4.527 -0.0185 -0.2192 -0.0913
24327W        W39796  15.551  16.541   3.269 -0.3722  0.0257  0.0833
24328W        W39797  13.837  14.368   3.844  0.1646  0.0383 -0.1646
24329W        W39798   4.575  17.875   3.102  0.2431 -0.3791  0.2757
24330W        W39799  13.715   1.551   2.222 -0.0018 -0.1662  0.1567
24331W        W39800  13.750  16.981   0.776  0.2934 -0.0102  0.2358
24332W        W39801   2.807  18.813   3.747 -0.2511  0.0447  0.0540
24333W        W39802  16.057   1.898  11.397  0.0778 -0.4021  0.0152
24334W        W39803   5.869   5.791  12.656  0.1517  0.2921  0.0722
24335W        W39804  17.428   8.649   3.048  0.2907  0.1646  0.1063
24336W        W39805   6.892   2.378  12.261 -0.2634 -0.1961  0.2198
24337W        W39806   1.163   1.258  13.072 -0.1154 -0.2754  0.0867
24338W        W39807   9.813  17.899   4.683 -0.1347 -0.1276 -0.2287
24339W        W39808  12.806  17.191   1.553  0.1236 -0.2328  0.0434
24340W        W39809   1.776   9.547   1.606  0.1629 -0.1539  0.0033
24341W        W39810  15.471   7.046   1.087 -0.2263  0.1481  0.1117
24342W        W39811   7.749  14.229   2.397 -0.1665 -0.2312  0.2368
24343W        W39812   3.508   1.119  14.200 -0.0455 -0.2174  0.1098
24344W        W39813   4.729   3.582   9.696  0.3864  0.0596 -0.2303
24345W        W39814  15.883  14.192  13.579 -0.1492  0.0692  0.0122
24346W        W39815   1.160  12.518  12.969  0.0703  0.0576 -0.0125
24347W        W39816   9.213  15.262  11.035  0.5435 -0.1486  0.1075
24348W        W39817  14.512  12.998   4.427 -0.1398  0.3553  0.1852
24349W        W39818  17.777  16.845  12.881 -0.1606 -0.1100  0.3303
24350W        W39819   0.660  17.394   0.416 -0.1731 -0.0847  0.0906
24351W        W39820  10.167  12.651  13.917 -0.3378 -0.3945  0.1239
24352W        W39821   7.743  12.121   4.186 -0.0062  0.1515 -0.1892
24353W        W39822   9.622  13.039   2.400 -0.1047  0.3617  0.1022
24354W        W39823   8.931   7.518   0.075  0.1297  0.2310 -0.0365
24355W        W39824   6.173   0.320   5.558  0.0363  0.2450  0.2022
24356W        W39825  17.501   9.991  12.870 -0.2230 -0.0732 -0.0249
24357W        W39826   3.256   9.139  14.599 -0.2341  0.1402 -0.1629
24358W        W39827   2.316   2.960   3.748 -0.0523  0.2398 -0.1029
24359W        W39828  18.148   2.053   4.122 -0.1331 -0.0968  0.2425
24360W        W39829   8.404  12.321   4.649  0.0308 -0.4029 -0.3997
24361W        W39830  10.379  12.006  13.039  0.1352  0.0171 -0.2548
24362W        W39831  11.248  18.688   1.778 -0.2513 -0.0841 -0.2006
24363W        W39832  16.404  12.819  14.635  0.1252  0.0797 -0.1065
24364W        W39833   7.302  15.298  13.477 -0.2234 -0.1251 -0.2379
24365W        W39834   6.161   5.895  13.047 -0.4052 -0.0336 -0.1249
24366W        W39835   3.305   9.070   3.484 -0.2545  0.0474  0.1721
24367W        W39836   7.690  16.086   4.575  0.1477  0.1587 -0.1192
24368W        W39837  18.796   3.001   5.741  0.2794  0.0212  0.1262
24369W        W39838  10.640  11.818   4.502  0.0883  0.3205  0.0691
24370W        W39839  18.533  17.059   3.793 -0.2405 -0.1478  0.2386
24371W        W39840  11.211   3.981   0.072 -0.2700 -0.3703  0.0778
24372W        W39841  11.712  17.828  13.015 -0.0679  0.5286 -0.0859
24373W        W39842  13.405   5.704   5.733  0.1309  0.2420  0.1700
24374W        W39843   2.664  18.906  15.053 -0.0500  0.1721  0.3610
24375W        W39844   9.067   8.693  13.782  0.0111  0.0003 -0.2288
24376W        W39845   9.387  15.077   4.982  0.0514 -0.2012 -0.1784
24377W        W39846   8.254  17.026  12.266  0.0970 -0.0478 -0.1287
24378W        W39847  15.266  11.190   0.860  0.0933  0.2571  0.1494
24379W        W39848   3.063   8.172   2.997 -0.0907  0.0691  0.1507
24380W        W39849  14.038  13.936   4.076 -0.0404 -0.0548 -0.1345
24381W        W39850   5.588  11.429  14.862  0.2579  0.0411  0.0614
24382W        W39851   1.799   5.322  13.327 -0.2424 -0.0512 -0.2122
24383W        W39852  13.120  15.309   3.296  0.1880 -0.0885  0.2098
24384W        W39853  15.787  18.179   6.063  0.1188 -0.4568 -0.3746
24385W        W39854   0.580   1.135   2.863 -0.0938 -0.2395  0.2473
24386W        W39855   9.050  11.354  11.044 -0.0131  0.0908  0.2635
24387W        W39856   4.672   2.181   1.194  0.0911  0.0154  0.2219
24388W        W39857   2.568  16.193  14.782 -0.2092  0.1837  0.1123
24389W        W39858   8.666  11.796   5.464  0.1499  0.1297  0.1168
24390W        W39859   8.129  18.482   0.664 -0.1783 -0.0315 -0.1075
24391W        W39860   7.797   4.037  13.617 -0.1154 -0.1334  0.0199
24392W        W39861   9.910  10.878  14.561 -0.0035 -0.4880  0.0296
24393W        W39862   6.059   4.459   0.948 -0.1388 -0.2099  0.3322
24394W        W39863   6.376  15.175   1.451 -0.0015  0.1279 -0.1252
24395W        W39864  13.833  17.648  14.259 -0.3560 -0.0475  0.0816
24396W        W39865   3.398  14.084  12.437 -0.4272  0.1031 -0.1239
24397W        W39866   0.041  11.397  11.703  0.1305  0.5446  0.0241
24398W        W39867   0.186   9.176  13.740  0.2573 -0.0339  0.3352
24399W        W39868   8.064  13.949   1.758 -0.0512  0.3581 -0.0184
24400W        W39869   8.310  15.497  11.474 -0.1516  0.2748 -0.2042
24401W        W39870  18.725   0.231  13.739  0.0713 -0.0760 -0.0151
24402W        W39871  15.466   5.141  10.914  0.2123 -0.0796  0.1538
24403W        W39872  17.366   5.041   1.348  0.1487  0.1101  0.3585
24404W        W39873  13.751  16.615  10.822 -0.1243  0.2243  0.0696
24405W        W39874   3.384   5.522  12.813 -0.1838 -0.1345  0.1769
24406W        W39875   5.396   8.716   1.689 -0.0058 -0.1095  0.1753
24407W        W39876   3.050   3.480   1.793  0.0405 -0.1249  0.1472
24408W        W39877  13.061   1.120   2.322  0.2017 -0.0800  0.3049
24409W        W39878  15.144   1.736  13.014 -0.0786  0.2039  0.0572
24410W        W39879  11.002  18.542  10.753  0.0111  0.0354 -0.0902
24411W        W39880   6.676   6.398  15.208 -0.2022 -0.2490 -0.2240
24412W        W39881  17.544  12.442  15.270 -0.1000 -0.1337  0.1821
24413W        W39882  11.487   3.721  10.532 -0.2346 -0.0017  0.0661
24414W        W39883   0.245   0.678   0.720 -0.1779  0.0100 -0.3279
24415W        W39884   0.831  18.929   3.747 -0.2773  0.1897 -0.0976
24416W        W39885  15.588  14.398   2.626 -0.0903  0.3178  0.0775
24417W        W39886  13.002   0.374  13.760  0.1821  0.0096  0.2604
24418W        W39887   2.876  12.908   1.186 -0.0668  0.1274  0.0162
24419W        W39888  12.358   4.864   0.424  0.3663  0.3318  0.4233
24420W        W39889  10.606   5.491  12.329 -0.1450  0.0194 -0.0212
24421W        W39890  16.415  11.957  12.747  0.1432 -0.0539 -0.1937
24422W        W39891  14.510  15.663  14.347  0.2141 -0.0442 -0.0943
24423W        W39892  10.998  16.339  10.225  0.2033  0.2890  0.2495
24424W        W39893  12.247   4.879   3.341  0.1785  0.3108  0.0512
24425W        W39894  14.341   9.493   9.352  0.0057 -0.1589  0.0553
24426W        W39895   5.453  11.811  14.584 -0.5744 -0.0848 -0.0336
24427W        W39896   6.541   8.421  11.879  0.1872 -0.0512 -0.2517
24428W        W39897   6.536   7.389   0.014 -0.1814 -0.2781 -0.2801
24429W        W39898  18.595  18.833  12.848  0.0484  0.1772  0.1992
24430W        W39899  17.605  14.820  13.078 -0.0347 -0.0811  0.1676
24431W        W39900   4.000   5.280  11.038  0.2511 -0.1197 -0.1025
24432W        W39901   4.914  14.533   1.427  0.5262  0.0636  0.2847
24433W        W39902   0.156  14.684   4.184  0.0213 -0.2682 -0.0199
24434W        W39903  16.814   2.986  11.997  0.3786 -0.2622  0.1182
24435W        W39904   7.870  11.925   3.039  0.2868  0.2048  0.3631
24436W        W39905   6.954   0.337  15.418  0.1433 -0.0254 -0.0851
24437W        W39906  15.392   0.088  10.371  0.0549 -0.0848  0.0982
24438W        W39907  11.013  16.469  11.117 -0.0997  0.1447  0.0680
24439W        W39908   6.889  17.172   1.788 -0.0648  0.4812  0.3102
24440W        W39909   7.229   0.030  12.153  0.2045 -0.2795 -0.1609
24441W        W39910   4.767  15.067   4.837  0.2186  0.2616 -0.2441
24442W        W39911   5.205   2.074   3.013  0.0666 -0.0885 -0.2225
24443W        W39912  17.456   4.628   5.012 -0.1412 -0.1190 -0.1687
24444W        W39913  10.026   0.866   1.864  0.0963 -0.0213 -0.0157
24445W        W39914   5.046  12.524   1.846 -0.1150  0.0557 -0.1158
24446W        W39915   0.119   6.294  14.661 -0.1164  0.2049 -0.1467
24447W        W39916   5.107   9.841  14.623  0.1001  0.0076 -0.0783
24448W        W39917   4.377  11.139   4.236 -0.2066  0.3823  0.1082
24449W        W39918  18.649   1.485   0.092  0.2669  0.0699 -0.2357
24450W        W39919  18.555   9.558  13.006  0.0830 -0.3168 -0.1968
24451W        W39920   4.858  18.745   5.024  0.0138 -0.0445 -0.0783
24452W        W39921   7.630   2.606   2.064  0.0176 -0.2237 -0.1745
24453W        W39922   6.767   7.784  15.262 -0.3398 -0.2765 -0.0702
24454W        W39923   2.346   8.825  13.550  0.6905 -0.2249 -0.1439
24455W        W39924  16.122   8.268  15.022 -0.2457  0.1476 -0.0261
24456W        W39925   2.734  15.901   1.520  0.0453  0.2787 -0.0087
24457W        W39926   5.741  18.429  10.787 -0.0635  0.0389  0.0542
24458W        W39927   9.483   9.893   0.011  0.1658  0.0801  0.3159
24459W        W39928  15.084  10.728   0.971  0.2031  0.1126  0.0067
24460W        W39929   1.561  18.089   0.863 -0.1120  0.2752  0.0404
24461W        W39930   0.425  16.004   0.249 -0.0658 -0.3560  0.1590
24462W        W39931  13.665   3.718   0.138  0.1468 -0.1588 -0.2758
24463W        W39932   8.721   9.182   3.539  0.3153 -0.1459 -0.2211
24464W        W39933  16.823   2.931  13.962 -0.2426 -0.1069 -0.0398
24465W        W39934   1.000  14.742  14.190 -0.1905  0.1361 -0.1440
24466W        W39935   6.562   0.013  15.279 -0.1808 -0.6152  0.4533
24467W        W39936   0.787   5.169   4.881 -0.1560 -0.1800  0.0124
24468W        W39937  17.329  12.091   4.723  0.0103  0.1071  0.0771
24469W        W39938  11.924  10.230  12.729  0.0847 -0.2093 -0.3371
24470W        W39939  10.293  18.483  14.666  0.0815  0.1191 -0.1019
24471W        W39940  18.353   1.093  12.112 -0.2757  0.1924  0.0312
24472W        W39941  17.929  17.955  12.136 -0.3116  0.2608  0.1002
24473W        W39942  10.228  18.035   2.528  0.3438  0.5189  0.0878
24474W        W39943  11.216   4.591   3.329 -0.3976 -0.0799  0.1845
24475W        W39944   5.936   9.117   5.132  0.0008  0.1099 -0.0645
24476W        W39945   7.178  16.425   0.602 -0.1916  0.3603  0.0385
24477W        W39946  17.859   4.822   3.840 -0.0292 -0.2476  0.0096
24478W        W39947   7.212   4.091  13.697  0.1566  0.0847  0.0377
24479W        W39948  11.680   7.315  14.905  0.0489 -0.0203 -0.0584
24480W        W39949   5.208  10.551  12.953 -0.0212  0.1553  0.3445
24481W        W39950  11.283  11.382   3.024  0.0884 -0.2994  0.1489
24482W        W39951  12.216  18.545   0.531 -0.2026 -0.0500 -0.1927
24483W        W39952  13.009   0.879   2.942  0.0693  0.1242 -0.0450
24484W        W39953   8.694   9.572  14.581 -0.1298  0.1569 -0.4931
24485W        W39954  14.100   7.334   3.804  0.2540  0.0308 -0.0088
24486W        W39955  10.184   4.913  15.085 -0.1218 -0.1974 -0.0086
24487W        W39956   2.677  11.488   0.059  0.0129  0.2826  0.1672
24488W        W39957   2.795   6.682   4.389  0.0249  0.1091  0.0090
24489W        W39958   8.356  18.267  12.359 -0.3466  0.2855  0.2975
24490W        W39959  11.410   7.418  10.928  0.4639 -0.0115  0.0946
24491W        W39960   5.656   4.789   1.404  0.1582 -0.0225  0.2420
24492W        W39961   4.676  12.358  13.356  0.0745 -0.0918  0.0175
24493W        W39962   4.732   6.082   1.180 -0.0853  0.3533 -0.1381
24494W        W39963   8.310  18.192   3.933  0.1193 -0.2580  0.0082
24495W        W39964   4.892  15.435   5.211  0.1310  0.0993 -0.4826
24496W        W39965  16.669  15.449   2.262  0.2899 -0.2558 -0.1091
24497W        W39966  12.953   8.807  14.440 -0.1272  0.3060  0.1339
24498W        W39967  10.375   4.506  12.132 -0.2991  0.0088  0.3132
24499W        W39968   0.760  12.729  11.673 -0.0664  0.2399  0.1234
24500W        W39969  17.020   8.313   4.711 -0.2546  0.3968  0.3107
24501W        W39970   0.804   0.876  13.918 -0.0392 -0.3703 -0.0384
24502W        W39971   9.159   1.479   3.309  0.2128 -0.1672 -0.2283
24503W        W39972  11.700   9.496   5.589  0.3371  0.0186  0.0588
24504W        W39973   7.550   7.176   5.502  0.3879 -0.5545 -0.0979
24505W        W39974  14.678  16.865  15.155  0.3055 -0.2570  0.2264
24506W        W39975  16.488  10.517  10.344 -0.0363 -0.1538 -0.1253
24507W        W39976   6.665  14.445  12.766  0.0623  0.3141  0.2260
24508W        W39977   9.435   1.671   1.443  0.1576 -0.0250 -0.2460
24509W        W39978  11.502  12.875  14.779 -0.3897 -0.0858 -0.0897
24510W        W39979  11.679  11.390  11.885  0.2992 -0.2629  0.0633
24511W        W39980  13.882  13.249  14.037 -0.0887 -0.1303  0.0680
24512W        W39981  12.987  14.373   3.296 -0.2232 -0.3143  0.0579
24513W        W39982  11.113   6.592   2.874  0.0016  0.1931 -0.1607
24514W        W39983  10.163   7.956   4.415  0.2424  0.1559  0.0081
24515W        W39984  12.092   4.534   0.155  0.3137 -0.1034 -0.4061
24516W        W39985   6.028  18.488  12.467 -0.0965  0.4984 -0.2570
24517W        W39986  15.918  14.940  11.866 -0.3270  0.3075  0.0112
24518W        W39987  10.885   9.015   1.699  0.1081 -0.0067  0.3858
24519W        W39988  18.213  12.622  10.451  0.0704  0.2535 -0.2414
24520W        W39989   3.671   2.482  11.891  0.6265 -0.0712  0.1887
24521W        W39990  16.069  18.231   4.265  0.2866 -0.4570  0.1905
24522W        W39991   9.788   1.854  12.070  0.0924  0.2992 -0.0335
24523W        W39992  17.168  13.745   1.473 -0.0073  0.0261  0.0446
24524W        W39993  13.147  13.682   5.462 -0.1036 -0.1748 -0.0775
24525W        W39994   2.507  10.929   2.614 -0.1133 -0.1548  0.0417
24526W        W39995  14.347  18.225   1.233 -0.2431 -0.2795 -0.5662
24527W        W39996   6.732  11.728   0.136  0.1857  0.1086 -0.0507
24528W        W39997  17.475   7.322   0.188  0.3003  0.0907  0.0621
24529W        W39998  11.355   8.355   3.101  0.2209  0.0389 -0.1251
24530W        W39999   4.486   0.572   1.027  0.0104  0.1422  0.1827
24531W        W40000  11.838  11.311   0.591 -0.1954  0.2488  0.0906
24532W        W40001  12.225  14.311   1.999  0.0379  0.1235 -0.2254
24533W        W40002   8.243  11.219  12.292  0.1134 -0.1067  0.2227
24534W        W40003   9.538   3.196   4.519  0.1971  0.0273  0.0497
24535W        W40004  13.827  16.713  13.093 -0.0005 -0.1864  0.2035
24536W        W40005   6.050  12.941   1.884  0.0970  0.0338  0.0907
24537W        W40006   6.935   1.432  14.878  0.2002  0.2267 -0.0766
24538W        W40007   4.454  17.789   2.264  0.0297  0.1343  0.1066
24539W        W40008  17.311  15.044  11.116  0.0076  0.3274  0.1208
24540W        W40009   4.111   1.204  14.587  0.0102 -0.1998 -0.0818
24541W        W40010  12.228  12.802   3.047  0.3454 -0.0328  0.0355
24542W        W40011  17.434   5.699  12.831  0.0257 -0.1979 -0.0780
24543W        W40012   2.344  17.655  13.546  0.2392  0.0208 -0.3531
24544W        W40013  18.139   2.836  15.363 -0.2622 -0.0464  0.0181
24545W        W40014  10.555   3.720  14.880  0.0243  0.1231 -0.2921
24546W        W40015  16.060   9.823   2.377  0.0353  0.1915 -0.4499
24547W        W40016  14.586  17.401   1.361 -0.0779 -0.2630 -0.0746
24548W        W40017   4.926   4.770  14.004  0.2975 -0.1481  0.1293
24549W        W40018  10.311  16.640   2.835 -0.0616  0.1003  0.0401
24550W        W40019  11.050   5.652  10.398  0.1138 -0.2060 -0.0418
24551W        W40020  18.625   7.068   1.144  0.1278 -0.1692 -0.2426
24552W        W40021   3.650   7.668  10.274  0.0687 -0.3592 -0.1337
24553W        W40022   2.557  15.946  12.961  0.2055  0.0273 -0.1495
24554W        W40023  16.168   6.314   9.322  0.2838  0.0216  0.1218
24555W        W40024   9.026   5.888  11.740 -0.1111  0.4130 -0.1001
24556W        W40025  14.697   1.143  11.458 -0.0274  0.0275  0.2500
24557W        W40026   7.230   8.937   3.555  0.1463  0.0771  0.0204
24558W        W40027   6.196   9.261   4.639 -0.0028 -0.2185 -0.1982
24559W        W40028   5.358   1.710  10.897 -0.0925  0.0837 -0.2467
24560W        W40029  15.882   5.470   2.344  0.0064 -0.2925 -0.3727
24561W        W40030  10.721  10.204  10.762  0.3839 -0.0850 -0.0983
24562W        W40031   2.970   5.878  11.958  0.4178  0.0022 -0.1417
24563W        W40032   1.102  12.545   0.144  0.1904 -0.0340  0.0553
24564W        W40033  15.948  15.206   0.841  0.0068  0.0939  0.0157
24565W        W40034   9.043  10.164  15.244  0.0527 -0.2291 -0.1452
24566W        W40035   0.305   9.842   4.885  0.2402 -0.1299  0.4632
24567W        W40036  18.550  12.830  11.806 -0.3437  0.0661 -0.2642
24568W        W40037  11.884  18.328  15.247 -0.4383 -0.1685  0.1418
24569W        W40038  14.894   8.336   2.481 -0.0464 -0.1575 -0.1679
24570W        W40039   7.946  13.060   2.611 -0.0576 -0.0988 -0.1030
24571W        W40040  11.192  15.267   0.529  0.5561  0.1866 -0.0466
24572W        W40041  15.342   7.811  13.715  0.1142  0.3010 -0.0769
24573W        W40042  16.146  18.558   2.857  0.0113 -0.0965  0.0528
24574W        W40043  15.382   1.080   0.298  0.1303  0.3950 -0.3346
24575W        W40044  16.876   9.292  12.642  0.0427  0.2100 -0.4424
24576W        W40045  15.684  10.253  10.394 -0.0931  0.0417  0.1599
24577W        W40046  16.070   0.238   4.741  0.4096  0.0528 -0.0985
24578W        W40047  10.626   2.196  10.969 -0.0883  0.1297 -0.0002
24579W        W40048  16.461  13.468   2.127 -0.0366 -0.2199  0.3266
24580W        W40049  13.238  15.619   3.691  0.1855  0.0952  0.0057
24581W        W40050   8.530   7.345  13.803  0.0652  0.0902  0.1794
24582W        W40051   0.339   5.490  13.955 -0.0070  0.1514  0.2029
24583W        W40052  11.488  13.583  10.737  0.5415 -0.4607 -0.3572
24584W        W40053   9.466   5.648  13.393  0.0892  0.0806 -0.0246
24585W        W40054   3.271   2.655  12.178 -0.1401  0.0707 -0.0711
24586W        W40055   3.144   0.500  15.491 -0.0414  0.1886 -0.0994
24587W        W40056   0.320   6.794  14.704  0.2270  0.1366 -0.1324
24588W        W40057   1.426  14.336   0.438  0.1775 -0.0277 -0.1843
24589W        W40058   2.599   7.142   1.934  0.0562  0.0871  0.1045
24590W        W40059   3.369  10.266  11.420 -0.0815 -0.0128 -0.2228
24591W        W40060   5.974   8.615   0.356 -0.3035  0.1264  0.0481
24592W        W40061  15.356   1.287  13.121  0.1540  0.0197  0.0180
24593W        W40062  15.303   0.695   2.371 -0.0903 -0.0361 -0.1583
24594W        W40063   6.807   3.015  13.211  0.0286  0.0666  0.1303
24595W        W40064   6.610  18.786   2.159  0.0828  0.2792  0.0128
24596W        W40065  13.070  14.950   4.145 -0.1725 -0.0806  0.0005
24597W        W40066  12.255  15.533  14.435 -0.3030 -0.0226 -0.3552
24598W        W40067   5.248   4.546   1.575  0.1118 -0.2144  0.2418
24599W        W40068  10.093  11.227   2.522  0.0639 -0.3270  0.1614
24600W        W40069  10.897   1.247   3.783  0.1968 -0.0167 -0.0981
24601W        W40070   1.034   6.459  14.421  0.1131  0.1790  0.2248
24602W        W40071   8.337  12.050   3.131 -0.1235  0.1439 -0.0564
24603W        W40072   6.875  14.713  11.760  0.0762  0.2486 -0.0066
24604W        W40073  14.518  15.967  13.470  0.3089 -0.0008 -0.4481
24605W        W40074  10.846  13.766  11.639 -0.2492 -0.1404  0.1252
24606W        W40075   2.238  14.565   4.698 -0.2044  0.1772  0.3056
24607W        W40076  18.413   7.133   4.613  0.1083 -0.1400  0.0382
24608W        W40077  14.768  11.201  12.286 -0.0505  0.3274 -0.1011
24609W        W40078   9.675  11.376  10.108 -0.1212 -0.3412  0.2684
24610W        W40079  11.839  15.691  14.217  0.0648 -0.2169 -0.1804
24611W        W40080  10.465  10.532  13.661 -0.0303 -0.5360 -0.1265
24612W        W40081   6.821  18.549  12.119 -0.2281  0.1204 -0.0001
24613W        W40082  13.786   2.321  11.409 -0.1017 -0.0581  0.2954
24614W        W40083  14.835   9.935   2.188  0.0403  0.0412 -0.1556
24615W        W40084  17.028  11.682   1.229 -0.0595  0.1675 -0.0255
24616W        W40085  11.211   8.429   0.154  0.2841 -0.1938 -0.3655
24617W        W40086  16.113   5.244  15.440  0.1655  0.3238  0.1182
24618W        W40087   1.028  18.079  12.334  0.0278  0.1529 -0.2130
24619W        W40088  10.664  15.496  10.728  0.0058 -0.1398  0.0801
24620W        W40089   7.077   4.415   2.041  0.0290  0.0175 -0.1680
24621W        W40090  16.803  15.753   2.857 -0.0734 -0.2146 -0.0353
24622W        W40091   9.685  10.292  13.423 -0.0396  0.0301 -0.0700
24623W        W40092   7.775  13.649  14.041  0.1214 -0.0786 -0.3943
24624W        W40093   1.347   3.441  11.013 -0.2097  0.0584 -0.0939
24625W        W40094  11.283   3.055   1.921 -0.0246  0.0919 -0.2448
24626W        W40095   4.286  16.840   0.981  0.2130 -0.2355  0.1929
24627W        W40096   0.910   7.460   4.255 -0.2189  0.4748  0.0980
24628W        W40097  16.908   8.597  13.846  0.1302 -0.1112  0.0737
24629W        W40098  11.839  10.459  14.057  0.1137  0.0125  0.1149
24630W        W40099  17.330   7.239  14.105  0.1013 -0.0003 -0.0094
24631W        W40100  14.041   3.408  10.958 -0.1177  0.1377  0.4853
24632W        W40101   4.429  15.293   1.080 -0.1702  0.0026 -0.1650
24633W        W40102  11.392  11.246   1.941  0.1714  0.1478  0.2161
24634W        W40103   7.301   2.595  14.557 -0.0145  0.4432  0.0271
24635W        W40104  12.927   2.788   3.591  0.0580  0.0522  0.0551
24636W        W40105   0.293  11.200  13.531  0.1018  0.2936  0.0882
24637W        W40106   3.325  18.815   4.911  0.0700 -0.0937  0.1383
24638W        W40107  17.012   8.785  14.351 -0.2008 -0.0446  0.0281
24639W        W40108   8.746   5.418   0.436 -0.2223  0.1318 -0.0000
24640W        W40109  11.066   8.843  10.601  0.0298  0.0422  0.3572
24641W        W40110   3.259   4.428  13.179 -0.2517  0.2966 -0.3496
24642W        W40111   0.149   2.383  13.575 -0.1048 -0.2790 -0.1365
24643W        W40112  15.480  13.633   1.372  0.1783 -0.6091 -0.0410
24644W        W40113   7.793   2.566  11.004 -0.1985 -0.2248 -0.1631
24645W        W40114  12.088  13.343   4.240  0.3610  0.0023  0.1207
24646W        W40115  17.434  17.420  14.690  0.3861 -0.4056  0.3387
24647W        W40116  16.707   2.927  10.865  0.1640 -0.2323 -0.0458
24648W        W40117   2.327   9.425  14.997  0.0791 -0.4856 -0.1415
24649W        W40118  15.585   1.090  14.738  0.0277  0.3142 -0.1426
24650W        W40119   1.865   6.170   0.982  0.0551  0.1049 -0.0458
24651W        W40120   1.921  15.286   2.831  0.1642 -0.1633  0.3916
24652W        W40121   7.094  12.395  13.881  0.3147  0.0467 -0.1420
24653W        W40122  14.298   5.140   0.532 -0.0832  0.0563  0.0640
24654W        W40123   6.528   7.411   2.667 -0.1492  0.0620 -0.0146
24655W        W40124   0.438   7.560   4.520  0.2187 -0.0050  0.0774
24656W        W40125  12.682  18.276   2.678  0.2199 -0.1570  0.1479
24657W        W40126   0.959   9.792   3.608  0.1397  0.2371  0.0253
24658W        W40127  16.151  12.829  15.430  0.1101 -0.1543 -0.2515
24659W        W40128   5.241  13.214   5.583  0.1060  0.0516 -0.1995
24660W        W40129  12.276   6.120  10.361 -0.2430 -0.1405 -0.2033
24661W        W40130   8.663   2.771  15.016  0.1241 -0.0976  0.3198
24662W        W40131   9.488  17.777   0.109 -0.4006 -0.3812 -0.1277
24663W        W40132   1.210   8.259   0.353  0.0973 -0.2060 -0.1456
24664W        W40133  10.594  13.715  10.990  0.1561  0.0566 -0.0578
24665W        W40134  13.340  14.051  11.566 -0.1694 -0.0828 -0.0971
24666W        W40135  11.785  16.317  10.721  0.1019 -0.3234 -0.0912
24667W        W40136  11.208   1.268   4.195 -0.0310  0.0739  0.2962
24668W        W40137   2.074   3.781  14.554  0.1619  0.0912  0.2766
24669W        W40138   3.632  16.375   3.126 -0.1623  0.4896  0.1191
24670W        W40139  18.040   9.225   0.989  0.1455 -0.0508 -0.0231
24671W        W40140  18.017   7.234  14.910  0.0710 -0.3237 -0.0452
24672W        W40141  17.304   7.813   1.769 -0.0532 -0.2632  0.3929
24673W        W40142  17.627   3.087   1.349 -0.0874  0.1537 -0.0829
24674W        W40143  15.768  14.950  14.190  0.1872 -0.2230 -0.0405
24675W        W40144   8.101  18.780   5.212 -0.0894  0.1084  0.4085
24676W        W40145  13.228  17.364   4.592 -0.1797  0.1855  0.0449
24677W        W40146   3.777  16.716   4.071 -0.0298  0.0374  0.3782
24678W        W40147  10.006  18.493  12.635  0.3867  0.1021 -0.1050
24679W        W40148   2.610  13.935   9.747  0.2579  0.2395 -0.2413
24680W        W40149   9.408  13.808   5.374  0.2995  0.2595  0.0280
24681W        W40150   8.001   3.802  12.202  0.2176  0.1449 -0.3198
24682W        W40151   0.744  18.615   4.599 -0.1196  0.0789  0.0441
24683W        W40152  15.101   2.644  13.961  0.0599 -0.1520 -0.2053
24684W        W40153   3.895   6.851   3.345 -0.1522  0.1299 -0.3586
24685W        W40154   6.236   2.280   2.173 -0.3685 -0.3596  0.1486
24686W        W40155   9.049   0.741  15.046  0.0196 -0.1229  0.2009
24687W        W40156  10.944  16.304  14.998  0.0050  0.0715  0.1017
24688W        W40157  11.300   0.133   2.109  0.0147 -0.4132 -0.0750
24689W        W40158  16.149   9.179   4.120  0.1570 -0.2684  0.1087
24690W        W40159   9.983  16.053   4.883 -0.2289 -0.1312  0.1053
24691W        W40160  13.163  17.810   2.076  0.0586 -0.1291  0.0115
24692W        W40161  10.936  14.710  11.151  0.1693 -0.1042  0.2306
24693W        W40162  16.231  14.563  11.707 -0.1738  0.0244 -0.3413
24694W        W40163  18.264   9.515  11.466  0.2022  0.2520  0.1912
24695W        W40164   4.021   8.903  14.604 -0.1461 -0.1336  0.0396
24696W        W40165  14.630   3.458   1.528  0.1442 -0.2208  0.0009
24697W        W40166   7.558   8.654  12.501 -0.2984  0.0756  0.0075
24698W        W40167  14.746   8.241  10.784  0.1863 -0.0942 -0.0931
24699W        W40168   7.158   6.881  12.987  0.0560 -0.2594 -0.1284
24700W        W40169   0.966   9.536  13.172  0.1801 -0.0440  0.0585
24701W        W40170  10.512  14.250  14.972 -0.0265 -0.0861  0.3599
24702W        W40171  10.028  13.178   2.710 -0.1355  0.1718 -0.0114
24703W        W40172  11.941   3.413   5.026 -0.2359 -0.3307  0.4980
24704W        W40173   7.893   3.257  10.398 -0.0910  0.1926  0.0681
24705W        W40174  14.547  12.818  11.229  0.1805  0.0684 -0.2284
24706W        W40175   9.659  16.202  14.844 -0.0728 -0.0756  0.1037
24707W        W40176  16.661  15.211   1.828  0.0918 -0.3301 -0.4486
24708W        W40177  15.806  12.715   1.258 -0.0729 -0.0480  0.0029
24709W        W40178   4.119  18.752   1.991 -0.1880  0.0812 -0.0714
24710W        W40179   9.433   6.558  10.234  0.0753  0.2497 -0.1954
24711W        W40180   7.976   5.089   1.068 -0.0521 -0.1774 -0.2626
24712W        W40181  18.731  16.913   0.994  0.3195  0.0408 -0.2676
24713W        W40182   0.154  18.672   2.085 -0.2014 -0.3143  0.2205
24714W        W40183  11.434   7.468  11.674  0.1894 -0.1784  0.2470
24715W        W40184  11.143   6.728  12.301 -0.2703 -0.2658 -0.0325
24716W        W40185   6.665   1.939   0.431  0.1688 -0.4461  0.1560
24717W        W40186   7.446   3.147   4.466  0.0390 -0.1791 -0.1168
24718W        W40187   4.307   5.337   3.214 -0.0193  0.0453  0.1671
24719W        W40188   0.277   1.882  14.728 -0.0242 -0.1857  0.6022
24720W        W40189   1.828   0.766  13.576  0.0720 -0.1976  0.0558
24721W        W40190  17.492   7.782  11.059  0.0378 -0.1167 -0.0364
24722W        W40191  14.184  18.377   2.611  0.2053 -0.0914  0.0701
24723W        W40192  12.928   7.111   2.157 -0.1551 -0.0021 -0.1357
24724W        W40193   4.204  10.632   2.516 -0.0102  0.0480 -0.0596
24725W        W40194  17.204  16.889   4.928  0.2277 -0.1713 -0.1513
24726W        W40195   2.334   8.736  15.337 -0.1279 -0.0550 -0.0052
24727W        W40196  10.596   4.384  10.642 -0.2041 -0.1743  0.0585
24728W        W40197   8.455  14.757  12.304  0.0776 -0.4606 -0.0467
24729W        W40198  16.522  15.535  13.039 -0.0365 -0.0473  0.0560
24730W        W40199  13.426  13.160   5.624  0.3730 -0.0870 -0.0083
24731W        W40200   8.660   4.729   3.137 -0.2259  0.1250 -0.1286
24732W        W40201  15.178   9.358  11.512  0.1675 -0.0992 -0.0032
24733W        W40202  18.076   3.633  13.310  0.1715 -0.3950 -0.0766
24734W        W40203   1.654   0.420  13.024  0.1026 -0.1488  0.3123
24735W        W40204   0.579   9.768  13.919 -0.2002  0.2526  0.3199
24736W        W40205  18.501  16.704  11.330  0.1556  0.2443  0.1286
24737W        W40206   7.166  13.168   0.758 -0.2153 -0.0479 -0.0023
24738W        W40207   5.561  13.238  14.872 -0.1267  0.2520  0.0522
24739W        W40208  12.951  16.560  12.918  0.2788 -0.0538  0.3313
24740W        W40209  11.032   7.726  11.349 -0.0291  0.1314  0.2265
24741W        W40210   7.433  11.798   2.831  0.1773  0.0789 -0.0722
24742W        W40211   4.539  14.915  11.172  0.2575 -0.2838  0.1485
24743W        W40212  15.970  10.366  14.451  0.1302 -0.1999 -0.1386
24744W        W40213  10.523   8.356  11.985 -0.4791 -0.1476 -0.2772
24745W        W40214   7.232  10.991   3.077 -0.1386  0.3353 -0.1877
24746W        W40215   3.075  11.150   2.879  0.2185  0.1368 -0.0348
24747W        W40216  12.917  13.545   3.288 -0.0489  0.1496  0.4472
24748W        W40217  18.395   2.438  12.473  0.1161 -0.1063 -0.2743
24749W        W40218   0.089  17.547   4.066 -0.1385 -0.0648 -0.4341
24750W        W40219   3.860   3.383   2.225 -0.2791  0.1315  0.2942
24751W        W40220  11.472   8.503   4.358  0.0700 -0.0090  0.1022
24752W        W40221  13.487  18.758   1.706  0.2665 -0.1424 -0.0022
24753W        W40222   5.844   1.282   2.583 -0.1505 -0.2190 -0.1085
24754W        W40223   7.747  17.274   2.006 -0.1441  0.3192  0.1620
24755W        W40224  15.053   1.468  10.594 -0.1477 -0.0026  0.1226
24756W        W40225  15.536   6.732  14.516  0.3862  0.1678  0.1514
24757W        W40226   8.208   7.446  12.525  0.0110  0.1909 -0.2308
24758W        W40227  10.730  18.317   0.056  0.1366 -0.2676  0.1040
24759W        W40228   8.700   7.781   2.215  0.0489 -0.0191  0.4522
24760W        W40229   3.953   3.581  14.153 -0.2021 -0.0013 -0.0206
24761W        W40230  14.239   9.359   1.526  0.3909 -0.2896  0.0915
24762W        W40231  13.135   2.973   4.575  0.2699 -0.2247  0.0973
24763W        W40232   2.436   9.647   5.184 -0.1037  0.1323 -0.4157
24764W        W40233  14.003   1.841   4.298  0.0075  0.0301 -0.1948
24765W        W40234  11.499   0.958  12.568  0.0934  0.0373  0.0993
24766W        W40235  18.050  15.695   4.213 -0.0612 -0.0571 -0.0051
24767W        W40236  16.660   7.102  13.694  0.2224  0.0405 -0.1028
24768W        W40237   5.282   8.015   1.363 -0.1536  0.0940  0.2505
24769W        W40238   1.991  12.982   3.846  0.4004  0.1374 -0.0816
24770W        W40239   5.174  11.341   3.459  0.0647  0.0235  0.2768
24771W        W40240  12.662   0.509  11.902  0.0520 -0.1185  0.2377
24772W        W40241   6.651   0.954  12.377  0.0799 -0.2950  0.2262
24773W        W40242  16.671   0.881  12.726 -0.3854 -0.1134 -0.0317
24774W        W40243   8.241  13.431  14.849  0.1498 -0.2196 -0.4229
24775W        W40244  14.363   2.504   0.168 -0.0315 -0.1029  0.0822
24776W        W40245   7.666  12.657  13.258  0.0200 -0.1191 -0.1747
24777W        W40246   4.794  15.175  12.969 -0.1763 -0.1023 -0.0382
24778W        W40247  18.104  14.748   0.897 -0.2529  0.1724 -0.0937
24779W        W40248   4.938   6.962  14.592  0.1119 -0.1175 -0.1976
24780W        W40249  13.618   2.916   4.352 -0.0458  0.3043 -0.0398
24781W        W40250  11.521   0.002   3.807 -0.1252 -0.0149 -0.0982
24782W        W40251   4.364   4.812  10.672  0.1576 -0.0704  0.1492
24783W        W40252   5.658  13.707  15.467  0.0997  0.2298 -0.1739
24784W        W40253   2.628  13.440   4.581  0.0146  0.3211  0.1811
24785W        W40254   4.715  17.616  10.599 -0.1478 -0.0332 -0.1132
24786W        W40255   7.648   0.737  12.387  0.1161 -0.0400 -0.0290
24787W        W40256   4.505  12.659   2.575 -0.3334 -0.0485  0.0203
24788W        W40257   9.163   0.729  11.667  0.0689 -0.0049 -0.0652
24789W        W40258  14.964  12.346  10.093  0.2314  0.0754 -0.3525
24790W        W40259   2.942  17.752  12.745 -0.3731  0.2502  0.0731
24791W        W40260  14.875   5.295  10.765  0.1595 -0.3281  0.0634
24792W        W40261   0.499  16.008   9.717 -0.0078  0.0487 -0.0824
24793W        W40262  18.589  14.054   4.594 -0.0034  0.4353  0.1131
24794W        W40263  13.214   1.565   2.322 -0.1686  0.2408  0.2546
24795W        W40264  10.169   1.295   0.228  0.1843 -0.0882  0.0478
24796W        W40265   9.177   3.250   3.621  0.0931  0.1713 -0.0757
24797W        W40266  11.569   7.841   1.111 -0.6985 -0.4665 -0.3176
24798W        W40267   6.270  18.426  10.824 -0.2671  0.0415  0.0654
24799W        W40268   1.928  14.827  15.410 -0.0771  0.1498  0.0513
24800W        W40269  15.827  12.705  13.887  0.0133  0.1895  0.0294
24801W        W40270   4.519  14.260  13.158  0.0677  0.0052 -0.1458
24802W        W40271  17.244   6.222   2.396  0.2909  0.1103  0.2485
24803W        W40272  16.535   0.923  11.214 -0.0424  0.1716  0.1452
24804W        W40273  15.804   0.449  13.495  0.4288  0.0096 -0.1104
24805W        W40274  11.063  10.510  11.059  0.2292  0.1067 -0.1611
24806W        W40275   4.233   4.864   4.932  0.2213 -0.0270  0.1597
24807W        W40276  10.118   6.517   2.465  0.1525 -0.1606  0.0082
24808W        W40277   8.917  13.920   0.281  0.1140  0.0624 -0.2524
24809W        W40278   7.524   7.767  10.426 -0.1755  0.1230  0.2171
24810W        W40279  11.552   2.365  13.663 -0.2462  0.0407 -0.3146
24811W        W40280  12.691  18.885   9.602  0.3093 -0.1613  0.0395
24812W        W40281  12.351   8.952   1.125 -0.2957  0.1506  0.0453
24813W        W40282  18.125  16.599  13.157 -0.2229 -0.0101  0.0038
24814W        W40283   7.270   5.969   4.063  0.0438 -0.0138 -0.0593
24815W        W40284   0.054  10.501   1.821  0.2175  0.2364  0.2599
24816W        W40285   5.991  17.644  11.912 -0.1217 -0.3118 -0.1723
24817W        W40286   8.243   4.984  12.600  0.0568  0.0828 -0.3897
24818W        W40287  11.681   8.168  15.022  0.0565 -0.1269 -0.5792
24819W        W40288   4.025  11.143  13.830 -0.0617 -0.1867 -0.0278
24820W        W40289  14.837   3.086   0.300 -0.1957  0.3623 -0.3695
24821W        W40290   2.882   1.646   2.587 -0.1976 -0.0868 -0.4765
24822W        W40291  14.639   9.710  14.615 -0.0347 -0.0155 -0.4315
24823W        W40292   6.884   3.477   4.974 -0.1983 -0.4287  0.2259
24824W        W40293   5.226   6.032  11.612 -0.2590  0.1486 -0.1008
24825W        W40294   8.401  17.662   3.622 -0.0238  0.0755 -0.0401
24826W        W40295   8.242   2.912  10.367  0.2487  0.2297  0.0342
24827W        W40296   4.234   0.761   3.731 -0.3076 -0.0108 -0.0880
24828W        W40297   3.699  14.501  12.286  0.0515 -0.2595  0.1470
24829W        W40298  13.910  11.813   5.047 -0.2124 -0.2037 -0.0709
24830W        W40299   6.788  14.416  13.364 -0.1689  0.1367 -0.0169
24831W        W40300  17.179  15.841  13.469 -0.1628  0.1761  0.3349
24832W        W40301   8.317   8.980  11.426  0.2120 -0.0452 -0.0380
24833W        W40302   6.533   2.718  12.408  0.0388  0.0679  0.0435
24834W        W40303  10.983  10.169  14.490 -0.1327  0.0144  0.0664
24835W        W40304  13.800  10.046  14.888  0.2290 -0.4088 -0.0177
24836W        W40305  18.343   7.734  13.492 -0.0111  0.2685 -0.0672
24837W        W40306  16.478  11.409   1.371  0.0389 -0.1281  0.1911
24838W        W40307  15.222  16.725  15.063 -0.1945 -0.1262  0.0091
24839W        W40308   4.457   5.842   3.340 -0.0731  0.0221  0.0383
24840W        W40309   9.123  11.135  12.496 -0.2478 -0.3090  0.0521
24841W        W40310  12.475   9.216  11.708 -0.2936 -0.1828  0.1242
24842W        W40311   2.002  16.322  11.360 -0.0123  0.0693 -0.2870
24843W        W40312  18.796  17.326  13.375 -0.1584  0.1819 -0.3440
24844W        W40313  12.185   9.082   3.766 -0.1326  0.4303 -0.0249
24845W        W40314  15.661  18.168  14.007 -0.2779  0.0690 -0.3210
24846W        W40315   4.396  10.879  12.576 -0.0410  0.1783 -0.2800
24847W        W40316   6.539  10.014  11.166  0.1041  0.1387 -0.0092
24848W        W40317   5.847   9.904  14.261 -0.1840  0.3764 -0.0720
24849W        W40318  17.320   5.329  14.852 -0.1277  0.0979  0.0046
24850W        W40319   2.731  15.628   3.081  0.1406 -0.5199  0.0161
24851W        W40320  13.812   1.361   2.680  0.5040  0.0288  0.3669
24852W        W40321   1.517   4.117   1.024 -0.1537 -0.2413  0.4514
24853W        W40322  16.298   7.098  13.401  0.2246  0.0092 -0.0499
24854W        W40323   6.984  15.323  13.959 -0.0971 -0.3037 -0.1338
24855W        W40324   0.227   7.919   1.035  0.4629 -0.0353 -0.2641
24856W        W40325   1.672   5.265   1.622 -0.4046  0.0745  0.1482
24857W        W40326   2.003   4.122   4.322  0.1637 -0.1702 -0.3864
24858W        W40327  15.861  15.468  14.094 -0.4394  0.1189 -0.1519
24859W        W40328  13.713  15.141   2.932 -0.0931 -0.0583  0.0831
24860W        W40329   9.729  16.607  14.430 -0.0632  0.0755  0.1804
24861W        W40330  15.807  16.877   1.079 -0.0345 -0.1763  0.1437
24862W        W40331  16.762   6.118  14.571 -0.2354  0.1898  0.1809
24863W        W40332  18.218  10.711  12.021 -0.2056 -0.0032  0.0451
24864W        W40333   3.936   3.498  11.116 -0.1585  0.4699  0.3859
24865W        W40334   7.945   9.087   0.977  0.3095 -0.0383 -0.0501
24866W        W40335  12.866   4.786  12.669 -0.0947  0.1934 -0.0431
24867W        W40336  14.586   3.956   0.495  0.2793 -0.1786  0.0045
24868W        W40337  17.227   7.366  12.357  0.1995  0.0917 -0.1084
24869W        W40338   5.353   5.496  15.154  0.2659  0.3231 -0.3585
24870W        W40339  10.210  15.451  10.990  0.2169 -0.1263  0.1501
24871W        W40340   7.229  15.177   2.643  0.3388 -0.0559 -0.0156
24872W        W40341  10.761   9.687   0.264 -0.2495 -0.2367 -0.1128
24873W        W40342  14.414  12.280  12.848 -0.0740  0.0448  0.1389
24874W        W40343   1.702  17.259  12.244  0.0922  0.2181  0.0577
24875W        W40344  12.389  15.267  12.553  0.1511 -0.0728  0.1979
24876W        W40345  15.819   0.639  14.187 -0.0648 -0.0865 -0.0415
24877W        W40346   6.561   5.824   5.904 -0.1614 -0.3881 -0.2478
24878W        W40347   8.637   8.241   1.115 -0.1681 -0.0209 -0.1121
24879W        W40348  15.593  11.052   3.654  0.2475  0.5478  0.1544
24880W        W40349   2.383   2.947  10.905 -0.1851  0.1445 -0.0885
24881W        W40350  13.686   7.604   2.379  0.1489  0.1370 -0.1685
24882W        W40351  18.678   6.212   2.549  0.1560  0.1287 -0.1164
24883W        W40352   3.880   4.090  14.569  0.0505  0.1962 -0.1756
24884W        W40353   7.632   8.620   4.966 -0.0991 -0.3028 -0.1568
24885W        W40354  13.032   9.204   1.162 -0.0800  0.2059  0.1155
24886W        W40355  10.252   7.515   1.354  0.0432  0.3170 -0.2251
24887W        W40356   7.223   8.160  11.200 -0.1459  0.0170 -0.0129
24888W        W40357  10.162   4.477  10.021 -0.0139 -0.1028 -0.2357
24889W        W40358  14.411   4.539  13.311 -0.0355 -0.0777 -0.1332
24890W        W40359   1.950  16.851   0.945 -0.1138 -0.0927  0.2616
24891W        W40360  15.398  12.063  15.206  0.0018 -0.0950  0.0418
24892W        W40361  15.217   3.614  15.229 -0.1721 -0.0777  0.0561
24893W        W40362  14.064   9.016   1.038  0.0007 -0.0309  0.1069
24894W        W40363   4.732   2.982   3.362 -0.1418 -0.0086 -0.3502
24895W        W40364   0.180   3.372  12.454  0.0998  0.2066  0.1331
24896W        W40365   2.883  10.550  10.517  0.2104  0.1140 -0.1840
24897W        W40366   6.611  12.319  13.917 -0.1597 -0.3475 -0.3093
24898W        W40367   5.388   1.875   0.797  0.0059 -0.1839 -0.2168
24899W        W40368   0.271  12.795   0.982 -0.4003  0.3412  0.1946
24900W        W40369   3.615   1.093   1.555  0.1492  0.2122  0.0135
24901W        W40370  15.911  10.587   3.995 -0.1629 -0.1727 -0.0636
24902W        W40371   5.881  14.564  11.844 -0.0076  0.2199  0.1037
24903W        W40372  14.925  11.652  11.412  0.0244  0.1037 -0.1684
24904W        W40373  12.405  10.839  11.702  0.1838 -0.0716 -0.1368
24905W        W40374   2.935   0.892  13.362  0.1790 -0.2268  0.1212
24906W        W40375   2.908  11.893  13.643 -0.1125  0.2016  0.0040
24907W        W40376  10.540  10.415   5.018 -0.2858  0.0502  0.2835
24908W        W40377   8.922   6.564   2.413 -0.0270  0.0569 -0.1107
24909W        W40378   6.962  10.185   0.403 -0.1636 -0.0689 -0.0912
24910W        W40379  18.041  10.445   1.989  0.1664  0.0726 -0.0496
24911W        W40380  15.848  18.185  11.925  0.0680  0.1284 -0.4056
24912W        W40381  18.578  18.002   2.270 -0.0840 -0.1063 -0.1151
24913W        W40382  17.334  12.570   9.578  0.0646  0.0544  0.1245
24914W        W40383   1.444  12.292   1.825  0.0261 -0.4321 -0.2412
24915W        W40384  12.587  13.410   0.160 -0.1402 -0.0151  0.1654
24916W        W40385  14.809   3.443  14.689  0.0409 -0.0229 -0.2380
24917W        W40386   9.387  11.206   3.079  0.1677  0.1013 -0.2599
24918W        W40387   9.209  15.087  13.782 -0.1341 -0.3064  0.1342
24919W        W40388   0.997  10.448  14.388 -0.0683 -0.0837 -0.1272
24920W        W40389   2.176   8.437   2.460  0.0606 -0.0759 -0.3353
24921W        W40390  12.193   3.745   4.207  0.0944  0.1098  0.1407
24922W        W40391  11.890  11.332   3.840  0.1308  0.1188  0.0513
24923W        W40392  15.157  10.405   0.167  0.0715  0.0491 -0.1040
24924W        W40393   9.796  18.577   1.356  0.0351 -0.0113  0.2393
24925W        W40394   4.168  10.912  15.446 -0.0223 -0.2322  0.2865
24926W        W40395  10.268  13.912   0.158  0.1456  0.2759 -0.2587
24927W        W40396  14.834   5.044   0.282 -0.0057 -0.1243  0.1262
24928W        W40397  13.196   8.083   3.600 -0.0781  0.1653 -0.2489
24929W        W40398   1.021  10.012   4.547  0.0537  0.1442 -0.3969
24930W        W40399  18.883  10.458  13.187  0.0772  0.1788 -0.1816
24931W        W40400   1.269  18.455  15.394 -0.1969  0.2096  0.1553
24932W        W40401  10.721   5.260   3.886  0.0609 -0.0699  0.1058
24933W        W40402   9.192   9.548  12.740  0.2280 -0.0606 -0.0631
24934W        W40403  13.499   9.811   0.461  0.0339  0.2766 -0.3676
24935W        W40404   7.066  12.049   3.359  0.4444 -0.0249  0.1370
24936W        W40405   6.514  13.620  12.193  0.2036 -0.2721 -0.0416
24937W        W40406  14.247   7.454   4.283  0.2414 -0.2807 -0.0239
24938W        W40407  14.778  13.941  14.247 -0.0816  0.0567  0.4428
24939W        W40408   1.978   6.607   3.284  0.4606 -0.0775 -0.2079
24940W        W40409  12.406  13.253  13.881 -0.3720 -0.1445  0.1014
24941W        W40410   4.012  17.005   2.262 -0.0962  0.0990  0.3176
24942W        W40411   5.522  17.068   4.424 -0.0946  0.0616  0.1332
24943W        W40412   9.551   6.001   0.753 -0.0300  0.0828 -0.2849
24944W        W40413  10.965   3.226   0.575 -0.2403 -0.0601  0.1432
24945W        W40414   3.863   5.548   3.399  0.1844  0.2179  0.1189
24946W        W40415  12.210   0.860   1.755 -0.3074  0.2000 -0.3265
24947W        W40416  13.425  18.929  14.423 -0.1522 -0.0320 -0.1446
24948W        W40417   3.693  15.552   3.988  0.0688  0.0329 -0.2778
24949W        W40418   7.988   6.571   1.081 -0.2531 -0.0632 -0.1147
24950W        W40419  16.516  17.763  15.072 -0.1883  0.2148  0.0204
24951W        W40420   9.803  17.735  15.139  0.0380  0.2049  0.0481
24952W        W40421   2.467  13.308   3.762  0.1052  0.2008 -0.1500
24953W        W40422   3.800  17.886   4.713 -0.0947 -0.1872 -0.4274
24954W        W40423   2.403   8.397   3.751 -0.2551 -0.0198 -0.0236
24955W        W40424   5.383  11.837  13.313  0.1301  0.1387  0.1577
24956W        W40425   0.007   5.894   4.674  0.0025 -0.4112 -0.1825
24957W        W40426  15.911   8.789   3.411 -0.0359  0.1329  0.2921
24958W        W40427   0.518  11.145   4.293 -0.0332 -0.2362 -0.0610
24959W        W40428   0.465  12.706  12.988  0.1006 -0.1390  0.1968
24960W        W40429   1.197  12.622  11.929  0.2074  0.1110 -0.0985
24961W        W40430   5.443  13.963  14.373  0.0750 -0.1453 -0.0744
24962W        W40431  10.622   1.275   4.234  0.1764 -0.3910  0.1731
24963W        W40432  15.717   6.561   1.959  0.3299  0.1264 -0.1612
24964W        W40433   9.697  12.053   4.114  0.5566 -0.2262  0.4582
24965W        W40434   1.333   3.110   0.645 -0.1778  0.2981 -0.1070
24966W        W40435  11.164  17.866   3.780 -0.0985  0.0503 -0.0986
24967W        W40436  12.275  14.447   2.983 -0.1021 -0.1713  0.1467
24968W        W40437   2.919  15.580  11.207  0.0333 -0.0136  0.2422
24969W        W40438   2.412  16.721   1.192  0.0756 -0.0895 -0.0892
24970W        W40439  16.543   5.359  10.409 -0.0177 -0.0614  0.4329
24971W        W40440   7.154  10.404  12.566 -0.0821  0.3937 -0.2194
24972W        W40441  14.864   9.734   3.524  0.3493  0.0628  0.0541
24973W        W40442  15.310  12.484  10.880 -0.2432 -0.0761  0.0929
24974W        W40443  11.636   6.539  12.415 -0.0810 -0.1385 -0.0999
24975W        W40444   0.839   5.934   1.232 -0.1713 -0.1297  0.0984
24976W        W40445   1.163  10.637  10.621 -0.0482 -0.3029 -0.0567
24977W        W40446   9.448   0.824  12.429  0.1335  0.1801 -0.0587
24978W        W40447  12.698  17.064  14.893  0.3403  0.2735  0.0288
24979W        W40448  11.210   0.323   0.674 -0.2792 -0.2388 -0.1318
24980W        W40449   7.875   6.488   0.533  0.1832  0.0430 -0.4315
24981W        W40450   5.994   1.555   0.178 -0.0389  0.2924 -0.1576
24982W        W40451   5.779   9.941   2.239 -0.0972 -0.0546 -0.1250
24983W        W40452   2.312   9.615   4.141 -0.2691  0.4214  0.1040
24984W        W40453   1.640   1.497  10.953 -0.3126  0.1115  0.0727
24985W        W40454   1.295  15.698   4.920  0.0535 -0.0293 -0.1652
24986W        W40455  13.119  11.904  13.468  0.4870 -0.0833 -0.1125
24987W        W40456   6.556   0.670   0.899  0.2426 -0.1685 -0.3791
24988W        W40457  18.439   3.441  11.210  0.3172  0.0006 -0.1797
24989W        W40458   3.239  15.828  14.546  0.1573 -0.1632 -0.2820
24990W        W40459   7.553   7.083  14.256  0.1424 -0.3799 -0.1976
24991W        W40460  13.054   5.475   5.477 -0.3707 -0.0379  0.1429
24992W        W40461   8.023   3.131   1.422 -0.0303  0.0100 -0.3178
24993W        W40462  17.679   3.501  12.980  0.2768  0.0992 -0.4129
24994W        W40463   8.623  17.713   0.559 -0.0419 -0.0386  0.1047
24995W        W40464   9.339  18.701  11.839 -0.0889 -0.1972 -0.0359
24996W        W40465   5.995   3.704  14.370  0.1496  0.2225 -0.0618
24997W        W40466  10.564   9.888   4.748 -0.5981 -0.0111 -0.1365
24998W        W40467  12.834   5.908   5.653 -0.0701  0.0652  0.0678
24999W        W40468  13.703  13.421  14.989 -0.0781  0.1151  0.2320
25000W        W40469  15.524  13.795   2.348  0.1770 -0.1032  0.0151
25001W        W40470   8.612  11.517   2.585 -0.0607  0.2624 -0.2401
25002W        W40471   6.756   6.902   2.377  0.1144 -0.0861 -0.1313
25003W        W40472   8.536   6.337  10.561 -0.1586 -0.1365 -0.3323
25004W        W40473   1.948  13.760   1.576 -0.0598  0.3742  0.1105
25005W        W40474  11.042   6.910   2.452 -0.1275 -0.5234 -0.1143
25006W        W40475   2.096   5.213   0.566 -0.0462 -0.1515  0.0003
25007W        W40476  11.971  10.952  14.277 -0.0514 -0.1157 -0.0322
25008W        W40477  11.195  15.269  11.584  0.0425 -0.2433  0.0445
25009W        W40478   8.772   3.299   3.117 -0.1945 -0.0610  0.0985
25010W        W40479   4.834  14.751   0.634 -0.0538 -0.0423 -0.1846
25011W        W40480   5.521   1.051   0.249  0.2043 -0.3079 -0.1776
25012W        W40481   4.220  18.638   2.748  0.1872 -0.0502 -0.1653
25013W        W40482  14.291   7.037   1.721  0.1944 -0.2562  0.0470
25014W        W40483  12.676   8.295   4.054  0.0789 -0.4364  0.1830
25015W        W40484  16.927   2.191   0.257 -0.0170  0.1143  0.2942
25016W        W40485   5.720  18.108  12.619 -0.0569  0.1113  0.1004
25017W        W40486  17.756   8.109  15.498 -0.2878 -0.1516 -0.0051
25018W        W40487   5.383  12.701   3.793  0.0458 -0.2598  0.0639
25019W        W40488   7.529  12.069   5.788  0.0939  0.1755  0.1088
25020W        W40489  15.634  10.704  12.604  0.0443 -0.0315 -0.2900
25021W        W40490   0.383  17.495  13.068  0.0874  0.3816  0.0703
25022W        W40491  13.572   2.311   2.730 -0.1131  0.0353 -0.0530
25023W        W40492  12.751   5.178  13.901 -0.1438 -0.0386  0.3029
25024W        W40493  15.600   5.114   5.225 -0.3564 -0.2291 -0.3028
25025W        W40494  12.224   0.766  13.609  0.0036 -0.2823  0.0469
25026W        W40495   0.823  13.308   3.099  0.1484 -0.0094 -0.3079
25027W        W40496  17.588  16.070  13.832 -0.1811 -0.0765  0.6739
25028W        W40497   1.369   9.802   1.909  0.3840  0.0678 -0.1566
25029W        W40498   7.409  18.625   0.993  0.2443  0.2316 -0.0958
25030W        W40499  14.971   5.914   0.900 -0.1319 -0.1189  0.0678
25031W        W40500   8.353  18.177   2.699 -0.1761 -0.0659  0.2197
25032W        W40501   6.751   4.916  13.719 -0.0548 -0.0439 -0.4230
25033W        W40502   8.862  17.318   0.908  0.0036  0.3888 -0.0154
25034W        W40503   1.837   4.367  13.140 -0.1617  0.3051 -0.0341
25035W        W40504   6.860   0.393  12.712 -0.1324  0.1051 -0.1503
25036W        W40505   2.187   1.660  15.368  0.1896 -0.3612  0.2978
25037W        W40506  13.874   9.193   0.063  0.2632 -0.1903 -0.3015
25038W        W40507  12.227  10.752   4.711 -0.0995 -0.0943 -0.2086
25039W        W40508   9.965   7.091  11.216 -0.1094  0.1083  0.0135
25040W        W40509   6.576  16.984  13.101 -0.0595 -0.0576  0.1043
25041W        W40510  16.114  14.056  13.159 -0.0151  0.0644 -0.1748
25042W        W40511   2.975  15.287  13.089  0.1293 -0.2175 -0.0140
25043W        W40512   7.748   4.378   1.164 -0.0903 -0.1306  0.2685
25044W        W40513  11.432  17.826   4.150  0.0286 -0.2222  0.1223
25045W        W40514   8.517   5.193   1.931  0.2263 -0.4694  0.0945
25046W        W40515   2.454  11.985  11.720 -0.1563  0.0616  0.1846
25047W        W40516   0.126  11.227  12.171 -0.2740 -0.1167  0.2003
25048W        W40517   3.462  11.561   0.545 -0.2191 -0.1690  0.2885
25049W        W40518  10.056   7.169  15.379  0.0548 -0.2216  0.0379
25050W        W40519   6.952   9.188   3.130 -0.6627  0.3254  0.0465
25051W        W40520  18.179  14.065   3.237  0.1516  0.1688 -0.2335
25052W        W40521   9.057   8.179  13.890 -0.1525  0.0225  0.2326
25053W        W40522   8.683   1.397  14.643  0.0957  0.0112  0.1816
25054W        W40523  13.402   2.132  12.905  0.2236  0.2350  0.0423
25055W        W40524   8.096  12.612   0.103  0.2398  0.0595  0.1752
25056W        W40525   8.198   8.021  11.490 -0.0698  0.2778 -0.1794
25057W        W40526  11.888   3.690   9.730  0.4502  0.0144 -0.3853
25058W        W40527   3.191  12.856   4.969  0.1857 -0.0188  0.6021
25059W        W40528   3.913  13.152  15.418  0.3915 -0.3059  0.3048
25060W        W40529  17.851  13.666   4.418  0.0098 -0.1039 -0.1565
25061W        W40530  15.959  18.311  11.464  0.1258  0.0443 -0.0112
25062W        W40531  14.155  10.019   2.773 -0.1498  0.2665 -0.2573
25063W        W40532   0.601  16.697  15.027 -0.0584  0.0764  0.0724
25064W        W40533  16.933   4.489   0.913  0.2283  0.0094 -0.2706
25065W        W40534   0.251  16.580  12.676 -0.1512  0.0633 -0.1117
25066W        W40535   6.661   1.394   4.707  0.1492  0.0021  0.2720
25067W        W40536   1.201   7.900   0.755 -0.2344 -0.0316 -0.1108
25068W        W40537  10.122  14.457   4.501  0.2407 -0.0373 -0.0006
25069W        W40538   7.079   5.577   5.918  0.0655 -0.3871  0.1675
25070W        W40539  18.785  16.939   5.060  0.0215 -0.0069 -0.0456
25071W        W40540  13.305  10.062   4.226 -0.2582  0.0697  0.0429
25072W        W40541  18.771  11.934   0.392 -0.0468 -0.3364 -0.2020
25073W        W40542   9.820  18.783   0.344 -0.1889 -0.2877 -0.0050
25074W        W40543  18.389   3.722  13.722 -0.0891  0.1234  0.1546
25075W        W40544   9.757   9.493  14.360  0.2189 -0.1906 -0.0987
25076W        W40545   8.919  13.154   0.717  0.0291  0.3340 -0.0056
25077W        W40546   3.505  15.888   0.982  0.2711  0.1843 -0.4482
25078W        W40547   4.624   6.824  12.981 -0.0751  0.1213 -0.0022
25079W        W40548  16.017   8.772   2.603 -0.1614 -0.2973  0.1421
25080W        W40549  10.011  16.646   1.269  0.1306  0.1117  0.2651
25081W        W40550   3.466   2.836   3.554  0.2689  0.1269  0.0878
25082W        W40551  11.762  17.701   2.033  0.3276 -0.0679  0.0772
25083W        W40552  15.557  13.203   0.560 -0.4791  0.0216  0.3314
25084W        W40553   3.051  13.062  12.845 -0.1287 -0.0498  0.0362
25085W        W40554   4.029   7.285  12.013 -0.2170  0.0218 -0.2435
25086W        W40555   5.342  10.337   4.404  0.1454 -0.1140 -0.1677
25087W        W40556  18.583  13.094   5.121 -0.1120  0.1549 -0.0624
25088W        W40557  15.046   2.985   3.820  0.0100 -0.1990  0.2374
25089W        W40558  16.714  18.859   3.552  0.1001 -0.2524  0.0032
25090W        W40559  10.580   3.574  15.408  0.1109  0.0684  0.4329
25091W        W40560  16.901   3.862   0.685 -0.0091 -0.2304 -0.2138
25092W        W40561  16.924   0.430  12.897 -0.2722 -0.1778 -0.0135
25093W        W40562   7.105   5.773   0.359 -0.0088 -0.0607  0.1107
25094W        W40563  16.257   7.229   0.473 -0.0025 -0.3072 -0.2470
25095W        W40564  15.864  16.017   2.328 -0.2412 -0.1521  0.1777
25096W        W40565   7.985   6.081   3.248 -0.0535  0.2104  0.0895
25097W        W40566  17.946   8.724   3.023  0.1172  0.2292  0.0178
25098W        W40567  17.945  15.506   3.194 -0.1033  0.2345 -0.1183
25099W        W40568   7.727  14.263   5.183 -0.1001  0.2423  0.2668
25100W        W40569   7.432   0.171  13.389  0.3052  0.2068  0.0054
25101W        W40570   0.251   4.416   1.266 -0.2293 -0.0907 -0.0162
25102W        W40571   5.797  17.211   3.565  0.0803 -0.0635 -0.3931
25103W        W40572   7.162   7.102   9.755  0.1017 -0.2483  0.3125
25104W        W40573   4.741   8.434   3.293  0.1212 -0.1021  0.1712
25105W        W40574   6.581  14.105  14.770  0.2918 -0.2095 -0.0549
25106W        W40575   9.063   2.874   4.601  0.2562  0.2907  0.3059
25107W        W40576   5.730   7.390   1.098 -0.2025 -0.0046 -0.0063
25108W        W40577  15.208   3.564  14.382 -0.1974 -0.0967 -0.1344
25109W        W40578   3.085   9.363   2.407 -0.1653 -0.2469  0.0081
25110W        W40579   6.513  13.272   0.670 -0.5252  0.2742 -0.0543
25111W        W40580   6.666   3.957  13.081  0.3710 -0.0947  0.0365
25112W        W40581   0.963  11.488  14.816  0.0307 -0.1487 -0.1473
25113W        W40582  11.689   0.397  14.265 -0.0479 -0.0656  0.2603
25114W        W40583   1.590   6.585  12.285 -0.2738 -0.0042  0.1283
25115W        W40584  11.332  17.121   2.065 -0.0424 -0.1093 -0.3763
25116W        W40585   8.195   6.709   5.480 -0.1309  0.0013 -0.1129
25117W        W40586   3.920  11.362  14.252 -0.2165 -0.0895  0.1124
25118W        W40587  15.007   2.653  10.532 -0.2278  0.1576 -0.2189
25119W        W40588  15.861   3.803  12.693  0.3180 -0.0564  0.0426
25120W        W40589   9.306  10.710   0.691  0.0565 -0.2926  0.2468
25121W        W40590  18.536   9.410  13.534 -0.1147 -0.1045  0.3779
25122W        W40591   2.981  11.728  14.570 -0.0278 -0.3803 -0.4304
25123W        W40592   4.026  12.694  11.243  0.0968 -0.3359  0.0564
25124W        W40593   4.283  14.493  11.174  0.0585  0.0805 -0.2679
25125W        W40594   2.830  13.464   1.293  0.0395 -0.0467 -0.2877
25126W        W40595  10.876   7.474  10.941  0.0583 -0.0236 -0.0423
25127W        W40596  11.826   5.719  13.152 -0.0991 -0.1868 -0.0282
25128W        W40597   0.674   5.252   2.953  0.1325  0.0438 -0.1922
25129W        W40598   2.922   2.700   2.504  0.1164  0.0681 -0.0690
25130W        W40599   5.076  16.683  15.426 -0.1833 -0.0835  0.4419
25131W        W40600  17.767  10.045  11.796 -0.0021  0.1148 -0.0063
25132W        W40601   5.165  18.875   9.573 -0.0535  0.0520  0.1280
25133W        W40602   3.715  12.532  13.958 -0.0700 -0.0149 -0.0216
25134W        W40603   0.934  11.339  13.270  0.0268  0.4673 -0.2209
25135W        W40604  10.275   8.147   3.047 -0.1020  0.0354  0.4671
25136W        W40605  16.847   5.009  10.548 -0.0010  0.3993 -0.1145
25137W        W40606  10.874  14.496   0.249  0.2012  0.4276  0.1362
25138W        W40607   4.725  18.668  15.462 -0.2673 -0.2093 -0.1498
25139W        W40608   6.875   5.684  11.476  0.0159  0.2899 -0.0546
25140W        W40609  10.501   1.318  10.383 -0.0804 -0.0880  0.1165
25141W        W40610   2.553  17.427  15.103 -0.3892  0.0009  0.0631
25142W        W40611   5.581   2.721   1.473  0.1631  0.2515 -0.1559
25143W        W40612   6.228  17.596   0.418 -0.0860  0.0685  0.0170
25144W        W40613  14.263   3.027   0.577 -0.1125  0.1541  0.1875
25145W        W40614  15.425   4.631   2.571 -0.2706 -0.1942 -0.1994
25146W        W40615  10.518   7.043  13.103  0.0120  0.4640 -0.1319
25147W        W40616  15.602   9.299  12.894 -0.0201  0.2766 -0.4473
25148W        W40617  14.009   6.154   4.516  0.0708 -0.2960 -0.2033
25149W        W40618   8.060  16.553   0.761 -0.1429  0.0630 -0.0741
25150W        W40619   4.720  12.278  14.407  0.1943 -0.1424  0.0942
25151W        W40620   0.152   9.125  10.282 -0.2144  0.2319 -0.0716
25152W        W40621  16.951  16.034  10.298  0.0617 -0.0873  0.1246
25153W        W40622  10.051  10.785  13.335 -0.1449  0.0557  0.6504
25154W        W40623   1.800   6.639  13.542  0.0372 -0.0693 -0.1845
25155W        W40624   0.339   3.313  13.570  0.0200  0.0620  0.1329
25156W        W40625  14.379   4.359   4.214 -0.2593 -0.1512  0.3025
25157W        W40626  17.629  17.242  11.396  0.1706  0.2507  0.2346
25158W        W40627   4.817  13.354  13.554  0.1081  0.1635 -0.0014
25159W        W40628   2.028   5.205   5.494  0.3699 -0.1171 -0.0522
25160W        W40629   0.071  16.070  13.501  0.1891 -0.1818 -0.0399
25161W        W40630   2.018  11.566  13.629 -0.0408  0.2294 -0.0462
25162W        W40631   8.364   8.266   4.169  0.0073 -0.1934 -0.4228
25163W        W40632  12.636   1.236  11.440  0.0576 -0.0373 -0.0306
25164W        W40633  14.919   8.667  14.628 -0.2069 -0.2277  0.0918
25165W        W40634   9.241  12.398   3.873 -0.1004 -0.0735 -0.2279
25166W        W40635   8.180   7.205  10.993 -0.3318 -0.0729 -0.1550
25167W        W40636  18.085   7.476  13.953  0.3176 -0.0937 -0.2484
25168W        W40637  13.660  11.313   5.943 -0.1479  0.0612  0.1377
25169W        W40638  12.997  10.365  15.315 -0.1347  0.1448  0.0341
25170W        W40639   7.787  11.388   1.125  0.0967 -0.0809 -0.0599
25171W        W40640   4.620  13.928  10.774  0.0740  0.0106  0.1936
25172W        W40641  17.398   9.736  14.250 -0.0767 -0.3522 -0.1363
25173W        W40642  16.949  11.928   1.781  0.0792 -0.0685  0.1713
25174W        W40643  13.915  10.881  15.336 -0.0788 -0.1144 -0.0841
25175W        W40644  11.685   4.954   4.226  0.0208 -0.0551 -0.3065
25176W        W40645  18.392   4.279   5.131 -0.0659 -0.2602 -0.3310
25177W        W40646  15.744  16.638   4.627 -0.0841  0.4613 -0.1152
25178W        W40647  16.417  13.331  14.422 -0.0524  0.0772 -0.0853
25179W        W40648   9.462  16.416  13.112 -0.0757  0.6178 -0.2717
25180W        W40649  15.849   7.815   2.564  0.4148 -0.0421 -0.3367
25181W        W40650  10.114  10.329  12.672  0.0618 -0.3563  0.0806
25182W        W40651   4.296  13.473   5.085  0.0462  0.0671  0.1856
25183W        W40652   2.270  12.312  15.124 -0.1752 -0.0050  0.3911
25184W        W40653   1.270   8.164   4.628 -0.1510 -0.2997 -0.1895
25185W        W40654   2.012   1.910  14.958 -0.1029 -0.1164  0.1095
25186W        W40655   6.568  14.033   3.630  0.3268 -0.1690 -0.1785
25187W        W40656  11.313   7.442  10.441  0.0034 -0.3264  0.1541
25188W        W40657   7.641   9.464   4.879  0.3929  0.1223 -0.3630
25189W        W40658  11.024  16.957  12.010  0.2176  0.2750  0.0938
25190W        W40659   8.865   1.320   5.002  0.1321 -0.0301  0.1875
25191W        W40660   3.889  11.778   5.875 -0.1343  0.1115 -0.1193
25192W        W40661   9.780   3.280   0.981 -0.4409  0.0685 -0.0925
25193W        W40662  10.645  11.499  11.972  0.3168  0.0020 -0.0399
25194W        W40663   4.326   2.923  11.522 -0.4258 -0.0269 -0.2899
25195W        W40664   9.758  17.508  11.591 -0.0923 -0.1839 -0.1622
25196W        W40665   6.245  13.340  10.582 -0.4433 -0.6188 -0.0694
25197W        W40666   8.821  11.141   0.866  0.0805  0.2491  0.3906
25198W        W40667   3.724   8.972   1.995 -0.3951  0.0886 -0.1149
25199W        W40668   9.315   7.277  12.047 -0.1058 -0.0143  0.2527
25200W        W40669   0.481   2.874  12.630  0.1362 -0.4488 -0.1964
25201W        W40670  13.146  10.523  14.228  0.0993 -0.0799 -0.1360
25202W        W40671   5.365   4.429  11.319 -0.5187 -0.0003 -0.1056
25203W        W40672   1.518  16.088   2.607  0.2360  0.3716  0.1427
25204W        W40673   6.732  11.188  11.719 -0.1761  0.0982  0.1839
25205W        W40674   6.001  18.218   2.572  0.0541 -0.0465 -0.0064
25206W        W40675   3.333   5.344   4.447 -0.3706 -0.2228 -0.0697
25207W        W40676   8.975  15.105   4.192  0.4168  0.2008  0.6376
25208W        W40677  11.800  11.178   9.652 -0.2807  0.4700 -0.2167
25209W        W40678   7.305   3.651  12.518 -0.6581 -0.1214 -0.0408
25210W        W40679  14.475  15.546   0.446  0.0466  0.0217  0.0751
25211W        W40680   1.071   7.215  11.600 -0.0039  0.2157  0.0401
25212W        W40681  11.117  16.718   1.778  0.1520  0.1923  0.0144
25213W        W40682  11.654   3.783  12.139 -0.1456  0.3590 -0.3638
25214W        W40683   1.901   5.063  12.540  0.0444  0.2810  0.1135
25215W        W40684   7.963   8.512  13.526 -0.1765 -0.0900  0.4134
25216W        W40685   9.138  14.934   5.615  0.1650 -0.3198 -0.1272
25217W        W40686  17.966  16.081   3.816 -0.2455  0.0745  0.1411
25218W        W40687   9.000   0.256  13.537 -0.2894 -0.0783  0.3031
25219W        W40688   6.603   0.361  11.040 -0.0969 -0.2535  0.7149
25220W        W40689   2.577  16.997   3.298  0.0314  0.0783  0.2123
25221W        W40690   4.298   6.247  12.133  0.2015  0.5052  0.1376
25222W        W40691   2.654  13.863  14.708 -0.1037 -0.3697  0.1184
25223W        W40692  14.398   6.598  12.098  0.0173 -0.1860  0.2157
25224W        W40693   5.378  17.733   2.508 -0.1280 -0.1869  0.0292
25225W        W40694  17.301   9.907   0.197 -0.1151  0.0800 -0.0771
25226W        W40695   8.000   8.942   3.214 -0.0662  0.1816 -0.0412
25227W        W40696  11.852   2.179  15.237 -0.1887  0.0366  0.0054
25228W        W40697  16.990   6.498  10.998  0.0286 -0.1937  0.0539
25229W        W40698  15.408   4.445   9.508 -0.2387 -0.0869  0.1044
25230W        W40699   9.385  11.983  11.497 -0.0081 -0.0487 -0.4130
25231W        W40700   1.812   4.860   5.190 -0.0152  0.1202  0.0320
25232W        W40701  13.551   1.214   1.398 -0.1176  0.3481  0.1100
25233W        W40702   7.660  17.474   0.884  0.1064  0.1174 -0.1057
25234W        W40703  13.640   2.343   3.234  0.0046  0.1352  0.1244
25235W        W40704   0.591   7.950  14.886 -0.1678  0.0642  0.5238
25236W        W40705  13.940  10.264  11.295  0.1528 -0.3814 -0.1375
25237W        W40706  10.071   0.132   4.518  0.0178 -0.2365  0.2682
25238W        W40707   7.328   4.156   3.922 -0.0749 -0.0026  0.0394
25239W        W40708   8.732  14.008   2.572 -0.0591 -0.1069 -0.0034
25240W        W40709  16.249   8.909  13.312  0.1426  0.2965  0.2636
25241W        W40710   4.156  13.630  12.595  0.1276 -0.0434 -0.2467
25242W        W40711  16.226   0.251  13.344  0.0426  0.2475  0.0578
25243W        W40712   7.170   5.615  13.116 -0.2066  0.0408  0.1870
25244W        W40713  13.223   8.947  13.388 -0.0072  0.2746 -0.1247
25245W        W40714   1.832  12.285   1.547 -0.0671  0.1984  0.2692
25246W        W40715  15.686  13.158   5.255  0.1104 -0.0197  0.1361
25247W        W40716   6.274   9.017   0.275 -0.1832 -0.1679  0.0684
25248W        W40717  16.883  12.763   5.064  0.1353 -0.0873  0.1188
25249W        W40718  16.417   3.781   3.708  0.1467 -0.0230  0.2785
25250W        W40719   6.846   2.860   0.676  0.2540  0.1624  0.0405
25251W        W40720   1.080   8.556   3.700  0.0420  0.0087 -0.0094
25252W        W40721   1.856   4.545  14.236 -0.2730  0.4209 -0.2863
25253W        W40722   4.799  18.327  15.091 -0.1484  0.2423 -0.0815
25254W        W40723   0.023  11.515  12.959  0.0890 -0.0289 -0.0823
25255W        W40724   2.909  16.347   3.846 -0.3127  0.0308  0.1564
25256W        W40725  10.440   0.350  12.686 -0.2090 -0.1398  0.2868
25257W        W40726   8.735  12.647  13.939 -0.1394 -0.2626  0.2800
25258W        W40727  16.083  14.098   4.957  0.0750  0.0600 -0.1235
25259W        W40728   8.902   8.789  10.795  0.1418 -0.0162 -0.1377
25260W        W40729  11.784  10.074  11.199 -0.0779  0.0864 -0.1712
25261W        W40730  13.253  18.337   2.780  0.0331  0.0290 -0.2181
25262W        W40731   7.253  14.621  15.404  0.1103 -0.3380  0.0010
25263W        W40732  18.340   3.949  12.811  0.0888  0.0629  0.1010
25264W        W40733   4.070   4.660  13.397 -0.1295  0.1660 -0.0176
25265W        W40734  13.104  12.875  12.205 -0.0829  0.0706 -0.1913
25266W        W40735  11.221   2.239   2.045 -0.5697  0.1335  0.0077
25267W        W40736  14.367   5.333  13.308 -0.1031  0.0492 -0.1435
25268W        W40737  15.620  11.362  14.388 -0.1010  0.1670 -0.3184
25269W        W40738   0.913   3.007   3.911  0.0328  0.3103  0.1998
25270W        W40739   8.136  15.595  13.088 -0.0898  0.1437  0.3533
25271W        W40740  14.249  10.231  14.749 -0.0592 -0.0352 -0.4323
25272W        W40741   6.462   3.039   9.534 -0.1019 -0.2061 -0.0547
25273W        W40742  15.269  16.162   3.347 -0.0153 -0.0053 -0.2585
25274W        W40743   5.219  12.785  10.991 -0.0556 -0.2010 -0.0867
25275W        W40744   7.825   4.136  13.022  0.0400 -0.0885 -0.0345
25276W        W40745   0.271   3.169  15.146  0.2480 -0.0341 -0.2277
25277W        W40746  15.186  17.635  14.792  0.1366  0.0682 -0.3533
25278W        W40747  17.530  10.685  13.462 -0.0463 -0.0074  0.2041
25279W        W40748   9.429  14.252   4.587  0.1348  0.3889 -0.1760
25280W        W40749   7.502   8.045  10.806 -0.3364 -0.0698 -0.1856
25281W        W40750   8.953  12.027   1.345 -0.0544  0.1049  0.0065
25282W        W40751  14.831  16.321  12.787 -0.4315 -0.0002  0.0346
25283W        W40752   3.924  11.269   0.256  0.0705  0.3324 -0.1837
25284W        W40753  10.741   5.086  15.214 -0.0919  0.2933  0.0716
25285W        W40754   7.203   0.414   4.829  0.3994 -0.3314 -0.1787
25286W        W40755   2.078   1.831  13.969  0.3290 -0.1721  0.1478
25287W        W40756  13.310  14.163   5.223 -0.4748 -0.2595 -0.0477
25288W        W40757   9.058  10.819  10.407 -0.0912 -0.1843 -0.1455
25289W        W40758   6.333  11.745   0.493  0.1482 -0.4679 -0.1797
25290W        W40759  15.388  15.335  12.476 -0.1127 -0.0633 -0.0381
25291W        W40760  12.190   1.024   4.678 -0.1004 -0.2296  0.3129
25292W        W40761   9.355  11.131  13.101  0.5390 -0.1009  0.0394
25293W        W40762   5.312  10.056   0.301  0.3332  0.1582 -0.1190
25294W        W40763   1.116  12.879  10.736 -0.0255 -0.3569 -0.2103
25295W        W40764  18.122  10.055   3.500  0.2791 -0.0664 -0.0583
25296W        W40765   5.731  11.560   3.549 -0.0462 -0.3201  0.0200
25297W        W40766   7.269   4.129   1.084 -0.1685  0.1009  0.0385
25298W        W40767   9.613  13.430   2.845 -0.0122 -0.1532 -0.1288
25299W        W40768  15.033   4.724  15.020  0.0717 -0.0672  0.2164
25300W        W40769   4.663   2.291  12.691  0.1718 -0.0341 -0.1262
25301W        W40770   2.845  17.894  14.154  0.1138  0.1284 -0.1730
25302W        W40771   1.237  17.864   3.002 -0.0286  0.0015  0.6116
25303W        W40772  17.114   3.278   1.269 -0.1724 -0.1454 -0.0350
25304W        W40773  10.613   6.570  11.505  0.1378  0.2555  0.0285
25305W        W40774  14.231  14.523   2.365  0.2010 -0.0037  0.0500
25306W        W40775  14.688   7.258   3.291 -0.4218 -0.0958  0.0398
25307W        W40776   5.908   1.107  15.394 -0.0589 -0.3157  0.0558
25308W        W40777   5.409  12.849   5.224  0.0965  0.2193 -0.0115
25309W        W40778  13.037  15.273  14.902 -0.5734 -0.0481 -0.1841
25310W        W40779  17.469  13.878  14.161  0.0330 -0.1619 -0.0396
25311W        W40780   6.861  17.488  11.733  0.2126  0.2408 -0.0672
25312W        W40781  15.240  12.524  12.510  0.1333 -0.1975 -0.1003
25313W        W40782   2.601   0.707   0.058 -0.1465 -0.2030 -0.3219
25314W        W40783   6.141  17.902   4.239  0.0901  0.1421  0.0132
25315W        W40784  18.353   3.199   2.469 -0.2700 -0.0514 -0.0724
25316W        W40785  13.954  14.651  15.191  0.1902 -0.3285 -0.1677
25317W        W40786   5.833   7.102   3.116 -0.2202 -0.1224 -0.1682
25318W        W40787  10.001   7.193  13.150 -0.0376 -0.3635  0.0397
25319W        W40788  13.559  15.216  14.320  0.1844  0.1718  0.1717
25320W        W40789  16.717  11.726   0.128  0.2046  0.2444 -0.2696
25321W        W40790  12.480  10.968  12.624 -0.0510  0.3622  0.2469
25322W        W40791   4.589   0.952  14.512 -0.1039 -0.1281 -0.0206
25323W        W40792   9.456   6.459  11.032 -0.1112  0.1100  0.3492
25324W        W40793  18.238  18.067   1.301  0.4684  0.1164  0.0891
25325W        W40794   8.077  13.845   2.446 -0.3068 -0.2904 -0.0335
25326W        W40795  13.686  10.347   4.018 -0.1614  0.0165 -0.1050
25327W        W40796  14.891   3.161  12.692  0.1142  0.1244  0.1657
25328W        W40797  11.266  10.329   1.505  0.3641 -0.0474 -0.2983
25329W        W40798   4.373  15.579  13.321  0.4564  0.0778 -0.4169
25330W        W40799  13.757   5.718  13.771 -0.1039 -0.2546 -0.0546
25331W        W40800   9.375  12.300   5.321  0.2685 -0.1631  0.0026
25332W        W40801  11.494   8.859  10.906 -0.1081 -0.0782  0.1572
25333W        W40802   1.201  16.879   2.713 -0.1163 -0.3715 -0.1476
25334W        W40803  16.833  15.390   4.643  0.0907 -0.1665  0.0830
25335W        W40804  18.207  17.113   0.165 -0.1536 -0.0921 -0.0906
25336W        W40805   5.614  11.064  14.277 -0.1145 -0.3332  0.4689
25337W        W40806  15.695   3.909   1.531 -0.1046 -0.2224 -0.0249
25338W        W40807  15.832  12.654   5.306  0.1005  0.0668 -0.0572
25339W        W40808  10.236  12.138  14.044 -0.0963 -0.1152 -0.0900
25340W        W40809   0.207   9.402   4.111 -0.1709  0.2190  0.2382
25341W        W40810  12.602   1.100   2.027 -0.2799 -0.0086 -0.2687
25342W        W40811   9.104  16.859  13.688 -0.0144  0.0788  0.0010
25343W        W40812   5.857  12.670  11.743  0.0151  0.3381  0.0652
25344W        W40813  13.366   3.325  14.407 -0.0549 -0.1571 -0.2168
25345W        W40814   2.556   2.735  15.093 -0.0389 -0.1018 -0.0192
25346W        W40815  17.001  13.525   0.567  0.4511 -0.0579  0.1195
25347W        W40816   7.009   1.841   1.523 -0.0145  0.4468 -0.0415
25348W        W40817   7.355  13.481   2.964  0.0404  0.2743  0.3774
25349W        W40818  10.079   0.823   5.000  0.1078  0.0691  0.2378
25350W        W40819  18.171   0.790  15.149 -0.1345  0.1397  0.0368
25351W        W40820   3.906   9.218   2.930  0.0925  0.0921 -0.0110
25352W        W40821   4.456  15.718   1.839 -0.1339 -0.1739  0.0922
25353W        W40822  17.805   1.303  12.888 -0.0192  0.2091 -0.2064
25354W        W40823   6.076   1.288   3.872 -0.0922 -0.0329 -0.0713
25355W        W40824  13.280  14.572  12.236  0.0446  0.0143 -0.4156
25356W        W40825  18.805   4.564   0.973  0.1489  0.0551  0.2700
25357W        W40826   1.528  12.451   4.472 -0.2182 -0.0763 -0.1820
25358W        W40827   0.682  17.375  14.902 -0.4380  0.1478  0.1635
25359W        W40828   5.870   3.160  14.066  0.0814  0.4234  0.3619
25360W        W40829   9.152   6.302   9.759 -0.1175 -0.0564 -0.1498
25361W        W40830  15.274  14.705   3.221  0.1074  0.2965  0.3658
25362W        W40831   1.136   8.188   1.523  0.1128  0.0216  0.1802
25363W        W40832   0.586   3.706  14.601  0.0239  0.1638 -0.3449
25364W        W40833  18.476  10.596   2.867 -0.1385 -0.1089  0.0496
25365W        W40834   7.684   1.837   2.353  0.0328  0.0831  0.2697
25366W        W40835  17.542   5.947   5.743  0.3051  0.0039 -0.1589
25367W        W40836   6.988   5.080   2.346 -0.2369  0.0195  0.1319
25368W        W40837   8.800   0.960   1.510  0.0971 -0.2285 -0.0901
25369W        W40838   4.458   4.722   2.606 -0.2641  0.1295  0.0334
25370W        W40839  12.742  15.719   3.644  0.0323 -0.1758  0.1451
25371W        W40840   8.436   0.055  13.493 -0.0750 -0.1021 -0.1700
25372W        W40841   7.248  16.290   3.193 -0.0078  0.1228  0.2592
25373W        W40842   1.061  16.279  10.989 -0.0048 -0.1250 -0.1377
25374W        W40843   0.594  15.795  11.786  0.3541  0.1251 -0.1654
25375W        W40844  17.667  18.358  14.605 -0.1448  0.0718  0.1211
25376W        W40845   6.273   8.989  11.903  0.0578 -0.0243  0.1720
25377W        W40846  13.519  16.880   9.370 -0.0013  0.3416  0.2415
25378W        W40847  12.384   1.560   0.478  0.0636  0.0162 -0.0044
25379W        W40848  10.573  15.038   1.724  0.0753  0.0516  0.0013
25380W        W40849  11.214   0.581  13.422  0.2290 -0.1059  0.1350
25381W        W40850  11.956  17.609   0.539 -0.2748  0.0930  0.0311
25382W        W40851   8.105   8.183  13.957  0.0119 -0.0803 -0.0234
25383W        W40852  13.300   7.229   3.673 -0.0423 -0.1537  0.1389
25384W        W40853  11.339   5.791  15.430 -0.0162  0.2362 -0.0228
25385W        W40854   7.503  16.274  13.029  0.3334  0.0694  0.1853
25386W        W40855  14.529   8.324   3.285  0.0595 -0.3611  0.1987
25387W        W40856   1.659   7.048  10.848  0.1106  0.3380 -0.0278
25388W        W40857  18.708  18.589  13.730 -0.1637 -0.0788 -0.2191
25389W        W40858   9.883   4.900   0.526  0.0285 -0.0675 -0.3091
25390W        W40859  17.878   8.336  12.331  0.2652 -0.4533 -0.0481
25391W        W40860   4.685  12.825  11.789 -0.1587 -0.2874 -0.0452
25392W        W40861  16.294  18.670  13.852  0.1242  0.2723  0.0215
25393W        W40862   3.622  16.063  10.701 -0.0951 -0.0651 -0.3466
25394W        W40863   4.555  17.448  14.965  0.2007 -0.3343 -0.3537
25395W        W40864   5.876  16.150   0.954  0.0032 -0.1724 -0.2228
25396W        W40865   0.723   5.928   5.373  0.2028 -0.0665  0.1639
25397W        W40866  12.736   4.803   3.043  0.4848 -0.0911 -0.2384
25398W        W40867  16.635  15.525  11.720 -0.0694  0.0349  0.0790
25399W        W40868  14.403   9.581   4.185  0.2938 -0.1572  0.0171
25400W        W40869  12.266   8.173  13.210 -0.0890 -0.1174 -0.0847
25401W        W40870   0.234  10.761  13.790  0.1644 -0.1704 -0.1873
25402W        W40871   5.515  16.972  13.879 -0.1075 -0.0793 -0.1196
25403W        W40872   1.676   3.506   0.417 -0.0042  0.3707 -0.1043
25404W        W40873   5.399  11.446   5.374  0.0032  0.4627  0.2748
25405W        W40874   5.807   0.881   2.235 -0.4517  0.1239 -0.1666
25406W        W40875   9.962  11.180   4.302  0.1576  0.3417  0.0974
25407W        W40876   6.468   2.478   1.093 -0.1447 -0.2797  0.2314
25408W        W40877  11.100   4.357  11.463  0.0092 -0.0016 -0.1841
25409W        W40878  18.603   7.489  14.350 -0.4042 -0.0239 -0.2573
25410W        W40879  12.331   4.646  12.605 -0.1701 -0.2632  0.4174
25411W        W40880   9.975  18.727   5.951 -0.0702 -0.2845 -0.2215
25412W        W40881  15.804  11.231  11.757  0.1544  0.0077  0.0298
25413W        W40882  12.966   2.908  14.194 -0.1432 -0.1655  0.0953
25414W        W40883  12.211   5.789  11.954  0.1849 -0.0308 -0.1866
25415W        W40884   2.824  11.859   3.970 -0.1411  0.0175  0.1686
25416W        W40885   4.234  13.915  11.130  0.2131 -0.1145  0.2151
25417W        W40886   4.331   4.689  15.332  0.0423 -0.1864 -0.0425
25418W        W40887   6.008  14.421  14.237 -0.1841  0.1011 -0.0793
25419W        W40888  13.474   8.287  12.354  0.2298  0.1401 -0.1332
25420W        W40889   7.056   9.112  10.337 -0.3846 -0.1788 -0.0962
25421W        W40890   0.387   8.617   4.726  0.0065 -0.0125  0.1262
25422W        W40891   4.825   0.283   5.013  0.3355  0.1684 -0.0734
25423W        W40892  12.219  14.818  11.322 -0.0490  0.0065  0.0950
25424W        W40893  13.906  10.787   3.928 -0.1437  0.3825  0.0164
25425W        W40894   2.334  11.266   3.479  0.0487 -0.0923  0.0403
25426W        W40895   9.227   4.896   0.817  0.0543  0.4463  0.1035
25427W        W40896  11.641   2.150   0.251 -0.2527 -0.0680  0.0836
25428W        W40897  15.343   6.487   4.234  0.2360  0.0269 -0.2683
25429W        W40898  14.763  16.965   1.546 -0.0620 -0.3646 -0.0490
25430W        W40899   8.984  12.412   4.726  0.0632 -0.0183 -0.1616
25431W        W40900  13.138  14.676   0.797  0.2023 -0.0394 -0.0524
25432W        W40901  10.629   1.829  12.434  0.2397  0.0292 -0.1962
25433W        W40902   7.724   1.124  15.111 -0.2560  0.3492 -0.1708
25434W        W40903   0.534  18.869  14.873 -0.1703 -0.2714 -0.2108
25435W        W40904   0.526  18.232  14.251  0.1881 -0.3699  0.4094
25436W        W40905  17.024   5.616   0.706 -0.2064 -0.1677  0.0104
25437W        W40906   3.340   2.219   4.998 -0.0654 -0.0337  0.1265
25438W        W40907   7.309   2.269   2.241  0.2313  0.5153 -0.0299
25439W        W40908  16.133   0.527  13.854  0.3949  0.0745 -0.3560
25440W        W40909  10.408   9.786   5.749  0.2301  0.3135 -0.1028
25441W        W40910   7.262   2.881  13.016 -0.2202  0.0205  0.3474
25442W        W40911   2.814  12.606   0.117 -0.1944 -0.2752  0.2168
25443W        W40912   5.337  10.321   3.297  0.0913 -0.0774 -0.1000
25444W        W40913  11.549   5.442   5.052  0.1769  0.1000 -0.0553
25445W        W40914  10.280  12.125   1.165 -0.0855  0.2406 -0.0880
25446W        W40915  12.072  18.354  12.204 -0.1333  0.0251  0.1937
25447W        W40916  15.040   5.178  11.210 -0.1057 -0.0947 -0.0168
25448W        W40917   0.874   1.228   2.456  0.1696  0.4021 -0.0175
25449W        W40918  18.021   1.527   4.721  0.0955 -0.1394  0.2221
25450W        W40919   8.280  15.190   4.980  0.0444 -0.0712  0.1599
25451W        W40920   8.055   8.717   4.624  0.0522 -0.0645 -0.1711
25452W        W40921   8.802  10.523  13.121  0.0685  0.0356  0.1583
25453W        W40922   8.386   5.085   0.147 -0.1851  0.1226 -0.0567
25454W        W40923   9.122  11.745   5.308 -0.2412  0.0759 -0.1206
25455W        W40924  18.500   1.130   0.860  0.0729  0.0427 -0.1843
25456W        W40925   8.667  11.119  10.107  0.0462  0.0748  0.2557
25457W        W40926   9.415  13.244   1.426 -0.0227  0.1313 -0.2255
25458W        W40927   3.101   2.737  14.702 -0.2644 -0.2140 -0.0839
25459W        W40928   5.468  17.231   1.865 -0.1605  0.0386 -0.1040
25460W        W40929   1.901   4.308  14.861  0.2417  0.1121 -0.1893
25461W        W40930   9.476   2.692  12.652  0.2617 -0.0069 -0.3520
25462W        W40931  12.756   4.191  10.557 -0.2062  0.4543 -0.1442
25463W        W40932   2.382   2.584  11.260  0.3718 -0.0766  0.3685
25464W        W40933  15.631   7.277   5.986  0.0922  0.0428 -0.0743
25465W        W40934  18.231  13.739  11.848 -0.1652 -0.0876 -0.2087
25466W        W40935  18.266  17.382  11.180 -0.2528 -0.4089 -0.0603
25467W        W40936   4.523   3.373   3.688  0.2897  0.0772 -0.3066
25468W        W40937  18.578   3.331   0.971  0.2541  0.0577 -0.1257
25469W        W40938  10.139   4.468   1.255 -0.3062 -0.0642  0.0096
25470W        W40939  11.530  12.159   1.670  0.2089 -0.0003 -0.2104
25471W        W40940   4.464   9.521   0.888  0.2616 -0.2033  0.1551
25472W        W40941   6.461   8.016   0.612 -0.0295 -0.3284  0.1236
25473W        W40942   9.761   7.344   1.113 -0.2325  0.0223 -0.2013
25474W        W40943  13.205   0.947   4.256  0.2143 -0.0044 -0.1145
25475W        W40944  17.386  11.619   1.638 -0.2160 -0.0125  0.0675
25476W        W40945  11.164   8.263  14.027 -0.1980  0.1957  0.0566
25477W        W40946   8.362  14.767   0.685  0.1699 -0.1559 -0.0438
25478W        W40947   0.146  11.378  10.775  0.0644  0.1971  0.1608
25479W        W40948  12.542  12.062  10.879  0.0003  0.3245 -0.2087
25480W        W40949   7.734  11.448   3.053 -0.0354  0.1491 -0.2109
25481W        W40950  17.864  12.515  14.854  0.0081  0.0651 -0.1819
25482W        W40951  16.867  14.282   2.497  0.3784  0.1402  0.0451
25483W        W40952  14.500  10.058   3.215 -0.1149  0.0400  0.2709
25484W        W40953   6.038   9.922  15.055  0.2214  0.0797 -0.1725
25485W        W40954  11.573   9.412   2.677  0.0400  0.0785  0.2781
25486W        W40955  17.277  18.280  14.930  0.0707 -0.1225 -0.3659
25487W        W40956   8.528   8.896   5.609  0.0038 -0.3456 -0.2878
25488W        W40957  16.332  11.815   0.475 -0.4919 -0.0055  0.1334
25489W        W40958  10.800  16.041  11.811  0.3623 -0.0434  0.0385
25490W        W40959  18.389  12.741   1.828  0.0114  0.0085  0.0652
25491W        W40960  14.874   9.679  12.076 -0.1426  0.1831 -0.1229
25492W        W40961  17.507  13.274  15.368 -0.1117  0.2874  0.1688
25493W        W40962   4.530   6.753   2.760 -0.0434  0.3809 -0.0871
25494W        W40963   7.338   0.602  11.782  0.0684  0.3394 -0.2211
25495W        W40964   5.203  16.508   9.752  0.1435  0.0768  0.2603
25496W        W40965   8.282   5.522   4.285  0.0992  0.3413 -0.0006
25497W        W40966   0.482   7.466  10.885 -0.2582  0.1566 -0.3531
25498W        W40967   6.822  11.582   0.622 -0.0517  0.2676  0.0472
25499W        W40968  16.905  17.543   3.232 -0.2519 -0.1127 -0.3139
25500W        W40969   4.809   4.293  15.101  0.0365 -0.1228  0.2177
25501W        W40970  11.355   3.641  13.119 -0.3023 -0.1792  0.1221
25502W        W40971  15.657  13.800  10.902  0.4749 -0.1732 -0.3235
25503W        W40972   7.214   8.765  14.464  0.1634 -0.0353 -0.0315
25504W        W40973  13.090   6.156  14.048  0.0459  0.0724  0.0150
25505W        W40974   7.604   1.512   0.640  0.2314  0.2593 -0.0615
25506W        W40975   7.317   6.046   0.034 -0.2874  0.1620  0.1080
25507W        W40976  14.332  16.623   4.476 -0.2967 -0.0459 -0.2030
25508W        W40977  15.165  12.920   1.201  0.0269 -0.2408  0.0155
25509W        W40978   5.025   9.939  11.979  0.1733 -0.2477  0.2415
25510W        W40979   3.237  16.254   1.915  0.1097  0.0133  0.3018
25511W        W40980   8.306   8.717  12.704  0.3692  0.0199 -0.0176
25512W        W40981   4.271   6.987  10.838  0.3176 -0.0468 -0.1476
25513W        W40982   4.484  17.701  14.124  0.2566  0.0640 -0.0802
25514W        W40983  10.607  17.590   1.914  0.3901  0.1763 -0.1348
25515W        W40984  14.455  13.192  11.627  0.5209 -0.0192 -0.1064
25516W        W40985   8.005   3.302   3.161  0.0749 -0.2093  0.0517
25517W        W40986   1.568   9.365   2.016  0.1241  0.1118  0.3935
25518W        W40987   4.017   0.054   1.575  0.2938 -0.0048  0.1015
25519W        W40988   0.039   0.773  12.327  0.0346 -0.0413  0.0246
25520W        W40989  14.017  17.255  11.994  0.0266  0.1053 -0.1002
25521W        W40990   2.858   2.919   4.263 -0.0143 -0.0680 -0.1955
25522W        W40991  18.029  16.340   2.128  0.2233 -0.2115  0.1133
25523W        W40992   3.848  10.004  15.258 -0.0834 -0.3452 -0.1199
25524W        W40993  14.769   1.065  12.001  0.0609 -0.0108 -0.0755
25525W        W40994  12.753  11.645   1.078 -0.1618  0.1382  0.0711
25526W        W40995   6.130   5.018  11.041 -0.3481 -0.2552 -0.1548
25527W        W40996   4.856  11.987   2.641 -0.3026  0.2357 -0.4260
25528W        W40997  11.310  16.344   0.005 -0.2319  0.0742  0.0798
25529W        W40998   8.786   3.780   3.100 -0.0758 -0.0302 -0.1884
25530W        W40999  11.215  16.308  11.900  0.1632 -0.1993 -0.1785
25531W        W41000   2.087  10.733   3.450  0.0987 -0.0634 -0.1779
25532W        W41001  13.881   6.242   2.186 -0.1652 -0.2253 -0.2078
25533W        W41002  14.728   6.186  15.471 -0.0420  0.3455  0.2029
25534W        W41003   2.386  15.286   1.537  0.0709  0.0633  0.3675
25535W        W41004   0.280   6.992   3.480  0.3601 -0.2939 -0.4338
25536W        W41005  15.068   0.057  13.880 -0.1719  0.2861 -0.0193
25537W        W41006   0.324   8.488  12.431 -0.1782  0.1331 -0.3595
25538W        W41007   2.385   6.421   2.859  0.0390 -0.0207 -0.0214
25539W        W41008   0.045  11.094  11.192 -0.3196  0.0749  0.0428
25540W        W41009  15.528  13.229  12.869  0.2871 -0.0541  0.0685
25541W        W41010   9.843  17.399   4.914  0.0705  0.2573 -0.4336
25542W        W41011   7.248   7.403   0.459  0.1618 -0.0390 -0.5495
25543W        W41012   0.272   4.223   0.413 -0.1433 -0.0058  0.1285
25544W        W41013  12.831   0.342  12.712 -0.1760 -0.0508  0.0274
25545W        W41014  16.438   1.758   2.008  0.1392  0.1496  0.0952
25546W        W41015   3.942   4.997  14.415 -0.0729 -0.0218  0.1325
25547W        W41016   1.385  17.102  11.250 -0.0882  0.0077 -0.1195
25548W        W41017  16.643   8.203   3.711 -0.2714 -0.1171  0.1887
25549W        W41018   1.016   3.001   5.076 -0.0348 -0.2515  0.3108
25550W        W41019   6.746   7.165  11.977 -0.4711  0.0117 -0.0716
25551W        W41020   8.315  16.923  13.817 -0.1731  0.0357  0.2624
25552W        W41021  10.241  17.679  13.985 -0.0306  0.1390 -0.1248
25553W        W41022   6.384   9.409  12.115  0.0762  0.1148 -0.3921
25554W        W41023   6.474  12.002  14.710 -0.1440  0.2496 -0.1057
25555W        W41024   5.745   7.008   0.327  0.3155  0.0865 -0.4411
25556W        W41025   5.481   4.915  12.400 -0.2883 -0.2064  0.4185
25557W        W41026   9.306  13.880  11.209  0.1845  0.3450 -0.2075
25558W        W41027   6.474   5.132   2.068  0.1655 -0.2379  0.0828
25559W        W41028   5.393   0.478   2.378 -0.0335 -0.0803  0.1544
25560W        W41029  16.356   4.025  12.781  0.0357  0.0693 -0.2164
25561W        W41030   5.193  12.948   2.038  0.0781 -0.1180 -0.0316
25562W        W41031   9.461   1.035  14.396 -0.1236  0.1442  0.1192
25563W        W41032  15.985  14.587  13.231  0.1364  0.2912 -0.3036
25564W        W41033   3.665   1.226   4.048 -0.2125 -0.0790 -0.1590
25565W        W41034   2.746  18.918   0.893  0.1078 -0.1485 -0.1162
25566W        W41035   9.398   8.442   1.832  0.1084  0.1173 -0.1900
25567W        W41036   8.013   5.879  11.854 -0.1584 -0.1816  0.1482
25568W        W41037   0.651   5.463   0.779 -0.0232  0.0397  0.2501
25569W        W41038  11.064   2.794  12.568  0.4511  0.2020  0.1569
25570W        W41039   7.217   8.159  13.081 -0.0942  0.0759 -0.2211
25571W        W41040   9.615  13.639   3.395 -0.0896  0.1142 -0.2279
25572W        W41041  11.634  16.472   4.510 -0.2584  0.0405  0.3483
25573W        W41042  12.886  17.942  12.302  0.1959  0.2820  0.2909
25574W        W41043  17.401   9.411   2.514 -0.0484 -0.0830  0.1592
25575W        W41044  12.873  14.542  13.099  0.0625  0.0583  0.2167
25576W        W41045   1.923   3.714   3.948 -0.0480 -0.1016 -0.2970
25577W        W41046   5.755   0.160   4.766 -0.0819  0.0509 -0.1154
25578W        W41047  11.915   3.322  11.250  0.0508 -0.0734 -0.1711
25579W        W41048  15.045  16.373  14.159  0.0931 -0.2353 -0.1010
25580W        W41049   5.327  14.406  15.182  0.1018  0.0808  0.0385
25581W        W41050  18.117   1.957  13.751 -0.1186 -0.4416  0.2980
25582W        W41051   3.009  10.808  13.591 -0.1737  0.2561 -0.1217
25583W        W41052  16.716   4.685   5.189 -0.1158 -0.0899  0.1264
25584W        W41053   5.365   8.121  10.743  0.0283  0.2179 -0.0487
25585W        W41054  17.149   3.120   0.703 -0.0672 -0.0286  0.0117
25586W        W41055   5.294  11.829   3.553 -0.2247 -0.0933 -0.0668
25587W        W41056  12.908   6.594  12.733 -0.2509 -0.4980  0.1405
25588W        W41057  18.197   5.211   0.078 -0.0880  0.1404 -0.0278
25589W        W41058  11.114   7.581  12.267  0.3827 -0.1329  0.1920
25590W        W41059  10.073   7.499  11.644 -0.2293  0.2200  0.1762
25591W        W41060   4.330   4.418   3.654  0.0900  0.1266 -0.0283
25592W        W41061  14.748   6.506  14.259 -0.1163 -0.0159 -0.2386
25593W        W41062   2.243  10.048   0.473 -0.1553 -0.0653  0.0990
25594W        W41063  12.331   6.162  14.672  0.1685  0.2258 -0.2190
25595W        W41064  10.076  13.492   4.834  0.1386 -0.1129  0.0464
25596W        W41065   7.611  13.717  11.910 -0.0161  0.1984 -0.1336
25597W        W41066   5.179   6.981   4.388 -0.1534 -0.3161 -0.0112
25598W        W41067   6.290   1.150   5.085  0.3813  0.1531  0.2275
25599W        W41068  14.534   2.925  13.240  0.0795  0.1407 -0.2927
25600W        W41069   2.341  13.221  15.084 -0.0744  0.2210  0.2215
25601W        W41070  15.495   4.463  13.153  0.0380  0.5497 -0.2536
25602W        W41071  16.689   6.658  14.579 -0.0208  0.3770  0.4783
25603W        W41072   1.569   8.858  12.909  0.0701 -0.0878  0.0216
25604W        W41073  17.354   0.363  12.618 -0.1386 -0.0318 -0.0911
25605W        W41074   6.050  10.968  10.975 -0.0350  0.2326 -0.1480
25606W        W41075   7.270  15.410   5.845 -0.1923 -0.1312 -0.0975
25607W        W41076  18.105   5.930   0.727  0.0135 -0.1334 -0.4072
25608W        W41077   5.105  13.884  15.356 -0.2983 -0.4556 -0.0887
25609W        W41078  10.516  12.172   2.056  0.1240 -0.0074  0.1151
25610W        W41079   1.523  17.805   1.516 -0.0880  0.0522  0.1621
25611W        W41080   4.597  15.963  13.594 -0.0385 -0.0324 -0.2132
25612W        W41081   7.483  18.318  15.312 -0.1986 -0.3477 -0.1212
25613W        W41082   7.332  12.626   0.292 -0.1849  0.0329 -0.3334
25614W        W41083  16.770   8.110   5.127  0.1655 -0.0626  0.2601
25615W        W41084  11.919   1.588   0.986  0.1821  0.0375 -0.0946
25616W        W41085  11.762  18.744   0.569  0.1033 -0.0684 -0.0153
25617W        W41086  10.325   9.302  11.275  0.0579 -0.3173  0.2420
25618W        W41087   2.157   9.473  14.518  0.3214 -0.1398 -0.0194
25619W        W41088   3.369   8.314  11.868  0.0313 -0.0785 -0.2120
25620W        W41089  15.280   7.187   5.058 -0.2644  0.0178  0.0436
25621W        W41090   9.199  18.710  15.006 -0.0848  0.2002  0.1029
25622W        W41091  11.061   5.014  12.353  0.0577  0.1723 -0.2300
25623W        W41092   3.524  14.512  11.272 -0.1716  0.0209 -0.2357
25624W        W41093   8.155   8.838  14.650 -0.1392 -0.2441 -0.2648
25625W        W41094  10.639  14.475   4.868 -0.3379 -0.1987 -0.2006
25626W        W41095   2.587  12.871  11.571 -0.0878 -0.2179  0.1580
25627W        W41096   8.576  16.167   0.053 -0.0903 -0.2641 -0.1525
25628W        W41097   5.559   7.176  14.444 -0.6222 -0.1382  0.0919
25629W        W41098   6.271  15.153   4.830 -0.1926 -0.2892 -0.0759
25630W        W41099   5.322  14.843   4.239 -0.0123  0.0105  0.2959
25631W        W41100   5.258   3.141  13.965 -0.2934  0.1018  0.0531
25632W        W41101  10.860  13.419  13.024 -0.1457 -0.5147 -0.2085
25633W        W41102  15.774   0.591  15.080  0.0236 -0.0052  0.0580
25634W        W41103  11.624   4.317   2.092  0.3555  0.3242  0.0708
25635W        W41104  18.429   5.403  11.852  0.1193 -0.1335 -0.2125
25636W        W41105   1.378  16.404   4.590 -0.3634  0.0187 -0.0897
25637W        W41106  10.139  12.123  10.248  0.3427 -0.0642 -0.1254
25638W        W41107   5.970   7.525  14.798 -0.0548  0.0724  0.0262
25639W        W41108  17.329  10.569  10.822  0.0944  0.1234  0.4070
25640W        W41109  10.392  14.039  12.028  0.2242 -0.0504  0.0465
25641W        W41110  15.660   3.096   5.021  0.1090 -0.2222 -0.2995
25642W        W41111  17.421   7.677   3.168  0.0614 -0.4101 -0.1544
25643W        W41112  10.264   8.927  11.605 -0.1796  0.0968  0.0276
25644W        W41113   0.280   0.574   4.385  0.0376 -0.4623  0.1925
25645W        W41114  13.048   2.680   1.514 -0.2409  0.0642  0.0870
25646W        W41115  12.294  14.032   0.758 -0.2155 -0.1993 -0.0260
25647W        W41116   2.257  18.718   4.250  0.1870  0.4673 -0.3678
25648W        W41117  16.093  15.688  14.481  0.1905  0.1926 -0.2337
25649W        W41118   6.455  12.066  12.109  0.0990 -0.2280  0.0966
25650W        W41119   4.609   5.956  13.429 -0.0414  0.0647  0.1014
25651W        W41120  17.588  17.470   5.732 -0.1383  0.2610 -0.1944
25652W        W41121  16.080   1.107  14.984  0.0885 -0.0500  0.1499
25653W        W41122   6.682   3.613   1.895  0.0162 -0.1624  0.2658
25654W        W41123  10.210  11.771   0.742  0.1033 -0.1554 -0.4344
25655W        W41124  10.972  15.693  13.231 -0.2059  0.0471  0.0968
25656W        W41125   7.156  10.452  13.445  0.1479  0.0806  0.2119
25657W        W41126  10.894   5.953   2.233 -0.4131  0.1553  0.2042
25658W        W41127   8.578   2.108   3.472  0.1688 -0.2516  0.4931
25659W        W41128   3.224   2.350  12.773  0.1065  0.5939 -0.2131
25660W        W41129  15.118  17.375   3.527  0.0779  0.3187  0.2368
25661W        W41130   6.934   1.119  14.502  0.2984 -0.3918 -0.3038
25662W        W41131   0.079   0.829  13.232 -0.2828 -0.0990  0.1470
25663W        W41132   8.417  18.186   3.416 -0.0236  0.3609  0.3057
25664W        W41133   1.401  17.752  14.173  0.0911  0.1832 -0.2058
25665W        W41134  11.809  12.669  14.417 -0.2821  0.0821  0.1723
25666W        W41135   6.728  15.717   2.593  0.0221 -0.2111  0.1538
25667W        W41136   7.385   6.929  10.650  0.1568 -0.1761 -0.2413
25668W        W41137  12.402   3.140   5.593 -0.1847 -0.3334 -0.1129
25669W        W41138   8.481   3.564   3.430  0.0939  0.1499 -0.0300
25670W        W41139   1.171   6.386  12.018  0.0866  0.1185 -0.1717
25671W        W41140   4.266  18.173   0.463  0.2533 -0.4896 -0.1428
25672W        W41141   3.291   6.852  11.770 -0.0446  0.1336  0.0315
25673W        W41142  10.133  17.145  12.770 -0.0349  0.2328  0.2573
25674W        W41143   3.123  15.431  10.511 -0.1653  0.0977 -0.1888
25675W        W41144  10.693   5.113  10.380 -0.1320  0.0355 -0.1254
25676W        W41145   7.100   5.649   2.200  0.2854  0.0154  0.0546
25677W        W41146   3.818  12.863  11.676 -0.1443 -0.0600 -0.0661
25678W        W41147  14.195  14.402   1.650  0.0177 -0.1751  0.3224
25679W        W41148   5.779   8.921  11.597  0.0323 -0.2480  0.1494
25680W        W41149  15.252  14.752   5.410  0.0537  0.0564 -0.3892
25681W        W41150  11.525   3.662  11.330 -0.1824  0.2037  0.2219
25682W        W41151  17.768  11.197   4.539 -0.2937  0.1019  0.1142
25683W        W41152   9.679  10.025   2.263  0.0423 -0.3101 -0.1978
25684W        W41153  13.941  15.617   1.137 -0.3377 -0.1679 -0.0142
25685W        W41154  14.181   4.412   3.284  0.1049  0.1309  0.0105
25686W        W41155  16.481  13.773  12.738  0.1091 -0.1998 -0.0302
25687W        W41156  18.235  14.044  14.319 -0.4240  0.0721 -0.1986
25688W        W41157  11.443  16.221  13.461 -0.1367 -0.2371 -0.1334
25689W        W41158   4.935  13.421   4.052  0.2237  0.1145 -0.0087
25690W        W41159  13.285  13.517   4.109  0.1601 -0.0161 -0.1352
25691W        W41160  18.038   7.233   3.272 -0.0342 -0.2936 -0.1028
25692W        W41161  16.645   3.995  11.246 -0.1053 -0.4080 -0.4582
25693W        W41162   4.293  16.264   3.692 -0.1132 -0.0536  0.1646
25694W        W41163   9.093   8.592   9.825  0.1945  0.2916  0.0746
25695W        W41164  12.830  18.723  14.556  0.0990 -0.1468  0.1673
25696W        W41165   2.326  17.418   2.919 -0.1729  0.1071 -0.1312
25697W        W41166   4.731   8.202  12.485 -0.1672  0.1362  0.0245
25698W        W41167  12.083   9.342   5.285 -0.1114  0.0316 -0.3548
25699W        W41168   4.918  15.951  14.038 -0.1000  0.1054  0.0815
25700W        W41169   7.082  17.267  14.873  0.0860 -0.1283  0.0263
25701W        W41170   5.221  17.839  14.272  0.0141  0.1225 -0.0499
25702W        W41171   8.006  12.439   3.880  0.2832 -0.0286 -0.2443
25703W        W41172   0.305  10.371  14.171  0.0984 -0.2068  0.0756
25704W        W41173   3.907  10.441   0.563 -0.0459  0.1875  0.0197
25705W        W41174  10.798  14.509   3.087 -0.1839  0.2619 -0.1543
25706W        W41175  11.850   1.154   1.506 -0.2264  0.1767  0.0552
25707W        W41176  17.871   4.129   4.201 -0.1186 -0.1259 -0.1710
25708W        W41177   7.539  17.481   4.163 -0.0469 -0.2294  0.3784
25709W        W41178  11.261   8.211  12.505 -0.0233  0.0640 -0.0008
25710W        W41179   0.176  13.515  13.558  0.0652  0.4104  0.1861
25711W        W41180   4.609   5.135   3.549  0.1236 -0.1644  0.0365
25712W        W41181  11.622  10.861  11.144  0.1034  0.0816 -0.0303
25713W        W41182   7.231  10.553   1.493  0.0330 -0.0305  0.0416
25714W        W41183   9.230  10.502  14.870 -0.1977 -0.1886 -0.0163
25715W        W41184  12.738  18.391  12.110 -0.0583 -0.1096  0.0171
25716W        W41185   7.171   0.558   5.596  0.1380  0.3774 -0.1026
25717W        W41186   4.168  14.495   4.289  0.0702 -0.1383 -0.1367
25718W        W41187   2.471   2.799   3.185  0.2018 -0.0416  0.0090
25719W        W41188  16.844   3.523   4.881 -0.4472 -0.0161  0.1849
25720W        W41189  13.423  14.055   4.743  0.1581  0.1040 -0.0303
25721W        W41190   1.649  15.906   3.117 -0.1149 -0.1738 -0.2052
25722W        W41191   2.763   7.022   9.537  0.3364 -0.2297 -0.1242
25723W        W41192  14.837   8.044  12.309  0.0409  0.0854  0.2456
25724W        W41193  11.758   1.151   3.322 -0.1459 -0.0336  0.0686
25725W        W41194  18.893   6.481   3.168  0.0927 -0.2035  0.0768
25726W        W41195   4.770   2.533  10.545 -0.3303 -0.1365 -0.0349
25727W        W41196  10.378   0.273  10.869  0.1338  0.0622  0.0473
25728W        W41197   5.511  11.307   2.541 -0.0380  0.1130  0.2903
25729W        W41198   2.315   3.194  12.515  0.0779 -0.0018 -0.0534
25730W        W41199  16.542   9.394   5.599  0.1706 -0.1585  0.2301
25731W        W41200   8.673   0.826  10.799  0.2962 -0.0865 -0.3406
25732W        W41201   5.694   5.010  11.391  0.0634  0.1924 -0.1669
25733W        W41202  15.506  14.913   2.617  0.1327  0.4079 -0.0237
25734W        W41203   8.996  16.208   2.419 -0.1516 -0.1229  0.4541
25735W        W41204  14.602   9.357  11.156 -0.2481  0.2672  0.0589
25736W        W41205   9.141  13.207   2.195 -0.1826  0.0967 -0.2441
25737W        W41206   0.674   6.439  13.802 -0.2458  0.0715  0.1948
25738W        W41207  14.658   1.837  14.659  0.0788  0.2339  0.1055
25739W        W41208   4.304  12.741   1.201 -0.0946 -0.1241 -0.1603
25740W        W41209  14.970   9.946   1.505  0.1706  0.1397  0.1375
25741W        W41210  17.136   5.572   1.813 -0.0585 -0.0775 -0.0590
25742W        W41211   9.655   8.448  12.643  0.1722  0.1842  0.1275
25743W        W41212  17.598  14.302  14.969  0.0150 -0.1940 -0.1760
25744W        W41213  11.704  13.697   2.574 -0.3838  0.0797  0.2290
25745W        W41214   0.466   2.657  10.639 -0.2113  0.1015  0.3869
25746W        W41215  11.035  15.226  13.365 -0.2226  0.4446 -0.0925
25747W        W41216   8.768   8.945   3.060  0.1493  0.1691  0.0171
25748W        W41217   6.065  11.902   2.362  0.0534 -0.4636  0.1383
25749W        W41218   5.121   5.563  11.989 -0.0601  0.1184  0.3423
25750W        W41219  10.848   9.578  13.509  0.0972  0.3355 -0.2275
25751W        W41220   3.392   2.785   2.824  0.3220  0.1040  0.0867
25752W        W41221  14.303   9.591   3.009  0.1598  0.3080  0.4012
25753W        W41222  16.605   6.514  15.074 -0.1890  0.0675 -0.0823
25754W        W41223  15.174   9.837  11.613 -0.2150 -0.1148  0.3006
25755W        W41224   8.509   4.462  12.014  0.0234  0.0587 -0.0635
25756W        W41225   1.528  10.692  14.945  0.0324  0.0384  0.0839
25757W        W41226  17.064  11.236   3.834  0.1533  0.1779 -0.0240
25758W        W41227   7.842   5.665   0.890 -0.0481 -0.1376 -0.0631
25759W        W41228   9.255   8.667  11.651 -0.2400  0.1969 -0.2736
25760W        W41229   8.041   2.669  13.295 -0.0536  0.1247  0.0771
25761W        W41230  15.792  13.587   3.237  0.0915 -0.1077  0.0313
25762W        W41231  13.108   5.517  10.747  0.1126 -0.2332 -0.1502
25763W        W41232  13.636   5.612  10.459 -0.0820  0.2306  0.1616
25764W        W41233  15.383   8.507   1.496 -0.1427 -0.3301  0.0708
25765W        W41234  11.477   5.598  14.376  0.4342  0.0326  0.1169
25766W        W41235   6.435   2.806  12.903 -0.1724  0.1941  0.2154
25767W        W41236  18.794   0.304   5.965 -0.0069  0.0265  0.1556
25768W        W41237   6.638   3.331   2.742  0.1306  0.1179  0.2522
25769W        W41238   9.627  16.350   3.595  0.1830 -0.2167  0.2433
25770W        W41239   3.005  10.032  11.687  0.1042  0.1178  0.0506
25771W        W41240  18.086  15.333  14.475  0.0602 -0.3791 -0.0051
25772W        W41241  12.039  16.632  14.187  0.0830 -0.4768 -0.1439
25773W        W41242   9.874   0.021  14.957 -0.0707 -0.2129  0.2838
25774W        W41243  16.474  14.076  10.447  0.0159  0.2694  0.0189
25775W        W41244  16.142  15.792  12.706 -0.0283  0.1164 -0.1162
25776W        W41245   9.710   5.160  14.185  0.0291  0.1989 -0.0166
25777W        W41246  10.584  16.961   5.346  0.2948  0.0185  0.1976
25778W        W41247   8.752  15.085  13.586 -0.2116  0.1874 -0.1321
25779W        W41248  15.093   9.455   1.339 -0.0480  0.1761 -0.2512
25780W        W41249   1.071   5.799   0.740  0.0107 -0.1762  0.0025
25781W        W41250   5.216   8.518  14.493 -0.0758 -0.1230  0.1160
25782W        W41251   4.522  17.943  14.912  0.1889 -0.2809  0.0467
25783W        W41252  17.967  10.915   3.963  0.0415 -0.0048 -0.0847
25784W        W41253   3.205   2.332  11.709 -0.0619 -0.3705 -0.0944
25785W        W41254   7.836   7.622  13.407  0.0349  0.2884  0.4226
25786W        W41255   3.100  15.361  14.698 -0.0156  0.2251 -0.0365
25787W        W41256  14.115   2.702   4.246  0.0748  0.1013 -0.0113
25788W        W41257   0.986   8.282  10.736 -0.1840 -0.0415  0.2054
25789W        W41258  12.679   9.791  10.890 -0.2336 -0.2154 -0.2041
25790W        W41259   2.807  18.248   5.098 -0.0006 -0.0610 -0.0378
25791W        W41260   1.601  17.957  13.763 -0.1622  0.0262  0.0757
25792W        W41261   0.538  18.924  12.152  0.0801  0.0787 -0.1311
25793W        W41262   9.067  17.252   2.071  0.1837  0.1423 -0.2648
25794W        W41263  16.524   2.396  14.788 -0.0616  0.1898  0.0855
25795W        W41264   1.568   5.754   0.853  0.3346 -0.2992 -0.3803
25796W        W41265  11.597  10.833  12.294  0.1956  0.0547  0.2536
25797W        W41266  11.937   6.255   3.276 -0.1248  0.0993  0.1359
25798W        W41267  15.247  18.121   4.387 -0.2021 -0.0096 -0.0085
25799W        W41268   4.610  15.058  12.133  0.3333 -0.3442 -0.1246
25800W        W41269  11.517   3.698   1.193  0.3331  0.0457 -0.2554
25801W        W41270   2.788   1.869  12.187  0.0750  0.1163  0.2734
25802W        W41271   9.650  15.101  12.432 -0.1238  0.0606  0.2249
25803W        W41272  14.650   7.383   2.720  0.0492  0.2048 -0.0164
25804W        W41273  13.883   5.276   1.848  0.1542 -0.0032 -0.0065
25805W        W41274   2.940   8.463  14.747 -0.1835 -0.0179  0.2200
25806W        W41275   3.827  12.311  14.404  0.2142  0.3564 -0.2267
25807W        W41276  10.563  15.518   1.911 -0.0291 -0.0036 -0.4063
25808W        W41277   8.214   4.076  14.898 -0.6316  0.1154 -0.0140
25809W        W41278   2.956  11.409   2.442 -0.1426  0.1176  0.0481
25810W        W41279  14.953   9.056   5.015  0.1570 -0.3224  0.0001
25811W        W41280  10.898   9.477  11.950  0.0312 -0.0558 -0.0108
25812W        W41281  10.331  14.124  12.590  0.0984  0.0701 -0.3007
25813W        W41282   0.412   4.893  10.955 -0.0016  0.0423 -0.1620
25814W        W41283  11.175   0.465   3.067 -0.0084 -0.2017  0.2829
25815W        W41284   9.276   1.465   4.603 -0.1871 -0.3306 -0.1171
25816W        W41285   4.724  12.991   3.811  0.0653 -0.0448 -0.6360
25817W        W41286   3.718  10.774   0.228 -0.3549 -0.0965  0.1340
25818W        W41287  11.200   6.397  14.975 -0.4814 -0.0371  0.2358
25819W        W41288   2.149   4.184   0.235  0.1240 -0.1863  0.0832
25820W        W41289   8.198  12.480  12.765 -0.0411  0.3828  0.0459
25821W        W41290  10.235  17.045   2.446 -0.4309 -0.2594 -0.3244
25822W        W41291   6.741  13.312   3.536 -0.2368  0.2615 -0.2729
25823W        W41292  11.740  10.289   3.783  0.1678 -0.1336 -0.2625
25824W        W41293   6.955   5.773  14.583  0.1269 -0.2718  0.3046
25825W        W41294   2.575   1.798  11.410  0.2893  0.1559  0.1420
25826W        W41295  15.000   6.587   0.055 -0.2231 -0.1491 -0.0183
25827W        W41296   7.718   4.311   3.075 -0.2843  0.1256 -0.0801
25828W        W41297  18.014  12.673  13.364 -0.0830  0.0643 -0.0810
25829W        W41298  13.301   5.845  13.638  0.2084  0.3869  0.1830
25830W        W41299  12.027   6.943   4.800 -0.0851 -0.2645 -0.0953
25831W        W41300  18.487  10.808  14.994 -0.0680  0.1576  0.4574
25832W        W41301  14.331   5.795  12.424 -0.2222 -0.2537 -0.1160
25833W        W41302   1.782  15.336   0.841  0.0443  0.0733 -0.1943
25834W        W41303   8.346   5.855  12.238  0.4626  0.1411 -0.1912
25835W        W41304  18.400   0.861   0.304  0.2348 -0.0102  0.3670
25836W        W41305  14.125  15.055   3.174  0.2841 -0.0810 -0.0944
25837W        W41306   3.591  16.608   2.658 -0.4003 -0.1224  0.1381
25838W        W41307  17.470   3.057  13.243  0.0166 -0.0560 -0.3300
25839W        W41308  15.644   9.447   2.365 -0.1290 -0.1809 -0.1543
25840W        W41309  16.450   2.303   0.224  0.3003  0.2512 -0.1132
25841W        W41310  11.246  15.080  12.868 -0.0107  0.0499  0.0263
25842W        W41311   9.157  16.242  11.416  0.4097  0.2794 -0.1215
25843W        W41312  11.270   1.120   4.747  0.4018  0.3725 -0.0360
25844W        W41313  17.355   1.768   0.842  0.2396  0.2099  0.1241
25845W        W41314  17.781   2.229  11.086  0.1693 -0.1550  0.1647
25846W        W41315  16.038  13.636  12.808  0.0134 -0.3047  0.1907
25847W        W41316   9.333   3.499  15.137 -0.4371 -0.0593 -0.2255
25848W        W41317   4.864   4.012   4.438 -0.4304 -0.2455 -0.0406
25849W        W41318   2.305   9.867  11.008 -0.1307 -0.0589  0.6937
25850W        W41319   5.950   0.852   4.197  0.1058 -0.4136  0.0301
25851W        W41320   5.646   2.449  15.473  0.0224 -0.1823 -0.1343
25852W        W41321  10.258  15.879  10.510 -0.3583  0.3252  0.1342
25853W        W41322   2.100  11.120   2.980 -0.1121  0.1732 -0.0527
25854W        W41323  11.740   0.302   0.624 -0.3329 -0.0606 -0.2713
25855W        W41324  17.294  10.088  13.878  0.1752  0.2978 -0.0820
25856W        W41325   9.811   4.545   4.249  0.2411  0.1921 -0.2730
25857W        W41326   2.521   9.141  12.079  0.1128  0.2217 -0.0987
25858W        W41327  12.944   2.622  11.551  0.1294  0.1789 -0.3171
25859W        W41328  11.577  13.999  15.264  0.2738 -0.1734 -0.0613
25860W        W41329  14.085  10.832  11.128  0.0025  0.2654 -0.0824
25861W        W41330  15.823  16.879   9.721 -0.4616  0.0344  0.0026
25862W        W41331  13.747  17.743   3.525 -0.3666  0.0549  0.0966
25863W        W41332   0.481   2.844   1.891  0.1158 -0.1022  0.0240
25864W        W41333  16.186  18.665  12.687  0.1662 -0.5718  0.5147
25865W        W41334   4.146   0.052   0.464  0.1207 -0.1986 -0.2450
25866W        W41335   1.549   3.041  12.806  0.0090  0.1683  0.1229
25867W        W41336  12.587  16.270  11.082  0.1800  0.0479  0.2381
25868W        W41337  11.751  15.311   5.925  0.0286 -0.0762 -0.2160
25869W        W41338  16.323  10.569   3.593 -0.0399 -0.2004 -0.0071
25870W        W41339  10.877   1.691   4.395  0.0281 -0.2687 -0.1230
25871W        W41340  12.539   5.432   2.257  0.0228  0.1101  0.0664
25872W        W41341  16.121   7.262  11.275  0.2815 -0.1827  0.0932
25873W        W41342   9.538   8.270  13.943 -0.3016 -0.1392 -0.2520
25874W        W41343  17.371   7.362   5.918  0.7582  0.2689 -0.0063
25875W        W41344   2.606   4.890  12.116 -0.0393  0.1795  0.0833
25876W        W41345  13.584   1.724  12.696  0.2737  0.0838 -0.1268
25877W        W41346  18.467   8.819  14.666 -0.1278  0.3287  0.1219
25878W        W41347  12.998  12.538   0.894  0.0710 -0.0451  0.0228
25879W        W41348  13.026   6.785  12.217  0.0853  0.2404 -0.2813
25880W        W41349   8.647   7.252   1.195  0.2580 -0.1018  0.1749
25881W        W41350   5.559   9.379   0.078 -0.0344 -0.2589 -0.0159
25882W        W41351  11.093  12.786  11.111  0.0247  0.2525 -0.1695
25883W        W41352  11.216  11.450  14.605 -0.2644  0.1678  0.0418
25884W        W41353  12.228   2.204   3.874 -0.0839 -0.0111  0.1030
25885W        W41354   0.325  18.021   3.234 -0.1591  0.2443  0.0811
25886W        W41355   6.766  12.570   5.256 -0.0367 -0.1290 -0.1847
25887W        W41356  18.680   6.293  12.873 -0.0561 -0.2098  0.1850
25888W        W41357  12.927   4.598  15.046 -0.1824  0.0130 -0.3951
25889W        W41358   0.758  10.793  13.648 -0.3211  0.1776 -0.4685
25890W        W41359  11.293  10.290   2.359  0.2410  0.0543  0.4299
25891W        W41360   8.144  13.426  11.850 -0.4415 -0.1683  0.1227
25892W        W41361   3.464   5.415   2.977 -0.1186 -0.0204 -0.1125
25893W        W41362   4.450   3.827  15.245 -0.1026 -0.0944 -0.3236
25894W        W41363  17.649   7.103  14.546  0.1923  0.2270  0.1906
25895W        W41364  12.750   2.840  12.452  0.0589  0.1183 -0.1069
25896W        W41365  11.861   9.226   1.103  0.0061 -0.4941  0.3420
25897W        W41366   8.266  14.744   1.850 -0.1976  0.0153 -0.2967
25898W        W41367   5.763   7.502  12.098  0.0670 -0.1587 -0.2254
25899W        W41368   8.845  10.196   3.400 -0.1201  0.1022 -0.1416
25900W        W41369   0.756  17.249   5.303  0.2009 -0.2859  0.4129
25901W        W41370   8.826   7.856  11.778  0.0784  0.0574 -0.1250
25902W        W41371   9.054   4.441  12.966  0.3024 -0.2829  0.4479
25903W        W41372   0.591   7.621  11.922  0.3115 -0.2501 -0.0041
25904W        W41373   5.632  12.383  12.256 -0.1210  0.0809 -0.0127
25905W        W41374  17.126   0.317   1.864  0.0434  0.2278 -0.1715
25906W        W41375  11.722   1.273  15.374  0.3002  0.2608 -0.1031
25907W        W41376  12.055  16.007   1.340  0.1183 -0.0557  0.2569
25908W        W41377   3.172   3.687   2.734  0.2647  0.2176  0.2795
25909W        W41378   9.288   2.815  14.088 -0.3243 -0.2043  0.1423
25910W        W41379   7.425   2.112   3.825 -0.1465 -0.2612 -0.1558
25911W        W41380   2.034   4.194   2.185 -0.1667 -0.0055 -0.2015
25912W        W41381   6.940  10.965  11.321 -0.0779  0.0179  0.0804
25913W        W41382  15.742   7.840  12.717  0.3427 -0.0532 -0.1015
25914W        W41383  16.091  10.514   0.908 -0.0337 -0.1849  0.0176
25915W        W41384  14.877  15.965   0.134 -0.1411 -0.2569 -0.2646
25916W        W41385   3.224  12.562   2.007 -0.1762 -0.1435  0.2631
25917W        W41386  15.933   4.261   4.779  0.0267  0.1419 -0.1467
25918W        W41387   1.292  18.489  10.793 -0.0188 -0.1049  0.0599
25919W        W41388  17.513  11.698   0.415  0.1500  0.3516  0.0138
25920W        W41389   0.522   8.433  14.463  0.2025 -0.2527 -0.2739
25921W        W41390   5.543  11.484   4.769 -0.1322  0.1824 -0.0886
25922W        W41391   0.312   7.964   3.565  0.0636 -0.1443 -0.2360
25923W        W41392   9.886   6.592  13.274  0.0363  0.0131 -0.1127
25924W        W41393  11.886  15.891   3.113 -0.0058  0.0120  0.0965
25925W        W41394   9.796  16.156   1.646  0.0870  0.0615 -0.1504
25926W        W41395  17.070  11.001  13.359 -0.1709 -0.1521 -0.1007
25927W        W41396  12.972  10.849   2.961  0.2436 -0.1947  0.0147
25928W        W41397   5.038  15.091  11.687  0.0405  0.0898  0.1199
25929W        W41398  13.543  17.692   2.572 -0.2371 -0.0240  0.1514
25930W        W41399   7.916   3.994  10.977 -0.3857 -0.0582 -0.2903
25931W        W41400   9.762  10.655   2.201  0.0151 -0.1239 -0.0385
25932W        W41401  11.249  13.246   0.304 -0.1538  0.1096 -0.1827
25933W        W41402  16.192  17.220  14.133 -0.2838  0.0967 -0.1011
25934W        W41403  18.119   1.557  12.033  0.3807 -0.0212  0.0882
25935W        W41404  13.441   9.540  13.888 -0.1674  0.1623 -0.0297
25936W        W41405   1.791  10.912   5.952  0.4802  0.2364  0.2128
25937W        W41406  16.192  14.213   0.612 -0.4782 -0.3937 -0.0849
25938W        W41407  16.846  17.221  14.017 -0.0657 -0.2911 -0.2767
25939W        W41408  14.185   2.139  12.346  0.2030 -0.0779 -0.3886
25940W        W41409  10.506  10.516  14.179  0.2378 -0.0343  0.0494
25941W        W41410   8.099   4.359  10.675 -0.3454  0.0900  0.0527
25942W        W41411  16.686   5.051  15.307 -0.0486  0.3538 -0.1769
25943W        W41412  12.692   0.048  11.080  0.2745  0.0392 -0.0577
25944W        W41413   1.614  12.324  12.228  0.0655 -0.1413 -0.2705
25945W        W41414  10.238  14.030   4.794 -0.0627 -0.3161 -0.0013
25946W        W41415  11.915   0.369   4.511  0.0243 -0.0381  0.2570
25947W        W41416   1.043  17.045   3.356  0.0039  0.4394  0.0048
25948W        W41417   9.586   7.100   4.046 -0.3144 -0.2272  0.0475
25949W        W41418   4.841  17.426   0.616 -0.1041  0.0675 -0.4056
25950W        W41419  11.010  16.372  13.321  0.1401  0.3669  0.0118
25951W        W41420  12.635  16.569  10.288 -0.0172  0.0105  0.0995
25952W        W41421  17.944   7.217   6.204 -0.0016  0.1449  0.2466
25953W        W41422  12.506   1.702  10.218 -0.1308 -0.0085 -0.1247
25954W        W41423  17.541  13.706  13.470  0.0154  0.0056 -0.1259
25955W        W41424   5.484  12.456  13.793  0.2678  0.3444  0.2227
25956W        W41425  18.751  12.393   0.566 -0.2535 -0.0683 -0.3781
25957W        W41426  15.436  11.792  12.163 -0.3391 -0.0256  0.0392
25958W        W41427  16.433  15.121  10.892  0.0915 -0.0194 -0.0517
25959W        W41428  17.194   4.456  11.739 -0.2111 -0.2425  0.2335
25960W        W41429   7.445   7.695   2.127 -0.2704  0.0525  0.0540
25961W        W41430  14.389  11.683   1.826 -0.1643  0.0448  0.1413
25962W        W41431  10.933   9.892   4.412 -0.0034  0.1566 -0.0499
25963W        W41432   1.435  12.133  14.752 -0.4165 -0.2027  0.2346
25964W        W41433   1.653   9.839   0.648  0.0699  0.2119  0.1977
25965W        W41434  14.707  17.829   3.632  0.0860  0.1803 -0.0229
25966W        W41435   6.664   6.923  12.830  0.0531 -0.1398 -0.2272
25967W        W41436   5.947   2.107  12.958 -0.1315  0.0520 -0.0347
25968W        W41437  14.294   4.328  14.293  0.5177 -0.0934 -0.0471
25969W        W41438   8.871  13.090  15.167 -0.2927  0.1469 -0.0824
25970W        W41439   8.508   6.232  13.168 -0.2235 -0.1647 -0.1783
25971W        W41440  18.450   7.244   0.179  0.0188  0.1882 -0.0996
25972W        W41441   2.029   2.692   2.496  0.3025 -0.2481 -0.5759
25973W        W41442   2.931   9.610  10.584 -0.2780 -0.1822 -0.2175
25974W        W41443  15.462   8.725  12.228  0.1508  0.1651 -0.0442
25975W        W41444  18.931   2.820   1.553  0.0704  0.1413 -0.4457
25976W        W41445  13.746   8.657   0.881  0.1552 -0.4544  0.0011
25977W        W41446   8.027   3.123   4.688  0.2106 -0.2562 -0.1622
25978W        W41447  11.935   6.785  12.682  0.4414  0.2317 -0.1722
25979W        W41448  15.592   3.223  14.442  0.0777  0.1675  0.1348
25980W        W41449  16.869  18.741   2.561  0.1307 -0.1988 -0.0698
25981W        W41450   1.574  14.604  15.079  0.0324 -0.0603 -0.3353
25982W        W41451   8.652  13.501   3.402  0.0379 -0.1864 -0.0359
25983W        W41452   1.667  15.988   4.428  0.1261  0.3354 -0.0554
25984W        W41453   0.786   4.385   2.018  0.1517  0.1644  0.6362
25985W        W41454   7.409   5.121  14.943  0.0868  0.5244  0.2012
25986W        W41455   5.844   6.246  15.271  0.1233 -0.0563 -0.0115
25987W        W41456   8.200  14.247  13.643  0.1191 -0.1225 -0.0791
25988W        W41457   8.306   7.650   2.950  0.1416 -0.1582 -0.3523
25989W        W41458   8.805  12.608  14.873  0.3354 -0.1260 -0.0947
25990W        W41459   1.888   3.938   1.441  0.0182 -0.0005  0.2686
25991W        W41460   0.264  14.039  10.981 -0.0405 -0.0170 -0.2548
25992W        W41461   1.132   3.917   3.933  0.1169 -0.0618 -0.0188
25993W        W41462  13.936   2.225  12.762  0.2451 -0.1946 -0.2555
25994W        W41463   6.391   2.136  13.655  0.3401 -0.3027 -0.1290
25995W        W41464   4.246   3.063  15.093 -0.0409  0.2691 -0.1701
25996W        W41465   8.327  17.983  12.944  0.0188 -0.1664 -0.4892
25997W        W41466  11.624   7.723   2.042  0.3001 -0.1541  0.0464
25998W        W41467  14.105   0.078  13.357 -0.1829 -0.0004  0.0550
25999W        W41468   4.930  12.230   1.452 -0.2071 -0.2588 -0.2668
26000W        W41469  14.520   1.911  10.406 -0.0012 -0.0062  0.2473
26001W        W41470  18.853   2.103  14.372  0.0915 -0.0352 -0.2515
26002W        W41471   7.427  10.401  13.076 -0.0815  0.0186  0.3587
26003W        W41472  14.259  12.768  12.554  0.2363 -0.0493 -0.1362
26004W        W41473   7.496  18.854   4.419 -0.3423  0.0404 -0.0211
26005W        W41474  15.199   2.450   3.652  0.0525  0.1797 -0.0534
26006W        W41475   8.124   0.327  15.056  0.1108 -0.4362 -0.1878
26007W        W41476  12.655   1.118   3.089 -0.0586 -0.1664  0.1001
26008W        W41477   1.001  14.640  12.205  0.0593 -0.2610 -0.4452
26009W        W41478   5.491  11.270  12.699  0.2095 -0.2690  0.0198
26010W        W41479   8.883  11.460   1.296  0.1774 -0.0089  0.1445
26011W        W41480   4.579  15.371  12.538  0.0716 -0.1679  0.0952
26012W        W41481   9.474  13.040   3.152 -0.0635  0.1779 -0.3318
26013W        W41482  11.690  10.666   4.754 -0.0280 -0.1701  0.2083
26014W        W41483   7.769   0.278  11.641 -0.3378 -0.1358 -0.2028
26015W        W41484   8.011  10.016   2.014  0.0044 -0.1568  0.0137
26016W        W41485  13.091   2.698   9.705 -0.4799  0.0521 -0.1754
26017W        W41486  15.662  14.534   0.168 -0.0337 -0.0474  0.0014
26018W        W41487  17.124  18.756   2.092 -0.0354 -0.1419 -0.1570
26019W        W41488   5.144   9.510  12.240  0.1235  0.1089  0.0766
26020W        W41489   1.437   4.403   2.280 -0.0636  0.3503  0.2520
26021W        W41490   8.190   0.497   3.080 -0.0018 -0.0205 -0.0685
26022W        W41491   4.308  11.874   5.122  0.0888  0.0549  0.2049
26023W        W41492   0.601  18.004   3.628 -0.2953  0.0033  0.3341
26024W        W41493  15.397   0.360   4.161  0.1323  0.0394 -0.2830
26025W        W41494   1.286   6.745  10.870 -0.0788  0.0707  0.2337
26026W        W41495  16.765   4.077  15.112  0.1218 -0.1093  0.0584
26027W        W41496  10.213   4.404   2.829  0.3258  0.3207 -0.0824
26028W        W41497   8.394   8.387   3.638  0.2202  0.0539  0.0400
26029W        W41498  16.950   4.079  12.096  0.3224 -0.1617 -0.0473
26030W        W41499   0.554  18.720  10.886  0.0356 -0.0532 -0.0429
26031W        W41500  16.331  13.784   3.810 -0.1691 -0.1451  0.1385
26032W        W41501  17.889   5.762   3.627 -0.1735 -0.0802 -0.0141
26033W        W41502   1.161  14.332  14.982  0.2584 -0.3983 -0.1582
26034W        W41503   3.733   2.560  12.826 -0.1290 -0.2238  0.1161
26035W        W41504   5.130   1.253   2.330  0.1435  0.0148  0.2666
26036W        W41505   6.372  16.794   1.073 -0.3110 -0.3208  0.0218
26037W        W41506   5.153   4.918  14.409  0.1143 -0.2393 -0.2040
26038W        W41507   1.809   9.868  14.814  0.0661  0.0261  0.1450
26039W        W41508   5.357   6.868   3.068  0.2160 -0.0669  0.0191
26040W        W41509   3.737  15.798  12.388  0.0682 -0.0016 -0.0700
26041W        W41510   7.138   9.927  12.442 -0.1552 -0.0904 -0.4180
26042W        W41511   8.115   2.251   9.621  0.2201  0.0195  0.1853
26043W        W41512   9.012  14.205  11.768  0.2054  0.0005  0.0034
26044W        W41513  18.553   7.462  13.854  0.1182  0.0289 -0.0272
26045W        W41514  10.350   4.028   9.879  0.3394 -0.1506  0.1753
26046W        W41515   8.886  10.032   3.909  0.1682 -0.2151 -0.0042
26047W        W41516  11.405  14.823  11.387 -0.3168  0.1456 -0.0076
26048W        W41517   2.127   4.972   0.971 -0.1708 -0.2482 -0.0360
26049W        W41518   1.346   4.654  11.205 -0.1617  0.1056 -0.3912
26050W        W41519  17.648   7.726   2.112 -0.2434  0.0824 -0.1665
26051W        W41520  14.714  11.413   5.602  0.1666  0.0787  0.3172
26052W        W41521  13.719  17.282   3.373 -0.0353 -0.0615  0.1381
26053W        W41522   8.863   5.971   1.695 -0.1570 -0.0189 -0.0318
26054W        W41523   6.239  14.393   0.797 -0.0831 -0.1403 -0.2885
26055W        W41524  10.802   0.005  14.318 -0.0963 -0.0253  0.1878
26056W        W41525  10.604  11.143   2.440  0.0349 -0.4650 -0.0161
26057W        W41526  10.659  16.701   2.481 -0.2989  0.1675 -0.1005
26058W        W41527  17.713   0.355   3.452 -0.1497  0.2023  0.0605
26059W        W41528   6.066   4.324  14.352  0.0578  0.1020  0.0968
26060W        W41529  15.080  10.248  14.285  0.0960  0.4554 -0.1910
26061W        W41530  18.334   1.773  13.341 -0.0555 -0.0692  0.3236
26062W        W41531   8.255  18.352   5.417 -0.1028 -0.2660  0.2447
26063W        W41532  18.315   6.542   1.859 -0.0640 -0.1112 -0.0669
26064W        W41533   6.584   1.018   1.958 -0.3671  0.1010 -0.1017
26065W        W41534  12.719  14.968  14.072 -0.2670  0.2303 -0.3428
26066W        W41535  18.695   4.305  10.776  0.0697 -0.1038 -0.0208
26067W        W41536  10.185  13.826   4.339 -0.1276 -0.0040 -0.0787
26068W        W41537   7.349  12.830  14.483  0.1923  0.0206  0.3652
26069W        W41538   0.899  10.130  13.000 -0.1275  0.3769  0.2189
26070W        W41539   7.297  18.037   2.960  0.1241 -0.1203  0.2582
26071W        W41540  12.894   6.398  12.003 -0.2283  0.3114  0.2451
26072W        W41541  17.747   0.580   2.492 -0.0307  0.3554 -0.0265
26073W        W41542   4.047  15.962   1.782  0.0681  0.1081  0.0344
26074W        W41543   2.329  17.223  14.395  0.1252 -0.4906 -0.3819
26075W        W41544  16.253  13.681  14.804  0.0601  0.3030 -0.4553
26076W        W41545  16.312   8.409  12.316 -0.0245  0.3484 -0.1392
26077W        W41546  11.103  15.816   2.700  0.0295 -0.1304 -0.1763
26078W        W41547   4.244   3.017  12.392 -0.1480 -0.1587  0.1311
26079W        W41548  15.357   3.725   5.208  0.1299 -0.0201  0.1855
26080W        W41549  11.078  16.382  13.807 -0.3833 -0.1785  0.1212
26081W        W41550  15.122   5.954  10.477 -0.2110 -0.0413  0.1678
26082W        W41551  18.115  15.552  11.569 -0.2008  0.4454  0.0114
26083W        W41552  12.231  15.777   0.822 -0.2998 -0.3220  0.0247
26084W        W41553  14.408   4.867  11.663 -0.0013  0.0547  0.3152
26085W        W41554  10.651   8.530  10.743 -0.2068 -0.3476  0.4204
26086W        W41555  15.369  11.407   4.046 -0.3518 -0.2540 -0.1556
26087W        W41556  16.001   6.358  10.724  0.1793 -0.0011 -0.0802
26088W        W41557   0.706  10.073  14.236  0.1453 -0.0532  0.2982
26089W        W41558  12.695  10.560   3.414  0.1015 -0.1001 -0.0997
26090W        W41559  13.518  14.849   5.382 -0.0065 -0.2262 -0.2823
26091W        W41560   3.025  10.598   5.775 -0.1097  0.0576 -0.2092
26092W        W41561   7.170   3.093  14.603 -0.1867  0.1475  0.1680
26093W        W41562  17.517   0.802   3.810  0.1771  0.1984 -0.0316
26094W        W41563   2.281   2.207  11.522 -0.1154  0.0282 -0.0614
26095W        W41564   6.753   5.669   5.037  0.0002 -0.0225 -0.2940
26096W        W41565  18.892   7.057  13.983  0.1218  0.1436  0.0403
26097W        W41566  15.575   8.746  14.125  0.0947 -0.1051  0.1526
26098W        W41567  10.834   0.650   4.887  0.4559  0.0122 -0.0951
26099W        W41568   1.894  16.935  15.124 -0.1366 -0.1936  0.0269
26100W        W41569   8.173  10.984   1.920 -0.0250  0.4055  0.0312
26101W        W41570  12.150  15.157   4.470 -0.4116 -0.4159 -0.0179
26102W        W41571  11.970   3.725  10.237  0.2048 -0.2743 -0.2822
26103W        W41572  11.725  14.167   1.205 -0.0889 -0.2693  0.1729
26104W        W41573   5.997   6.544  12.348 -0.2810  0.1474  0.2117
26105W        W41574   2.797  11.405  14.902  0.0557  0.1854 -0.1278
26106W        W41575   4.638   4.203  10.875 -0.1119 -0.1212  0.0269
26107W        W41576  12.705   8.320   0.467  0.0089  0.3421 -0.0443
26108W        W41577   2.681   5.187  13.909 -0.2063 -0.0562 -0.1900
26109W        W41578  17.663  13.388   4.936 -0.0253 -0.0900  0.1629
26110W        W41579   2.397  15.131  10.791 -0.1230 -0.0788  0.1299
26111W        W41580  11.729  15.848   2.108  0.2710  0.0567  0.1626
26112W        W41581   7.502  13.389   1.114  0.3367  0.0608  0.3335
26113W        W41582   6.233   2.169   3.390 -0.2624 -0.0406  0.0484
26114W        W41583   8.102  15.078  14.337 -0.1051  0.2477  0.1650
26115W        W41584   7.411  17.014   2.700  0.0219  0.3657 -0.1880
26116W        W41585  18.451  13.234  14.953 -0.3465  0.1362 -0.0828
26117W        W41586   0.257  15.963  14.820  0.0504  0.3589 -0.2616
26118W        W41587  18.465   3.890  14.669 -0.2024 -0.1336  0.0139
26119W        W41588   9.750   8.715   0.021 -0.3067  0.0777  0.0653
26120W        W41589   5.973   2.548   1.147 -0.0034  0.0726 -0.0735
26121W        W41590   3.847  15.693  13.203  0.1935 -0.0951  0.0674
26122W        W41591  13.675  14.326   5.515 -0.0480  0.0509 -0.0035
26123W        W41592  18.104   5.065   9.831 -0.2156 -0.0632  0.3853
26124W        W41593  13.483   3.133   3.301 -0.0315 -0.0309  0.1414
26125W        W41594   2.136   9.254   5.067  0.2355  0.1119 -0.2774
26126W        W41595  15.639  10.311  15.414 -0.2569 -0.1559 -0.1614
26127W        W41596   1.839   2.363  14.283  0.0871  0.2048 -0.3586
26128W        W41597   3.955   0.470   5.260 -0.1136 -0.2332  0.0112
26129W        W41598  13.369  16.826  11.698  0.0461 -0.2862 -0.1179
26130W        W41599  16.515  18.232  11.310  0.3182 -0.0014  0.0485
26131W        W41600   8.589   3.913   2.687  0.1686 -0.0076  0.3575
26132W        W41601   9.524  13.246   4.081 -0.1453  0.2640  0.1828
26133W        W41602   7.443   9.093   5.180 -0.2697 -0.2609  0.1115
26134W        W41603   4.817   2.504  14.972 -0.0056  0.2259 -0.0476
26135W        W41604   3.052   3.265   0.540  0.2115  0.1921  0.1201
26136W        W41605   9.828   1.699   4.765  0.1257  0.0906 -0.0414
26137W        W41606  10.009   9.140  14.091 -0.0610 -0.2992  0.1390
26138W        W41607   5.961  11.742   4.584 -0.1270 -0.0405 -0.0377
26139W        W41608  15.349   6.118   5.168 -0.1909  0.0215  0.0201
26140W        W41609  13.610   0.270  10.779  0.0874  0.3973 -0.0046
26141W        W41610  16.281   7.940   4.853  0.1278  0.0217  0.1854
26142W        W41611   2.996   0.308   5.017  0.0301 -0.1697  0.0060
26143W        W41612   9.596   3.036   0.102 -0.2572  0.2907 -0.0182
26144W        W41613   3.232   7.201   1.045  0.0249 -0.0790  0.0424
26145W        W41614   0.149  13.626  14.426  0.0711  0.1684  0.0084
26146W        W41615  15.333   9.198  14.951  0.1580 -0.0802  0.2052
26147W        W41616  13.864   3.738  13.089  0.0998  0.1246  0.1139
26148W        W41617   4.199   3.223  13.896 -0.0962 -0.0625  0.3542
26149W        W41618   8.522   8.166  13.575 -0.1227  0.0583  0.2466
26150W        W41619   6.439  16.590  12.210  0.0543 -0.0669 -0.2455
26151W        W41620  13.042  14.675  13.515 -0.2057 -0.2504 -0.0753
26152W        W41621   1.771   9.210   0.018 -0.1122 -0.1689 -0.0457
26153W        W41622  16.505  10.602   2.639 -0.1314  0.2047 -0.1041
26154W        W41623  18.810  10.566  14.113  0.0858 -0.3090  0.2262
26155W        W41624   8.085  11.622   3.397  0.2693  0.3307 -0.0176
26156W        W41625   8.090   0.790  14.859  0.0393  0.1270  0.0810
26157W        W41626   0.519   9.414  13.444  0.0844  0.1243  0.1238
26158W        W41627  17.638  12.240   2.909 -0.0601  0.2501  0.0346
26159W        W41628  14.861  13.660   2.438  0.2414 -0.5930 -0.1162
26160W        W41629  14.646   1.459  10.213  0.4583 -0.0102 -0.1737
26161W        W41630   6.529   4.166   0.956 -0.2269 -0.1294  0.0453
26162W        W41631   4.069   7.133  15.365 -0.2049  0.0367  0.0528
26163W        W41632  10.787   6.002  14.497  0.0795  0.1571  0.2132
26164W        W41633  13.599   9.285   0.537  0.0595 -0.0314  0.0655
26165W        W41634   0.107  11.835   1.662  0.0644 -0.2228  0.0687
26166W        W41635   7.144  15.105  10.312  0.0619  0.5009  0.1038
26167W        W41636  14.577  15.876  10.339 -0.1702  0.0267 -0.5071
26168W        W41637  12.457  10.119   1.993  0.2498  0.2485  0.0354
26169W        W41638   6.843   8.590   3.399  0.0555 -0.0671 -0.0076
26170W        W41639   5.037  16.975   1.890  0.1583  0.1248 -0.1389
26171W        W41640  10.897   6.687  15.252 -0.4181  0.0502  0.3751
26172W        W41641   3.583   6.533   4.700  0.0324 -0.1610  0.1532
26173W        W41642   4.148   9.641  15.160  0.0150 -0.0899  0.3324
26174W        W41643  10.099  13.021   0.196  0.2039  0.0197  0.6009
26175W        W41644   2.714   1.177   0.202 -0.0028 -0.0713  0.1025
26176W        W41645  13.070   3.516   5.125  0.1442 -0.1353  0.1338
26177W        W41646   2.126  12.931  11.687  0.0764 -0.4162  0.0547
26178W        W41647   4.020  16.193  11.106  0.0393  0.2433  0.4270
26179W        W41648   2.182   3.592   2.995 -0.1994  0.0888  0.0843
26180W        W41649   1.185   5.424   1.069 -0.4805  0.0512 -0.0709
26181W        W41650   0.550  11.965   0.921 -0.1535  0.0781  0.2617
26182W        W41651  14.022   4.159  10.927 -0.0630 -0.1594  0.0595
26183W        W41652   6.829  14.870   5.531 -0.3346  0.1005 -0.1290
26184W        W41653  18.523   1.422   1.273 -0.4322  0.2736 -0.0581
26185W        W41654  18.125  10.391  14.297 -0.2074 -0.0277 -0.1228
26186W        W41655  13.158   0.462   4.809  0.2328  0.2107 -0.2108
26187W        W41656   3.015   8.519   3.696  0.1081 -0.1251 -0.0705
26188W        W41657   3.520   8.127  13.807  0.2842 -0.2046  0.2285
26189W        W41658   2.642   7.381   4.689 -0.1804  0.2509 -0.2082
26190W        W41659  15.967  17.739  11.774  0.0852 -0.1988 -0.1904
26191W        W41660  16.904  10.796   1.283  0.2252 -0.1559 -0.2379
26192W        W41661  17.211   8.264  13.490  0.0149 -0.2085 -0.0773
26193W        W41662  17.807  14.412  11.679 -0.0964  0.0136  0.1355
26194W        W41663   7.667   2.356  11.979 -0.0630 -0.0106 -0.2173
26195W        W41664  13.906  15.177   5.799 -0.3224  0.1411  0.2028
26196W        W41665  12.503  11.752   4.846 -0.0278 -0.2029 -0.4898
26197W        W41666  14.904  14.960   3.893  0.1793  0.2769  0.1734
26198W        W41667  17.815  15.657   1.850 -0.3216 -0.0269 -0.1569
26199W        W41668   0.270  11.841  11.659 -0.0129 -0.3582 -0.3121
26200W        W41669   2.856   0.285   2.958  0.2801 -0.2313  0.2970
26201W        W41670  18.828   2.066  12.356  0.0420 -0.2019  0.2453
26202W        W41671  14.724  15.598  11.297 -0.0080 -0.1544 -0.0118
26203W        W41672  18.384  15.336   4.446  0.4070  0.3665 -0.2645
26204W        W41673  14.199   8.798  12.168  0.1333 -0.1620 -0.0973
26205W        W41674  14.079  14.941   2.108 -0.0122 -0.1742 -0.3059
26206W        W41675   9.284  15.298  15.180  0.4105  0.0340 -0.2533
26207W        W41676   6.358  17.097   4.777 -0.0355 -0.1979  0.0162
26208W        W41677   8.303   7.778  14.806 -0.1472 -0.1273  0.2244
26209W        W41678  16.221   6.834  12.979  0.0399 -0.0544 -0.0015
26210W        W41679   0.737   6.864   3.596 -0.0799 -0.1504  0.3625
26211W        W41680   1.147  17.439   3.654  0.4033  0.2312 -0.1794
26212W        W41681   0.559  15.375   4.231 -0.0959  0.2272  0.3803
26213W        W41682   1.707  14.720  12.789  0.0652  0.2414  0.4282
26214W        W41683   1.465   8.258   3.947  0.3470  0.0006 -0.0942
26215W        W41684   2.563   8.224  11.382 -0.0698  0.1173  0.0545
26216W        W41685   7.007   4.049  11.470  0.2926  0.2897  0.2281
26217W        W41686   0.483  13.065  13.961 -0.0242  0.1408 -0.2549
26218W        W41687   8.056   7.995   3.581  0.0530 -0.2470  0.1787
26219W        W41688  10.405  18.913   4.866 -0.1081  0.4409 -0.1475
26220W        W41689   7.391  14.564   2.101  0.0746  0.0272 -0.0574
26221W        W41690  14.080  14.385   4.312 -0.3128  0.0847 -0.0741
26222W        W41691   7.493  11.312   0.068  0.2520 -0.3206 -0.2806
26223W        W41692   5.837  16.570  12.317 -0.1614 -0.3237 -0.0264
26224W        W41693  14.316  17.681   2.101  0.1878 -0.2103 -0.2278
26225W        W41694   8.604  17.613  10.780  0.1476  0.2385  0.4785
26226W        W41695  12.054  12.321   3.135 -0.1047 -0.1542 -0.0316
26227W        W41696  14.835   3.747  12.797  0.0656 -0.4254 -0.0410
26228W        W41697   2.393   0.375  13.187  0.1440 -0.4119 -0.3869
26229W        W41698   8.945   5.263   1.513 -0.2144 -0.1079  0.0352
26230W        W41699   4.499   0.003   1.200 -0.2883  0.1923  0.1919
26231W        W41700  18.403  15.952   2.411 -0.0997 -0.0357 -0.5128
26232W        W41701   3.201   3.091   4.595  0.0766  0.1454  0.0677
26233W        W41702  18.284  18.736   4.390  0.0292  0.0005  0.1001
26234W        W41703  18.592  17.749   1.258 -0.1521  0.0683 -0.0722
26235W        W41704  15.096  10.231   1.044 -0.0287 -0.1281  0.1501
26236W        W41705   5.778  10.871   4.353 -0.3252  0.1676  0.2471
26237W        W41706  16.047   8.288   3.591  0.1195 -0.3358 -0.0005
26238W        W41707  11.688  11.911   0.146 -0.0953 -0.1512 -0.2917
26239W        W41708  10.505  17.117   2.879  0.0950  0.0530  0.0189
26240W        W41709  15.718   2.001  12.364  0.0163 -0.1967  0.1760
26241W        W41710   0.403   8.208  14.024 -0.2386  0.0285  0.4718
26242W        W41711   6.936   7.766   2.037  0.0351 -0.0872  0.1301
26243W        W41712   1.883   8.865  10.548  0.0874 -0.2151  0.1502
26244W        W41713   0.498   1.383   3.869  0.0783 -0.2331  0.3468
26245W        W41714  13.272   4.782  10.882 -0.3591  0.0379  0.3448
26246W        W41715   6.782   8.580  14.608 -0.0562  0.0061  0.2989
26247W        W41716   2.556  11.200   2.209  0.1348 -0.1796  0.1205
26248W        W41717  16.499   2.732   4.941  0.0455  0.0336 -0.3369
26249W        W41718   5.104  13.398  12.386  0.2413 -0.0111 -0.0366
26250W        W41719  15.911   4.497  15.089  0.0435  0.2116  0.2932
26251W        W41720  18.176  10.189   3.043 -0.0123  0.1790 -0.0442
26252W        W41721   9.938   8.682   9.158  0.0295 -0.0375  0.2537
26253W        W41722   9.690   1.791  15.505 -0.0923  0.2708 -0.1773
26254W        W41723   8.877   2.915  11.859 -0.0827  0.1084 -0.0103
26255W        W41724   2.996   3.149   2.677  0.0693 -0.1053 -0.0088
26256W        W41725   2.030   3.161   2.352 -0.0447  0.3291  0.0987
26257W        W41726   6.614  18.805  11.757  0.0884 -0.1706 -0.1935
26258W        W41727  10.266   0.751  12.248  0.4004 -0.4447 -0.0735
26259W        W41728  17.145  13.388   3.430 -0.4837  0.0611  0.0021
26260W        W41729   0.717  14.681   3.524  0.2760 -0.0727  0.2033
26261W        W41730   4.188   1.081   4.590  0.2468 -0.0670  0.4252
26262W        W41731   8.180  11.434   0.725 -0.2237  0.3131  0.1717
26263W        W41732   2.405   4.544   1.936  0.3782  0.1785 -0.2738
26264W        W41733   9.624  15.094   4.075 -0.0624  0.4621 -0.1080
26265W        W41734   1.942   8.043  13.039  0.2631 -0.0756  0.2487
26266W        W41735  14.316  14.680   0.053 -0.0267  0.4461  0.1966
26267W        W41736  16.180   0.695  12.030  0.2858 -0.1194 -0.1509
26268W        W41737   2.271   1.066  15.304  0.1853 -0.1905 -0.2621
26269W        W41738   3.182   4.669   0.496 -0.0226 -0.3291 -0.0354
26270W        W41739  10.827  18.347   2.483 -0.2095 -0.2139  0.1056
26271W        W41740   0.535   3.923   4.337 -0.0109  0.0593  0.2338
26272W        W41741   2.341   7.596  13.414 -0.2524 -0.2785  0.2162
26273W        W41742  14.775   0.619  10.696  0.4524 -0.5299 -0.0339
26274W        W41743   1.188  17.040  13.694 -0.2227  0.2481  0.4022
26275W        W41744   1.942  13.509   0.519  0.0811 -0.0950  0.1904
26276W        W41745  12.327   5.642   4.108  0.0798  0.1673 -0.0655
26277W        W41746   0.957  12.028  14.657 -0.0115 -0.0731  0.2322
26278W        W41747   3.399   5.692   0.237  0.3679 -0.0077  0.1755
26279W        W41748   6.827  13.541  12.648 -0.0035  0.2717  0.4402
26280W        W41749  13.760   5.965  11.434  0.1367  0.1298  0.2256
26281W        W41750   9.469   0.958  11.016 -0.1545  0.1515 -0.0298
26282W        W41751  11.102  16.061  12.336  0.0144  0.0144 -0.1292
26283W        W41752  12.219   6.354   0.186  0.1715  0.0901 -0.3482
26284W        W41753  15.012   1.984   3.557  0.3284 -0.0911 -0.0396
26285W        W41754   2.429   7.015  13.925 -0.0301 -0.1603  0.2149
26286W        W41755   4.258   1.348  14.145  0.0475 -0.0543  0.2316
26287W        W41756  13.004   5.885   2.127  0.3828 -0.2292  0.1414
26288W        W41757  16.977  12.007   3.088  0.0943  0.0127  0.1545
26289W        W41758  16.154   0.871   2.200  0.0000 -0.1768  0.0796
26290W        W41759   5.649   5.882  11.349  0.0772 -0.1718  0.2582
26291W        W41760   9.977   4.963  10.208  0.2264 -0.1182 -0.1127
26292W        W41761   0.837  14.377  12.576 -0.1043  0.0609 -0.0186
26293W        W41762  11.287  11.178  10.927 -0.0862 -0.1552 -0.0456
26294W        W41763   1.259   2.482   5.331 -0.0152 -0.0024 -0.2909
26295W        W41764  10.132   7.637  14.332 -0.2414 -0.1808 -0.1692
26296W        W41765   0.817  14.434  13.507  0.0493 -0.1279  0.1256
26297W        W41766   8.158   5.309  14.367  0.3462 -0.0399 -0.1461
26298W        W41767  15.150   8.207   1.176  0.2310  0.0240  0.1031
26299W        W41768  12.628   1.606   2.197  0.1161 -0.1726  0.1564
26300W        W41769  17.597  11.160   0.080 -0.2012 -0.0533 -0.1471
26301W        W41770   7.742   7.681  11.025 -0.3219  0.2862 -0.2613
26302W        W41771   6.246  13.330  15.400  0.1079 -0.0354 -0.2622
26303W        W41772   4.777   2.206   2.767 -0.0769 -0.0101  0.3011
26304W        W41773   5.070  13.760  10.891 -0.2630 -0.2088  0.0662
26305W        W41774  10.871  12.774  12.638 -0.0859 -0.0364 -0.0247
26306W        W41775  17.966   9.101  14.700  0.3711  0.0893  0.5873
26307W        W41776  11.160   7.969   3.423  0.0175  0.1052  0.5200
26308W        W41777   5.528  15.277   1.201 -0.1212  0.0443 -0.0120
26309W        W41778  13.474  13.347   1.982  0.2909 -0.2530  0.2655
26310W        W41779   6.127   2.474   3.028  0.1125  0.0138  0.0339
26311W        W41780   0.041   4.936   0.072  0.0716 -0.1465  0.0534
26312W        W41781  10.559  14.896  11.502  0.4254  0.1745 -0.2544
26313W        W41782  15.541   2.350  15.342  0.2805  0.3171  0.0838
26314W        W41783   4.617  10.417  12.522 -0.0296 -0.1035 -0.2553
26315W        W41784  16.791   8.181  10.613  0.3143 -0.0532  0.2880
26316W        W41785  10.327   3.490   3.362 -0.0514  0.2036  0.4209
26317W        W41786   0.362   3.008   4.071  0.2303 -0.1479  0.2535
26318W        W41787  13.447  14.217   9.709  0.0511 -0.1258 -0.1027
26319W        W41788   9.767   0.653  14.277 -0.0351  0.1527 -0.1038
26320W        W41789  18.670  15.659   2.794  0.1424 -0.2675 -0.2754
26321W        W41790   6.476  14.009   1.937 -0.0325 -0.0961  0.3113
26322W        W41791   9.557   8.899   2.101  0.0571  0.0886  0.1289
26323W        W41792   4.511  10.641   4.546 -0.0412 -0.1887  0.0627
26324W        W41793  12.167   1.977   0.176  0.0523  0.2030  0.0788
26325W        W41794  16.169   6.825   1.812  0.0789  0.1326  0.1692
26326W        W41795   0.304  12.154  12.168  0.1327 -0.1905  0.3994
26327W        W41796   2.757   9.631   2.814 -0.1925 -0.1791  0.0182
26328W        W41797  11.865   5.786   1.502  0.0661 -0.1516  0.0288
26329W        W41798   6.421  13.098   5.031  0.0580 -0.0095 -0.1877
26330W        W41799   1.624  11.320   2.172  0.2381  0.1057  0.2297
26331W        W41800   0.313  16.042   3.811 -0.3823 -0.1249 -0.4460
26332W        W41801   9.087   2.324   3.482 -0.2223  0.1131 -0.0056
26333W        W41802   8.412  12.817  13.191 -0.0416 -0.2088  0.0834
26334W        W41803  11.877   9.403   2.223 -0.0996  0.1625 -0.0282
26335W        W41804  16.331  16.670   1.765  0.2160 -0.0864 -0.1140
26336W        W41805   9.644  12.193   2.322  0.0954  0.1468  0.1890
26337W        W41806  16.923  13.114   0.860  0.0790  0.0052  0.1995
26338W        W41807   0.215  16.437   0.169  0.4107 -0.2965 -0.3208
26339W        W41808   7.290  10.175  13.918 -0.3251  0.0117 -0.0518
26340W        W41809  18.434   1.545   2.118 -0.1062  0.2286 -0.5117
26341W        W41810   2.306   8.088  14.277 -0.3473 -0.0929 -0.2962
26342W        W41811   6.597   6.812  13.593  0.0758 -0.0366 -0.1632
26343W        W41812  14.964   7.433  12.211 -0.0658 -0.1325 -0.5118
26344W        W41813  15.632  13.591   0.876  0.0460  0.2311  0.0822
26345W        W41814  14.271  16.567  15.058 -0.1179 -0.1664 -0.3201
26346W        W41815  12.968  16.942   1.142 -0.2614  0.2354 -0.3313
26347W        W41816   8.840  12.600   3.660 -0.1753 -0.3858 -0.1608
26348W        W41817  10.131   6.957   1.309 -0.1126  0.0757  0.2062
26349W        W41818   0.030  12.698  13.987 -0.1143 -0.1260  0.3159
26350W        W41819  12.716  11.994  11.409 -0.1862 -0.0280  0.3456
26351W        W41820   2.693   9.876   4.377 -0.3056 -0.1714  0.4484
26352W        W41821  11.760  14.775  11.057 -0.2371  0.1099 -0.0673
26353W        W41822   4.192   8.058   2.073  0.2715  0.0464 -0.0040
26354W        W41823  12.940  10.861  11.680  0.1098  0.0924 -0.3609
26355W        W41824   4.079  18.280  12.901 -0.1571  0.1515 -0.1554
26356W        W41825  16.970   0.617  11.441 -0.0195 -0.0855  0.2663
26357W        W41826  16.218   3.571  10.412 -0.1701  0.0816  0.1359
26358W        W41827   4.501   6.832   0.957  0.3860 -0.0635 -0.0482
26359W        W41828  12.270  12.765  10.774  0.3797  0.2022 -0.1703
26360W        W41829   1.774   4.252  11.166  0.0446  0.1470 -0.0527
26361W        W41830  13.157  12.863  12.925  0.1414  0.0530 -0.4396
26362W        W41831   1.747  14.358   2.291 -0.1640 -0.0088 -0.0356
26363W        W41832   9.279  18.862  13.222  0.0914  0.2028  0.0576
26364W        W41833  10.915   7.828  10.426 -0.0594  0.3143 -0.0395
26365W        W41834  12.749   9.586  12.163 -0.1686 -0.2074  0.0744
26366W        W41835   0.273  17.048  13.679  0.1021 -0.1971 -0.2330
26367W        W41836   7.938  11.615  14.364  0.1300 -0.0677 -0.2800
26368W        W41837   6.414  12.013   4.550 -0.2070  0.6388 -0.0946
26369W        W41838  17.303  15.044  15.232 -0.1085  0.0346 -0.1149
26370W        W41839  13.318  13.667  12.489  0.0828  0.0763 -0.0354
26371W        W41840  17.373   1.332   4.628  0.0394  0.0569  0.0788
26372W        W41841   3.345   9.406  13.300 -0.2760  0.0350 -0.1056
26373W        W41842   7.244   2.925   4.949 -0.2363 -0.2143 -0.1088
26374W        W41843  14.546  16.094  13.980  0.2370  0.5017  0.0765
26375W        W41844   9.711   2.859   3.043 -0.0756  0.0800  0.0331
26376W        W41845   9.592  11.817   5.579  0.2703 -0.1075 -0.1129
26377W        W41846   9.453  18.753   2.982 -0.2573  0.1270 -0.1631
26378W        W41847  14.861  12.056  12.783  0.0981  0.1901 -0.0747
26379W        W41848  16.391  18.771   5.091 -0.0821 -0.2843 -0.2153
26380W        W41849  14.691   6.516  11.209 -0.0599 -0.2349 -0.2300
26381W        W41850   6.041   1.034  13.695  0.1019 -0.0277 -0.2082
26382W        W41851  13.721  13.867  11.307 -0.0906 -0.0346  0.0362
26383W        W41852   2.081  10.976  11.528 -0.2315  0.1843  0.1932
26384W        W41853  13.828   1.110   1.824 -0.0911  0.1339 -0.2714
26385W        W41854  16.507   9.232   5.152 -0.0880 -0.1254 -0.0118
26386W        W41855  16.926  11.151   5.934  0.1894 -0.0858  0.1108
26387W        W41856  15.103  13.426   5.106 -0.0659  0.0946  0.1941
26388W        W41857  15.303   5.921   4.394 -0.1786  0.2899 -0.0180
26389W        W41858  14.684   8.925  12.211  0.1163 -0.0814 -0.1775
26390W        W41859  14.957   1.183   5.417 -0.1660 -0.3694  0.0941
26391W        W41860   2.222  14.853  12.547 -0.1842 -0.2505 -0.1572
26392W        W41861  17.433  17.995  12.348  0.2898  0.0127 -0.0762
26393W        W41862   7.966   2.261   2.287 -0.0155  0.1500 -0.2486
26394W        W41863   1.081   3.512  12.018  0.0868 -0.4973  0.0223
26395W        W41864  13.804  11.139   0.273  0.0009  0.0995 -0.1388
26396W        W41865   8.175  18.883   2.318 -0.1325 -0.0225  0.0473
26397W        W41866  15.338   7.879  14.211  0.2785  0.0458  0.2278
26398W        W41867  16.825  18.606  12.200 -0.3595  0.0317  0.0037
26399W        W41868   7.618   4.601  12.349 -0.0111 -0.1025  0.0987
26400W        W41869   4.633   2.078  11.077 -0.0802  0.3296  0.0922
26401W        W41870   5.420  15.508   2.129 -0.0027 -0.4153 -0.0601
26402W        W41871  14.002  10.087   3.260  0.4147  0.3116 -0.0525
26403W        W41872   8.794  15.521  14.021  0.0931 -0.1482 -0.3512
26404W        W41873   6.533   5.352  11.830 -0.0905 -0.1552  0.1491
26405W        W41874  10.841  18.792   5.086 -0.0834 -0.0448 -0.1466
26406W        W41875   0.454   7.169   0.144  0.1476  0.2096  0.0178
26407W        W41876  15.478  11.314  11.259  0.0023  0.1283  0.1045
26408W        W41877   8.527   8.226  11.032  0.1206 -0.1230 -0.3359
26409W        W41878  10.676   8.026  14.074 -0.2697 -0.0713  0.0455
26410W        W41879  12.468   6.787  12.611 -0.3544  0.1823 -0.3655
26411W        W41880  13.958  14.665  13.368  0.0379  0.0789  0.1333
26412W        W41881  11.211  16.585  12.314 -0.1753 -0.1149 -0.0993
26413W        W41882   3.304  11.695  14.099  0.1882 -0.4734  0.0566
26414W        W41883  17.913  10.170  12.656  0.0013 -0.2465 -0.1625
26415W        W41884  14.709  18.255  15.089  0.0850 -0.1330 -0.2979
26416W        W41885   3.059  12.476   4.654 -0.2183  0.1907  0.0609
26417W        W41886  14.032   8.715   4.963  0.1198  0.0039 -0.2207
26418W        W41887  10.430  15.680   1.027  0.0419 -0.3767 -0.1213
26419W        W41888  11.361  11.403  10.529 -0.1538  0.1628 -0.1229
26420W        W41889   3.911   5.017  13.720  0.3205 -0.1278 -0.0696
26421W        W41890   9.740   4.598   2.857  0.1367  0.0804 -0.4102
26422W        W41891  11.317  11.750   1.946 -0.1238  0.2490 -0.0748
26423W        W41892  16.649   9.557  14.286  0.1110  0.0016 -0.0637
26424W        W41893   3.272   2.419   3.309  0.0876  0.1961  0.1561
26425W        W41894   4.008  10.253  14.365  0.0115 -0.0556  0.4162
26426W        W41895  18.541   8.628   0.864  0.0278 -0.1600  0.0713
26427W        W41896  11.751   4.090   4.413 -0.0881 -0.1472 -0.4513
26428W        W41897  10.711   8.352  11.221 -0.2316  0.1803  0.0932
26429W        W41898  17.790  13.344   0.637 -0.0399 -0.1852 -0.4352
26430W        W41899   9.254   7.865  14.330  0.0992 -0.0962  0.1701
26431W        W41900  12.797   3.474   0.567 -0.1147  0.1979  0.0174
26432W        W41901  16.243   5.378  10.819  0.1471 -0.0794 -0.1382
26433W        W41902   6.944  16.297  13.699  0.0940 -0.1734 -0.2909
26434W        W41903  12.147  13.263  15.493 -0.1670  0.0356  0.1249
26435W        W41904   5.540  13.197   1.704 -0.1620 -0.1535 -0.0385
26436W        W41905   8.361  17.478  15.166  0.2277  0.1509  0.0671
26437W        W41906  16.710   5.167   2.469  0.2716  0.2047  0.1707
26438W        W41907   5.510  10.369  12.628  0.0086 -0.0955 -0.0279
26439W        W41908   6.929  10.670  13.811  0.0036 -0.0234 -0.0338
26440W        W41909  17.651   1.831  11.316  0.0811 -0.0955  0.1376
26441W        W41910  11.743  18.375   3.369 -0.2602  0.3035 -0.0402
26442W        W41911  16.617  17.248   3.748 -0.1953  0.0697  0.1318
26443W        W41912  17.639  11.392  11.680  0.7108  0.1990  0.0644
26444W        W41913   1.693   5.563  15.253 -0.2597 -0.2378 -0.0214
26445W        W41914  12.556   5.627   9.640 -0.2666  0.2681  0.1277
26446W        W41915  15.416  17.017   3.357 -0.3489 -0.0141  0.1951
26447W        W41916  18.699  11.419   3.362 -0.2029 -0.0325  0.0523
26448W        W41917   6.342   2.925  10.060  0.1287 -0.3997 -0.0688
26449W        W41918   2.203  13.864   0.165  0.1771 -0.4067 -0.2773
26450W        W41919   4.165  14.563  13.955 -0.3282 -0.2846 -0.5513
26451W        W41920   5.725   7.104  13.989  0.0634 -0.1632 -0.0016
26452W        W41921  17.829  14.793  11.361  0.0085 -0.1769 -0.0209
26453W        W41922  14.216   5.764   2.063 -0.1066 -0.0903  0.0792
26454W        W41923  14.553   5.459  11.161 -0.0791  0.1302  0.0881
26455W        W41924  10.963  17.934   4.256 -0.3388 -0.2371  0.0193
26456W        W41925  17.854   5.485   0.339  0.1518 -0.1127 -0.3306
26457W        W41926  17.814   0.694  11.833 -0.0600  0.1795 -0.1616
26458W        W41927   0.807   8.926   3.939 -0.0761  0.1815  0.1134
26459W        W41928   2.125  10.152   3.192  0.2036  0.6077 -0.3784
26460W        W41929   9.096  12.258  11.936 -0.1194 -0.1305  0.1745
26461W        W41930  12.525   6.733  12.113  0.4388 -0.1242  0.2342
26462W        W41931   8.936  10.924  14.808 -0.1134  0.0971 -0.0497
26463W        W41932  16.817  12.332   4.174 -0.0516  0.2932 -0.1115
26464W        W41933  13.598  16.393   0.045 -0.1239 -0.0099 -0.1666
26465W        W41934   4.920   0.227   1.011  0.0520 -0.1291 -0.2268
26466W        W41935   6.383   4.429   3.558 -0.4267  0.1244  0.4240
26467W        W41936  17.618  15.447  14.189  0.0696 -0.0750  0.1213
26468W        W41937   5.258  15.862  14.438 -0.1228  0.0555  0.3827
26469W        W41938  17.096  10.381  15.498  0.1067  0.0649 -0.1445
26470W        W41939   0.561  17.872  14.557  0.1201 -0.1719 -0.0169
26471W        W41940   5.357  12.824  15.465  0.0557  0.2497 -0.1815
26472W        W41941  11.210   4.206   1.161  0.1813 -0.0857 -0.0960
26473W        W41942  14.710  16.102  11.196 -0.3987 -0.1810  0.3298
26474W        W41943   8.700  13.341  14.774 -0.4586  0.6517  0.0682
26475W        W41944   4.680  17.882   1.518 -0.0682 -0.3263 -0.0976
26476W        W41945   7.710  16.815  11.599  0.3132  0.0516  0.1897
26477W        W41946   1.359   4.663  12.003  0.2024  0.0600  0.1318
26478W        W41947   7.144   8.052  15.401  0.1012 -0.0242 -0.0241
26479W        W41948  17.454   2.538  14.547  0.1042 -0.0186 -0.1660
26480W        W41949   4.714   7.513   4.952 -0.0219 -0.0856 -0.3441
26481W        W41950  13.202   6.085   1.532  0.2071 -0.2219 -0.0971
26482W        W41951  18.895   8.774   0.037 -0.2445  0.0672  0.0803
26483W        W41952  17.153   0.875   4.919  0.4386  0.0304 -0.0567
26484W        W41953   5.914  16.109   1.439 -0.1614 -0.1770  0.0603
26485W        W41954   6.713  17.823   0.832 -0.1371  0.0688 -0.2009
26486W        W41955   5.364   4.702  10.905  0.1711 -0.1578  0.1788
26487W        W41956  17.501  14.888   3.549 -0.1318  0.1429  0.0924
26488W        W41957  17.065   9.729   4.365  0.0504  0.1680  0.0181
26489W        W41958  14.758  18.344   3.541  0.0882  0.0704 -0.1333
26490W        W41959   7.091  18.449  12.580  0.2606 -0.1982  0.1762
26491W        W41960   0.860   2.488  12.454  0.1192 -0.4303  0.0144
26492W        W41961  16.746   6.583   1.926  0.1929 -0.5553 -0.4201
26493W        W41962  18.816   7.640  13.296 -0.2267 -0.0733  0.0925
26494W        W41963   7.469   6.536   1.328 -0.2301 -0.3161  0.0008
26495W        W41964  16.085   8.208  11.818 -0.1365  0.0416  0.2189
26496W        W41965  17.318   7.756  15.263 -0.2349 -0.0042 -0.1763
26497W        W41966   7.854   3.557   2.685 -0.1555 -0.1511  0.0442
26498W        W41967  15.574   4.818  13.535 -0.2849 -0.2126 -0.1684
26499W        W41968   4.355   0.129  14.795  0.1835 -0.1424  0.3492
26500W        W41969   3.805  18.611   4.323 -0.0661  0.0298  0.0101
26501W        W41970  15.091   4.972   2.773 -0.0978  0.3306  0.2488
26502W        W41971   9.990   2.526  12.662  0.0586 -0.1900  0.2962
26503W        W41972   0.674   2.008   2.245  0.0931  0.1483 -0.1084
26504W        W41973   6.948  11.963  14.625  0.3176  0.0458 -0.0918
26505W        W41974  11.983  13.991  14.983 -0.0053 -0.3373  0.1071
26506W        W41975  10.537   5.570  10.268 -0.0939 -0.2637  0.1640
26507W        W41976  18.385   9.326   2.463  0.0561 -0.0297  0.0974
26508W        W41977   3.424   7.241  10.962  0.1398 -0.0844  0.1232
26509W        W41978   8.235   1.282   3.354 -0.0626 -0.1988 -0.3029
26510W        W41979   3.445   8.558   2.271 -0.0551  0.1712  0.0419
26511W        W41980  10.423  16.598   0.258 -0.1452 -0.3538  0.1638
26512W        W41981  10.713   8.416   0.097 -0.0097 -0.0796  0.0913
26513W        W41982   9.992  18.491   1.900  0.0165 -0.0207  0.2983
26514W        W41983  13.081  11.704  14.025 -0.0284 -0.1470 -0.2076
26515W        W41984  16.216   8.614   2.143  0.0219  0.2334  0.0853
26516W        W41985  11.640  16.706   0.837  0.1740  0.2220 -0.2368
26517W        W41986  12.155  18.559   5.359 -0.0060  0.0110  0.2037
26518W        W41987  17.853  13.907  12.609 -0.2129  0.0085  0.0637
26519W        W41988  15.268  13.713   3.338 -0.3233  0.4401 -0.0511
26520W        W41989  15.781   5.136  13.261 -0.0697  0.0257 -0.0838
26521W        W41990  14.479   0.464   3.068 -0.1244  0.3383 -0.1299
26522W        W41991  15.059  18.662   3.765  0.1649 -0.0051 -0.1580
26523W        W41992  15.368  15.780  12.215 -0.0442 -0.0283  0.0015
26524W        W41993   0.675   7.243  13.697 -0.5196  0.0087  0.1041
26525W        W41994   9.581   1.375   4.123 -0.2314  0.3086 -0.0634
26526W        W41995  18.679   4.853   2.777 -0.0697  0.0094 -0.0264
26527W        W41996   9.407  13.717   3.902 -0.1319  0.1128  0.2878
26528W        W41997  15.499  10.009   3.182  0.0561 -0.0183  0.0709
26529W        W41998  18.287   2.375  15.034  0.2632  0.2320  0.0395
26530W        W41999  13.796  12.715   2.544  0.3088 -0.4408 -0.3344
26531W        W42000   3.545   0.000  15.367  0.1541  0.0677  0.0783
26532W        W42001  12.505  15.178  15.074 -0.2323 -0.1599  0.0748
26533W        W42002  17.346  14.099  10.831 -0.1651 -0.0520 -0.1996
26534W        W42003  13.105  13.606  13.435  0.3530 -0.1135 -0.1542
26535W        W42004  15.311   1.929  13.448 -0.0323  0.1261 -0.0475
26536W        W42005   6.132   2.026   9.452  0.2500  0.1585 -0.1425
26537W        W42006  17.515   9.624   2.080 -0.0018  0.1517  0.3006
26538W        W42007  16.026   4.702   1.901  0.0291  0.0676  0.4666
26539W        W42008  16.268  17.674   0.720 -0.3134  0.0570  0.0803
26540W        W42009   0.527   4.792  11.851 -0.2186 -0.0373  0.0164
26541W        W42010   2.129   1.512  14.565 -0.0355 -0.0663  0.1537
26542W        W42011   6.702  12.473   2.535 -0.1382 -0.2193  0.0188
26543W        W42012   9.192   1.943   9.840 -0.2649  0.1494 -0.1637
26544W        W42013   8.635   5.129  15.014 -0.1546 -0.5033  0.0942
26545W        W42014  16.648  14.070  13.199 -0.2272 -0.0127  0.3120
26546W        W42015  18.802   2.089   4.718 -0.0834  0.2798  0.1141
26547W        W42016  14.023  12.495   0.856  0.1574  0.0228 -0.0311
26548W        W42017   0.712   0.906  14.708 -0.2605  0.2192  0.2080
26549W        W42018  14.689   2.143   0.334  0.0054  0.2418 -0.0310
26550W        W42019  12.996  15.196   4.601 -0.0425 -0.0408  0.1085
26551W        W42020   8.263   7.595   2.427 -0.3606 -0.0727 -0.2654
26552W        W42021   2.470  11.963   4.984  0.0777  0.0519  0.4249
26553W        W42022  18.667   8.168   4.124 -0.1591  0.2149 -0.0813
26554W        W42023   0.760   2.919  11.685  0.2190  0.0232 -0.4360
26555W        W42024   2.201   8.306   4.722 -0.2535 -0.2030  0.1043
26556W        W42025   0.810   6.905  10.793  0.0316  0.0470 -0.2097
26557W        W42026   0.812  12.365  12.132 -0.0888 -0.2084  0.0011
26558W        W42027   2.633   2.674   1.366 -0.1821  0.0082  0.0371
26559W        W42028  10.671  10.649  11.322 -0.1245 -0.0033  0.2325
26560W        W42029   6.219   3.249   0.144 -0.0326 -0.2563 -0.0322
26561W        W42030  10.381  17.954  15.449  0.0966  0.0986  0.0285
26562W        W42031   5.687  13.059   3.956 -0.3716 -0.0440 -0.2558
26563W        W42032   1.431  17.404   2.640  0.0019 -0.2952 -0.0913
26564W        W42033  12.151   4.573   2.366  0.2193 -0.0097  0.1034
26565W        W42034  14.344  15.635  14.902  0.0461 -0.2231 -0.1007
26566W        W42035   7.229  17.981   2.486  0.0312 -0.1169 -0.0436
26567W        W42036   2.191   8.321  13.499  0.0982  0.2749 -0.1677
26568W        W42037  15.844   7.986  13.885 -0.3500 -0.1241 -0.0918
26569W        W42038   1.014  18.570   5.065  0.0093 -0.0927  0.1490
26570W        W42039  16.431   0.771   2.576 -0.0339 -0.3849  0.0189
26571W        W42040   5.463   5.344   3.730  0.3676 -0.0506  0.1748
26572W        W42041  12.394   8.302  11.402 -0.0720 -0.0863  0.5373
26573W        W42042  11.902  12.415   0.676  0.2803 -0.1629  0.0908
26574W        W42043   1.275   3.393  10.254  0.0084 -0.2151 -0.1207
26575W        W42044  11.444   4.529  11.809 -0.0972 -0.5200 -0.0940
26576W        W42045  11.945   7.804  14.193 -0.0026  0.2712 -0.0939
26577W        W42046   1.771  10.628  12.656 -0.2301 -0.3610  0.1678
26578W        W42047  17.156  11.490   3.139 -0.1798  0.1349  0.0523
26579W        W42048   8.166  13.390  13.905 -0.1084  0.1723 -0.4477
26580W        W42049  15.054   0.674  15.477  0.3078 -0.4097 -0.2065
26581W        W42050  14.581  12.129   5.046 -0.3552 -0.0908  0.0331
26582W        W42051   1.728  18.628   0.104  0.1447  0.1551  0.0066
26583W        W42052   0.027   6.301  12.401  0.2372 -0.1565 -0.6814
26584W        W42053   2.628  11.307   1.711  0.0958 -0.0100 -0.2820
26585W        W42054  14.338   7.952  12.291 -0.0565 -0.2721 -0.2717
26586W        W42055  13.903  13.150   1.640 -0.0786 -0.0413 -0.0522
26587W        W42056  11.654  18.123   2.922  0.1324 -0.3127 -0.2133
26588W        W42057   3.282   7.950   0.746 -0.1437  0.1514 -0.0137
26589W        W42058   7.873   9.223   1.506  0.0862  0.1768  0.2486
26590W        W42059  13.534   8.111   5.432 -0.1998  0.0276 -0.0720
26591W        W42060  10.697  11.419   5.130  0.1902 -0.0157  0.0440
26592W        W42061   5.584  12.705   1.837  0.0556 -0.0570 -0.1855
26593W        W42062   6.660   4.094  11.116 -0.0443  0.4189  0.1259
26594W        W42063   0.145  10.512  10.407  0.1493  0.1311  0.1230
26595W        W42064  13.487   0.425  14.152  0.1447 -0.1722  0.3280
26596W        W42065   5.236   5.546   0.679 -0.4677  0.1051 -0.0933
26597W        W42066  15.817   4.496   0.852 -0.2345  0.0022 -0.4249
26598W        W42067  11.030   0.677   1.121  0.0860  0.2086 -0.0998
26599W        W42068  12.390   5.673   1.864 -0.0720 -0.0531 -0.0299
26600W        W42069   5.753  16.479   3.188  0.1132 -0.1406  0.3458
26601W        W42070   1.922   9.788  13.521 -0.1566 -0.1243  0.0050
26602W        W42071   9.469  15.995   4.907 -0.2571 -0.2688  0.0311
26603W        W42072  18.216   6.096   1.520  0.1254 -0.1295 -0.1696
26604W        W42073   7.481   3.507  14.785  0.1068 -0.0352  0.0444
26605W        W42074  15.458   2.520  13.552  0.0092  0.1452  0.0390
26606W        W42075   5.922  17.131  10.822 -0.2109 -0.0408 -0.3330
26607W        W42076   1.770   1.354   3.459 -0.0458  0.0921 -0.2345
26608W        W42077   6.947   6.825  12.450 -0.0611  0.1841  0.2652
26609W        W42078   7.154  15.323  15.218  0.0444 -0.0940  0.0525
26610W        W42079   4.791   5.307  11.537  0.1598 -0.0903  0.0392
26611W        W42080  13.787   5.191   4.321  0.1152  0.0780 -0.0788
26612W        W42081   3.979  17.598   4.327 -0.0441 -0.2024 -0.2428
26613W        W42082   0.999  12.185   3.970 -0.3616  0.2362  0.2890
26614W        W42083   8.589  17.099  11.125  0.0603 -0.0361 -0.0450
26615W        W42084   2.176   0.065  14.785  0.1234  0.0658 -0.0107
26616W        W42085  16.314   0.627  13.023  0.2773 -0.1499  0.0434
26617W        W42086  16.775  18.680  13.969 -0.1511  0.0551  0.1687
26618W        W42087  10.133  14.572  15.036 -0.3466 -0.0377  0.2725
26619W        W42088  13.316   0.709  13.271 -0.3120  0.1047 -0.1428
26620W        W42089  17.131  18.349  11.918 -0.1751 -0.0067 -0.1204
26621W        W42090   0.865   9.715   1.824  0.0185  0.0264 -0.0448
26622W        W42091   1.900   4.372   1.144 -0.1042 -0.0951 -0.0215
26623W        W42092  15.591  14.616  13.600  0.0003 -0.0436 -0.1089
26624W        W42093  18.428   9.010  13.251  0.0991  0.4498  0.1103
26625W        W42094   0.499  16.221   1.798 -0.0488 -0.0373 -0.0321
26626W        W42095   4.478   8.494   0.249  0.0356 -0.3175  0.0143
26627W        W42096   8.303   6.939   4.879  0.0274 -0.1249 -0.2643
26628W        W42097  16.832  13.777  12.349 -0.0188 -0.1404  0.0143
26629W        W42098  17.356  13.180   0.517  0.0598 -0.3015 -0.1397
26630W        W42099  14.218   4.849  10.490 -0.3070  0.1265  0.0069
26631W        W42100   5.542   3.373   4.237 -0.1546  0.1054  0.1690
26632W        W42101  14.528   5.765  10.130 -0.1165  0.0199 -0.0900
26633W        W42102   5.130  16.032  12.695  0.0268 -0.1649  0.0585
26634W        W42103   3.891  11.843  11.860  0.0593  0.1274  0.0506
26635W        W42104  18.661   3.715   3.336 -0.1100 -0.0499  0.2294
26636W        W42105   8.837   2.308  13.458  0.1131 -0.0652 -0.0936
26637W        W42106  12.000  12.989  12.016  0.2414  0.1550 -0.1289
26638W        W42107   1.135  16.922   5.058  0.0422  0.0258 -0.0653
26639W        W42108   2.454  18.175  14.294 -0.0867  0.1862  0.1811
26640W        W42109   1.833  14.292   2.903  0.0687 -0.0903 -0.1423
26641W        W42110   1.734  14.722  10.388  0.0099 -0.1478 -0.1203
26642W        W42111  14.027  11.274   5.150 -0.4545 -0.0675  0.1180
26643W        W42112   7.734   3.960  14.519  0.0248  0.0490 -0.0904
26644W        W42113   3.602   8.971  12.577  0.1145 -0.1739  0.1312
26645W        W42114  17.698   9.803  15.309  0.1392  0.3198  0.0324
26646W        W42115  13.898  13.402   1.228  0.1393  0.3112 -0.1147
26647W        W42116  16.548  14.994  15.202  0.2704 -0.1121  0.1369
26648W        W42117   4.929   9.324   4.470 -0.1695  0.4262  0.0301
26649W        W42118  14.540   9.375  14.995  0.1804  0.1276 -0.0631
26650W        W42119  12.807  10.098   4.204 -0.0148 -0.4583  0.3344
26651W        W42120   5.632   7.421   3.454  0.3317  0.1334 -0.1068
26652W        W42121  10.544   2.572  12.480  0.1824 -0.3768 -0.1539
26653W        W42122  12.243  10.432   0.844 -0.1236  0.0190  0.0112
26654W        W42123  12.619   7.107   5.219  0.2874 -0.4357 -0.2026
26655W        W42124   0.004  16.467  12.229  0.3057 -0.0422 -0.1945
26656W        W42125   0.939   8.567  14.690 -0.0382  0.0648  0.3016
26657W        W42126  18.915   7.781   4.610  0.0066 -0.0594 -0.5569
26658W        W42127  17.420   5.241   0.664  0.4571 -0.1436  0.0652
26659W        W42128   8.342   4.214  13.065 -0.3673 -0.0017  0.2995
26660W        W42129   4.403  17.312   1.044  0.0608  0.0842 -0.3081
26661W        W42130  17.388  16.819  13.841 -0.3417  0.0574  0.1190
26662W        W42131   1.152  12.334   3.252 -0.3040 -0.3763  0.2125
26663W        W42132   7.545  16.530   2.756  0.1368 -0.2145  0.2460
26664W        W42133   1.055   0.875   3.229 -0.0488  0.1587 -0.0390
26665W        W42134  15.086  10.518  10.773 -0.0810  0.0404 -0.2057
26666W        W42135   4.856   8.234  12.974 -0.1614 -0.0656  0.2663
26667W        W42136   1.021   7.144  14.933  0.0619  0.1768  0.0189
26668W        W42137   9.634  16.876  13.575 -0.0227 -0.3067  0.2612
26669W        W42138  17.608   3.463  10.981  0.2653  0.0707  0.2612
26670W        W42139  13.172   9.625   4.666 -0.2212  0.0886 -0.0628
26671W        W42140   9.509  12.335  14.999 -0.1133  0.0364  0.1494
26672W        W42141   5.443  16.778   2.082  0.0589  0.4313  0.1509
26673W        W42142  14.580   8.827   3.385 -0.1030  0.3555 -0.0180
26674W        W42143   4.740   9.645   4.125  0.2525  0.1317 -0.1164
26675W        W42144  15.661   1.288   0.914  0.2047 -0.2851 -0.3079
26676W        W42145  12.504   1.632  12.764 -0.2511  0.0229  0.0983
26677W        W42146   5.831   3.430  15.420  0.0917  0.0988 -0.0637
26678W        W42147   8.234  17.354   2.954  0.0669 -0.5767 -0.4705
26679W        W42148   3.346  12.141   0.680 -0.0104 -0.1033 -0.0406
26680W        W42149   6.711   1.939   3.646  0.0733  0.2737  0.0575
26681W        W42150  17.633   3.029   3.196 -0.0647  0.0247 -0.4124
26682W        W42151   3.271  17.607  13.990  0.1650 -0.3272 -0.2017
26683W        W42152   0.060  12.806   4.639 -0.4171 -0.1193 -0.6234
26684W        W42153  10.139  17.616   2.243  0.0045  0.2402  0.1090
26685W        W42154   1.662  13.702   2.788 -0.0564 -0.1933  0.0372
26686W        W42155  16.818   0.775  14.904  0.0893 -0.1649  0.2509
26687W        W42156   5.865   2.166  12.360 -0.2451  0.1188 -0.1069
26688W        W42157   1.951   1.813   3.571  0.2924  0.1001  0.1566
26689W        W42158  10.443   4.338   0.330 -0.3167 -0.0168  0.0593
26690W        W42159  15.240   8.848  11.388 -0.1247 -0.1552 -0.4605
26691W        W42160   8.305  15.078  10.423  0.1803 -0.1997  0.1274
26692W        W42161   8.144  15.992   0.207 -0.3184  0.1239  0.0656
26693W        W42162   9.451  17.120  13.046 -0.1199  0.0520 -0.2750
26694W        W42163   1.539   0.851   5.059 -0.4565  0.1452 -0.2663
26695W        W42164   2.821   9.143   2.797  0.1611 -0.0652 -0.2314
26696W        W42165  10.319  17.408   3.303  0.1711 -0.0566  0.1321
26697W        W42166   5.805  11.018   3.879 -0.1683 -0.1165  0.1468
26698W        W42167   6.210  16.123  13.189  0.1507 -0.1485 -0.2151
26699W        W42168  18.406   7.695   0.434 -0.1758  0.1635 -0.3629
26700W        W42169   5.565  10.992   1.244 -0.3454 -0.0777  0.0112
26701W        W42170  18.609   3.722  14.169  0.1581 -0.2513  0.1484
26702W        W42171   4.671   6.893  11.077  0.0861 -0.1861  0.1688
26703W        W42172   1.772  11.173  11.126  0.3080 -0.0701  0.0548
26704W        W42173   3.693  18.148  12.047  0.2238 -0.0064 -0.2091
26705W        W42174   0.312  11.908   5.689 -0.3009  0.3980  0.1585
26706W        W42175  17.177   4.505   9.176  0.1916  0.2930  0.1730
26707W        W42176   3.658  15.065  12.325  0.0589 -0.0537 -0.1549
26708W        W42177   5.426   8.453  11.643 -0.0674  0.1784 -0.0325
26709W        W42178   3.406   1.740  13.880 -0.0943 -0.0029 -0.2378
26710W        W42179  18.867   8.748  11.160 -0.2493  0.2131  0.1761
26711W        W42180  12.151  14.361  13.584 -0.5435 -0.1356  0.1125
26712W        W42181   7.876  15.743  11.787  0.3297 -0.0460  0.2580
26713W        W42182   8.563  11.418  13.158  0.2886  0.1419  0.1191
26714W        W42183  11.926   4.385  12.505 -0.2414  0.1488 -0.0793
26715W        W42184  10.342   9.025  12.645 -0.2304 -0.0991  0.0291
26716W        W42185  13.713   7.595   2.900 -0.0071  0.2730 -0.2195
26717W        W42186  15.525  15.346  14.442 -0.1397  0.1755  0.3296
26718W        W42187  15.651   7.968  11.677 -0.1644  0.0033  0.2853
26719W        W42188  11.053  11.302  13.230  0.1677  0.0930  0.0250
26720W        W42189  15.895  12.025  15.096 -0.2350 -0.0886  0.1268
26721W        W42190   9.863  12.394   1.584  0.0074 -0.2500 -0.2786
26722W        W42191  17.164  10.114   3.852 -0.0336  0.0264  0.0254
26723W        W42192  13.430   0.022   2.637 -0.0892 -0.2294 -0.2646
26724W        W42193   0.709  18.444  12.153 -0.0301 -0.2931 -0.1381
26725W        W42194   2.697   1.496   3.048  0.1778 -0.1722  0.1382
26726W        W42195   6.789   3.009  13.751  0.2266 -0.0894 -0.1135
26727W        W42196  12.707   1.944   3.753 -0.0631 -0.2025 -0.0902
26728W        W42197   9.350   0.657   2.842 -0.1876 -0.2482 -0.0599
26729W        W42198  18.491  18.530   4.892 -0.0980 -0.2093  0.3067
26730W        W42199   8.270  11.246  14.234  0.3030 -0.0814 -0.0955
26731W        W42200   1.052  15.016   5.244 -0.2303 -0.0206 -0.0350
26732W        W42201   9.807  12.163  10.701 -0.0886  0.1864 -0.2031
26733W        W42202   0.792   3.684   2.046  0.0580  0.4505  0.0191
26734W        W42203   2.484  13.348  11.166 -0.0891  0.0416  0.1020
26735W        W42204  10.335  15.030   0.871 -0.5648  0.0542 -0.4015
26736W        W42205  17.497   2.171   3.866 -0.0697 -0.0332  0.0090
26737W        W42206  13.977   9.282  14.081 -0.0468  0.1113  0.2595
26738W        W42207   1.073  16.303  12.409  0.2132 -0.3626 -0.0240
26739W        W42208   8.271   5.859  11.351 -0.1937 -0.2260 -0.1652
26740W        W42209   8.451   0.087   3.319 -0.0646 -0.3867  0.2082
26741W        W42210   1.172  14.809  15.035  0.2249 -0.1845 -0.3241
26742W        W42211  18.176  18.119  14.180  0.1640  0.0952  0.0112
26743W        W42212   0.738  11.577   1.583  0.1005 -0.1085 -0.0083
26744W        W42213  15.486  14.813  12.325  0.0180 -0.3125  0.1165
26745W        W42214  15.234   7.524   1.064 -0.1320  0.1715  0.3359
26746W        W42215  13.160  16.391  15.233  0.1100 -0.2553 -0.3249
26747W        W42216   8.743   0.540   3.152 -0.0201  0.1401 -0.1417
26748W        W42217  12.960   6.191   3.470 -0.2352 -0.0703  0.1226
26749W        W42218   1.688  15.839  14.159  0.2201  0.2147 -0.2152
26750W        W42219  15.016  17.583   0.636 -0.2063 -0.3467 -0.0349
26751W        W42220  11.911  11.532   2.561 -0.1066  0.2378 -0.0557
26752W        W42221  15.402   5.187   0.413 -0.1867  0.0536  0.1938
26753W        W42222   8.547  17.398  11.530  0.1312  0.0862 -0.2672
26754W        W42223   8.044  15.409   4.040 -0.3210  0.0193 -0.0897
26755W        W42224  16.657  11.849   0.842  0.3735  0.1063  0.2175
26756W        W42225   9.371   1.840  14.049 -0.1558 -0.4067  0.0841
26757W        W42226  10.485  15.895   4.850 -0.1029 -0.0279  0.0403
26758W        W42227   4.843   5.424   3.147  0.0441  0.0416 -0.0812
26759W        W42228   0.073  18.862  11.897  0.0193 -0.1273 -0.0747
26760W        W42229   8.085   8.478  11.705 -0.4415  0.0644 -0.3827
26761W        W42230   6.638   2.414   3.267  0.1050  0.0992  0.1391
26762W        W42231  15.325  12.539   4.175  0.1840 -0.2573  0.0150
26763W        W42232   4.595   0.294   3.815 -0.0802 -0.1919  0.2473
26764W        W42233  17.072  12.994   4.644  0.0132 -0.1403 -0.0283
26765W        W42234  10.664   1.303  15.497  0.4110 -0.1595  0.0379
26766W        W42235   5.085  18.153  14.636  0.2117 -0.0215 -0.0561
26767W        W42236   2.547  16.397  11.311  0.1373 -0.1234  0.2415
26768W        W42237  10.573  16.290  11.324 -0.1682 -0.1946  0.2743
26769W        W42238  10.032   2.028  10.795 -0.2929 -0.1113  0.0372
26770W        W42239   8.303  14.566   3.278 -0.2738 -0.3010  0.2403
26771W        W42240  18.457  17.109   4.677  0.1717 -0.0045 -0.1354
26772W        W42241  12.377   3.524  11.123  0.0989 -0.0090 -0.2138
26773W        W42242   3.330   5.788  10.468 -0.2153 -0.3591  0.2019
26774W        W42243  14.911   8.637  13.737 -0.1516 -0.2183  0.2276
26775W        W42244  16.071  16.449  13.357 -0.1211 -0.0915  0.3107
26776W        W42245   9.342  15.745   3.603  0.2130 -0.0517  0.0615
26777W        W42246  16.242  13.714  11.653  0.1876 -0.2053  0.1720
26778W        W42247   9.360   2.700  13.602 -0.2713  0.0893 -0.3148
26779W        W42248  18.448   8.571  15.412  0.0036 -0.1218 -0.1811
26780W        W42249   5.578  14.178   0.721  0.0064  0.0969 -0.0243
26781W        W42250   5.936  18.336   3.652  0.1846  0.1702 -0.1844
26782W        W42251  14.202   4.279   2.712  0.0858  0.2676  0.1556
26783W        W42252   1.154  14.772   5.947  0.0541  0.1642  0.0334
26784W        W42253  11.946  16.447   1.096 -0.1033  0.0279 -0.2638
26785W        W42254   7.589  16.282  11.485  0.0167  0.0127  0.2365
26786W        W42255  16.471   2.881   2.688  0.1911  0.2109  0.3691
26787W        W42256  10.499  15.918   5.787 -0.0846  0.2148  0.1811
26788W        W42257   9.439  11.225   4.526  0.0107 -0.0646  0.0527
26789W        W42258   1.767   1.751   4.162 -0.0615  0.0941  0.0144
26790W        W42259  10.351  10.476  10.260  0.1125  0.1979  0.0938
26791W        W42260   2.071   7.208  11.621 -0.0968 -0.1348  0.2093
26792W        W42261   9.974   0.651   4.522 -0.0941 -0.3612 -0.4069
26793W        W42262  14.850  12.356   3.958  0.1377 -0.0043  0.3177
26794W        W42263   4.287   9.787   2.851 -0.0918 -0.2558 -0.0719
26795W        W42264   1.782  14.367  14.702 -0.4115  0.3623  0.0177
26796W        W42265  10.754  17.350   5.069  0.3481  0.1350 -0.2760
26797W        W42266  12.301  12.499  13.158  0.1331 -0.1852  0.0271
26798W        W42267  17.818   3.487  11.886  0.1105 -0.0676 -0.0287
26799W        W42268  18.931  10.621  11.372  0.1534  0.2201 -0.0687
26800W        W42269   8.462   7.740  15.303  0.1549  0.2331 -0.0963
26801W        W42270   1.419   7.874   1.260 -0.2511  0.1174  0.1669
26802W        W42271  13.762   3.564   0.634 -0.1639  0.2098  0.0489
26803W        W42272   5.088   7.721  13.728 -0.1250 -0.0799 -0.3936
26804W        W42273   3.801   9.608   0.632  0.2306 -0.2827  0.0541
26805W        W42274   9.449   2.051   1.078  0.2738  0.1072  0.4235
26806W        W42275   3.279   4.532   1.044  0.1437 -0.1490 -0.1613
26807W        W42276   4.642  17.739  11.119 -0.0926  0.1436  0.4106
26808W        W42277  18.807   8.168  11.075  0.1732 -0.0629  0.1358
26809W        W42278  11.576   5.668  13.673  0.1462  0.0758 -0.0197
26810W        W42279   6.225   1.823  12.453  0.0210 -0.0797  0.0169
26811W        W42280  13.488   2.354   1.553 -0.0407 -0.1020  0.2253
26812W        W42281  13.026  13.430  10.833  0.2278 -0.0312  0.5140
26813W        W42282   0.416   8.485   2.297 -0.3317 -0.0075  0.0595
26814W        W42283   3.820  16.502  11.553 -0.0939 -0.2538 -0.2299
26815W        W42284  14.705   1.539  12.951  0.0467  0.1335  0.0729
26816W        W42285   1.912   1.667   0.358  0.0860 -0.1855 -0.1150
26817W        W42286  14.033   9.067   3.785  0.2570 -0.3159  0.1042
26818W        W42287  13.222  18.303  11.977 -0.2350  0.0834  0.2048
26819W        W42288  18.836  10.064   9.352 -0.1150  0.1589 -0.0067
26820W        W42289  14.531   8.382  14.161  0.0268 -0.1334  0.1347
26821W        W42290   9.228  15.514  12.059 -0.2452  0.3585 -0.0932
26822W        W42291   1.615  11.697   2.536 -0.0775 -0.2993  0.0141
26823W        W42292   4.228   8.893   1.757 -0.1206 -0.2079  0.1486
26824W        W42293  10.274  16.212   4.284  0.2966 -0.0822  0.1817
26825W        W42294  14.001  18.343   4.097  0.0203 -0.0213  0.1556
26826W        W42295   4.684   8.809   1.526 -0.2219 -0.1995 -0.0172
26827W        W42296   3.734  15.706   0.566  0.2512 -0.2597  0.1026
26828W        W42297  10.498   0.879   3.422  0.1037 -0.1335  0.2136
26829W        W42298  12.096  15.168   9.975 -0.1477  0.1021 -0.0079
26830W        W42299   4.665  15.778   2.916  0.0915 -0.0384  0.0349
26831W        W42300  17.284  13.513   1.949  0.0274 -0.0042 -0.0876
26832W        W42301  10.689  11.930   5.020  0.1447  0.0919 -0.3353
26833W        W42302  17.781   3.786   3.754  0.0384  0.0999  0.1182
26834W        W42303   9.694   3.418   4.991 -0.3002 -0.0304  0.0788
26835W        W42304  13.228  15.493   2.660 -0.0759 -0.0283  0.1333
26836W        W42305   4.745   4.377   0.084 -0.3380  0.1230  0.3373
26837W        W42306   0.270   4.941   3.695 -0.0515 -0.0897 -0.1380
26838W        W42307   2.857  17.069  11.436  0.2717  0.0608 -0.2294
26839W        W42308   1.665   2.734  14.608  0.0963  0.1568 -0.0697
26840W        W42309   7.255   0.453   1.791  0.0363  0.3968  0.0075
26841W        W42310  13.066  10.417  11.404  0.1003  0.3792  0.1689
26842W        W42311  11.578   6.390   2.285 -0.2752  0.1848 -0.0678
26843W        W42312   2.906   0.536  10.193  0.2611  0.1276  0.2013
26844W        W42313   9.272  10.001   4.248 -0.1472  0.0237  0.0953
26845W        W42314   3.089   1.944  12.991 -0.0318  0.1191 -0.1886
26846W        W42315   6.958   3.565   3.225 -0.2600 -0.2131 -0.2277
26847W        W42316   4.090  16.413   4.320  0.2888  0.0821 -0.1237
26848W        W42317   3.403   2.607  11.324  0.0863  0.3961 -0.2043
26849W        W42318   6.576   1.952   1.329 -0.0116  0.1736 -0.1598
26850W        W42319   9.569  15.718  14.624  0.2317 -0.0438  0.1692
26851W        W42320   3.886   2.857   2.146 -0.1513 -0.0743  0.0092
26852W        W42321   6.520   6.664   1.987  0.0053 -0.1138  0.0242
26853W        W42322   4.754   0.067  15.152 -0.0980 -0.2500 -0.2407
26854W        W42323  14.469  16.132   2.065 -0.1811 -0.1468 -0.0726
26855W        W42324   4.113   7.704   2.826  0.1658 -0.0878 -0.0030
26856W        W42325   7.177  15.604  12.736 -0.1609  0.3370 -0.0584
26857W        W42326  16.580   2.313   1.798 -0.1894 -0.0828 -0.0726
26858W        W42327  16.265   1.692  14.415  0.3889  0.2127 -0.1848
26859W        W42328   7.312   4.946   0.261 -0.0541 -0.0116  0.2013
26860W        W42329  10.530   2.670  15.211 -0.0757  0.0820 -0.0602
26861W        W42330  14.880   0.925   9.466  0.0127  0.2077 -0.0901
26862W        W42331  15.984  16.926   0.034 -0.1195  0.1417 -0.3089
26863W        W42332   8.267   4.920   0.700  0.0680 -0.0283  0.1893
26864W        W42333   7.664  17.804  11.308  0.1922 -0.1594 -0.1765
26865W        W42334  14.904  12.846   5.805 -0.1381 -0.1466 -0.2721
26866W        W42335  15.343  14.032   1.056 -0.0006  0.1881  0.2180
26867W        W42336   5.455  14.788  11.819 -0.1460 -0.0148 -0.0391
26868W        W42337  18.458  12.156   2.376  0.0275 -0.1286 -0.0228
26869W        W42338  16.424   5.254   3.863 -0.0842 -0.0117  0.2252
26870W        W42339  11.830   1.541  11.226  0.1676 -0.0111 -0.2383
26871W        W42340   6.809  12.665   4.311 -0.0067  0.2691  0.2944
26872W        W42341   2.977  11.096   9.675  0.0264  0.2537  0.0059
26873W        W42342   3.164   1.158   0.053  0.3327  0.0189  0.0935
26874W        W42343  18.780   2.044   0.292 -0.3631  0.0351  0.0058
26875W        W42344   7.702   0.226   1.552  0.0090  0.3010 -0.4555
26876W        W42345   8.947  15.199  14.674 -0.1296  0.1422 -0.0468
26877W        W42346   6.563   8.002   5.579  0.0377 -0.0433  0.0489
26878W        W42347  18.895   7.632  10.987  0.3609 -0.1329  0.1041
26879W        W42348   7.660  16.517   0.087  0.0759 -0.1239 -0.0780
26880W        W42349  13.302   8.342  10.478  0.2304  0.0491  0.0189
26881W        W42350   3.732   8.725  10.645  0.4392 -0.0934 -0.0322
26882W        W42351  12.126  12.646  14.839  0.3263  0.0752 -0.2084
26883W        W42352  12.212   0.592   3.959 -0.0893 -0.2276  0.2051
26884W        W42353  11.818   8.225   1.839  0.1964  0.0112 -0.3041
26885W        W42354   0.408   3.163   5.694 -0.1585  0.4156 -0.2103
26886W        W42355   7.997  12.349  14.325 -0.2220  0.0335  0.3157
26887W        W42356  14.400  13.781  12.437  0.0953 -0.2894  0.0471
26888W        W42357  13.122  16.707  14.809  0.0837 -0.3011  0.0593
26889W        W42358  11.136  14.983   1.532  0.0579  0.0966 -0.4661
26890W        W42359   3.558   2.430   4.147  0.2720  0.0852 -0.1144
26891W        W42360  11.224  14.226   0.353 -0.0501 -0.0078 -0.0040
26892W        W42361   3.003  12.300  12.269 -0.0687 -0.1480 -0.1305
26893W        W42362  12.456   8.805   4.696 -0.0336  0.0652  0.1128
26894W        W42363  15.455  10.664  15.161  0.4889 -0.1002  0.2057
26895W        W42364   7.077  15.534   4.998  0.1596  0.0625  0.2018
26896W        W42365  12.242  10.439  15.431  0.0473 -0.2112 -0.0083
26897W        W42366  15.855   7.142  12.983 -0.4216 -0.0675  0.0138
26898W        W42367   4.236   1.189  15.068  0.1058 -0.3647 -0.2574
26899W        W42368  12.707  13.956   3.084  0.1356  0.4501  0.1911
26900W        W42369  14.905   0.824   2.107 -0.0142  0.0583 -0.0140
26901W        W42370   7.171   3.002   1.623  0.0165 -0.1319  0.0487
26902W        W42371  10.846   3.313  14.084  0.0108  0.2289 -0.0488
26903W        W42372   3.372   9.895   3.364 -0.1503 -0.0847  0.0229
26904W        W42373  15.168   3.138  14.144  0.0193 -0.0862 -0.1243
26905W        W42374   3.469  17.815  13.588  0.1518  0.0650 -0.2301
26906W        W42375  12.784  15.080   5.089  0.1080  0.3283 -0.1515
26907W        W42376   7.382  15.656  11.965 -0.0711  0.2557  0.1247
26908W        W42377  15.089  17.210  12.756 -0.2967  0.0536  0.0198
26909W        W42378  16.787  14.205  15.325 -0.0007 -0.0391  0.1910
26910W        W42379   1.843  18.035   3.012 -0.4708  0.2685 -0.2588
26911W        W42380   2.316  16.644  14.525 -0.0766 -0.1535  0.2612
26912W        W42381   7.912   1.898   1.184  0.1216  0.1578  0.3291
26913W        W42382   1.189   5.245  10.146  0.2378  0.0757  0.0740
26914W        W42383  13.512  14.405  15.135  0.2657  0.0871  0.1479
26915W        W42384   7.045   0.032  13.836  0.2351 -0.3652 -0.5212
26916W        W42385   5.965  14.104   0.446  0.0928  0.0147  0.0581
26917W        W42386  13.610   0.778   5.021 -0.1101  0.0095 -0.5596
26918W        W42387   9.960  13.293   3.194 -0.2541 -0.2213  0.3503
26919W        W42388   3.101   8.190  11.409  0.2021 -0.0415 -0.1490
26920W        W42389  14.036   9.924   3.990  0.0042 -0.1837  0.0616
26921W        W42390   9.570   8.630   4.244 -0.0054  0.2120  0.0900
26922W        W42391   9.902   0.687  10.934 -0.1244 -0.1019 -0.0705
26923W        W42392   0.606  18.474   3.472 -0.2330  0.2759 -0.1604
26924W        W42393   6.052   6.067  14.799 -0.1698 -0.0515 -0.3256
26925W        W42394  17.468   1.886   5.383  0.0513 -0.2078  0.3700
26926W        W42395  18.157   7.967   4.690  0.2353  0.1178 -0.4258
26927W        W42396   4.138  17.369   1.926  0.1672 -0.1879  0.1837
26928W        W42397   1.490   5.047   0.519  0.0563 -0.0314 -0.1018
26929W        W42398  17.099  13.923  13.215  0.1751 -0.0605 -0.2602
26930W        W42399  12.206  13.550   3.230  0.0335  0.3203  0.1073
26931W        W42400   8.406  17.725   4.383  0.1663  0.0748  0.3028
26932W        W42401   8.811   6.438  11.525 -0.0727 -0.1403  0.0370
26933W        W42402  18.466   7.183   0.678 -0.0020  0.0849  0.0987
26934W        W42403  14.209   2.307   2.033 -0.1647 -0.0683 -0.1989
26935W        W42404  18.589  13.493  13.695  0.2759  0.1922  0.1785
26936W        W42405  17.936   4.455   5.945 -0.4398 -0.0853 -0.1581
26937W        W42406  18.324  14.083  15.351  0.0372 -0.1473 -0.3391
26938W        W42407   1.364  14.848   4.519  0.1983 -0.0618 -0.2036
26939W        W42408   2.892  13.286  11.460  0.1621  0.1194  0.0696
26940W        W42409   8.878  12.722  15.500  0.2354 -0.2120 -0.0530
26941W        W42410   2.735  18.052  15.403  0.0698 -0.0417 -0.0527
26942W        W42411   8.582   2.302  13.914 -0.0948  0.2503  0.0224
26943W        W42412  10.430   7.000   5.238  0.2101  0.0985  0.0512
26944W        W42413  12.101  18.344   2.802 -0.2690  0.0239 -0.2193
26945W        W42414   0.226  10.970   1.854  0.2314 -0.1656  0.1353
26946W        W42415  18.803  11.634  14.974 -0.0894 -0.1652  0.0527
26947W        W42416  13.290  17.860  11.505  0.3576 -0.3966 -0.3265
26948W        W42417  16.800  16.437  13.164  0.3479 -0.0967  0.1027
26949W        W42418   1.523  18.213   0.313 -0.1739  0.0929 -0.3262
26950W        W42419   2.936   6.121  13.567  0.4294  0.0762 -0.0676
26951W        W42420  18.789   1.441   5.241 -0.2046 -0.2201  0.0988
26952W        W42421  12.131   1.339  14.663  0.2989  0.1001 -0.1414
26953W        W42422   8.564  10.156   1.029 -0.2077  0.0649 -0.2711
26954W        W42423  10.364   1.536  13.361  0.1949 -0.0045  0.1250
26955W        W42424  18.541  18.069  13.830  0.0319 -0.4576 -0.2629
26956W        W42425   3.988   0.394  14.581  0.0591 -0.2994 -0.2012
26957W        W42426  11.351   5.968  10.719  0.0197 -0.0334  0.1862
26958W        W42427   8.490   9.619   2.343  0.1877 -0.4366 -0.0217
26959W        W42428  18.495  16.567   1.930  0.1193 -0.0655 -0.0773
26960W        W42429   5.770   0.385   2.037 -0.1239 -0.2146  0.0103
26961W        W42430   5.014   2.946   2.381  0.1903  0.1416 -0.0795
26962W        W42431  13.605   6.321  11.028  0.0438 -0.0028  0.0887
26963W        W42432   9.609  14.725  10.800 -0.2124 -0.3077  0.1505
26964W        W42433  17.047  16.207  10.884 -0.2563 -0.1832  0.1715
26965W        W42434  14.942   6.697  13.489 -0.0930 -0.0445 -0.1426
26966W        W42435  18.880   4.489  14.709  0.2879  0.1769 -0.2824
26967W        W42436   1.667   9.361  12.525 -0.2267 -0.1099 -0.1829
26968W        W42437   6.184   9.954  13.814  0.4540  0.1581  0.0063
26969W        W42438   1.549  13.165   2.604 -0.2678  0.0259 -0.2528
26970W        W42439   4.921   9.859   3.581 -0.2153 -0.2302  0.2574
26971W        W42440   8.900   6.133   2.666  0.0833  0.1546  0.0647
26972W        W42441   3.671   7.302   9.900  0.0091 -0.2008 -0.2675
26973W        W42442  15.524  13.190   1.078 -0.1268 -0.1776  0.0755
26974W        W42443  10.411   5.667  13.603 -0.1011 -0.0268  0.0893
26975W        W42444   6.219  16.786   5.611  0.2068  0.0791  0.0110
26976W        W42445  15.664  14.059   0.642  0.0293  0.0062 -0.2585
26977W        W42446   7.317  13.958   5.532  0.1107 -0.1467  0.0710
26978W        W42447  14.088  12.576  14.495  0.2762  0.0887 -0.1953
26979W        W42448  14.990   1.790   3.083  0.1175 -0.1656 -0.1480
26980W        W42449   9.036   0.079  10.734  0.3296 -0.1178 -0.0337
26981W        W42450  11.085   3.029   3.742 -0.1312  0.0304 -0.1659
26982W        W42451   4.784   9.576  14.331 -0.0761 -0.0957 -0.0945
26983W        W42452   8.931  16.379   9.910 -0.2972  0.1764  0.1254
26984W        W42453  11.316   2.492  14.476 -0.1758 -0.0778  0.2169
26985W        W42454   2.945  18.206  14.515 -0.2517  0.2034 -0.1241
26986W        W42455  13.132   3.543   4.566 -0.1393 -0.0803 -0.0880
26987W        W42456  15.856   8.423  12.519 -0.0307 -0.2714  0.2292
26988W        W42457  15.586   6.563  10.787  0.1837 -0.4207 -0.0777
26989W        W42458  15.078   0.672   3.898 -0.0332  0.0283 -0.2338
26990W        W42459   4.690  16.702   5.002 -0.0689  0.4704 -0.0947
26991W        W42460   9.042   1.220  13.776  0.0184 -0.1881  0.0420
26992W        W42461   5.798   5.893   5.235 -0.0267 -0.1890 -0.2065
26993W        W42462   9.399  15.400   2.240 -0.1786 -0.0131 -0.2228
26994W        W42463  17.761  10.056  14.258  0.0980 -0.1991 -0.0348
26995W        W42464   0.717  11.703   0.490  0.2516 -0.1193 -0.0836
26996W        W42465  12.805   0.770   5.634  0.2610  0.3391  0.2613
26997W        W42466  12.543   3.624  14.847 -0.1812 -0.1653 -0.0466
26998W        W42467  14.248  15.418  11.404 -0.1457  0.0140 -0.0924
26999W        W42468   8.383  17.240   3.407  0.2366  0.0979  0.1263
27000W        W42469  10.070  12.515  14.984 -0.0243 -0.2836 -0.4198
27001W        W42470  12.807  17.405  14.110  0.2042  0.0737 -0.0619
27002W        W42471   2.438  10.734  13.769  0.1137 -0.0609  0.0806
27003W        W42472   9.080  13.121   5.443 -0.0255 -0.3326  0.3712
27004W        W42473   6.926   6.359   0.275  0.4536 -0.2055 -0.0961
27005W        W42474   2.923   5.846  14.706 -0.4601 -0.1218 -0.1727
27006W        W42475   0.309  13.049  12.629 -0.1362 -0.1882 -0.3094
27007W        W42476   7.701   2.286  14.248 -0.3395  0.0932 -0.5151
27008W        W42477   2.624  14.836   0.134  0.0672 -0.1348  0.2923
27009W        W42478   6.802   3.617   0.145 -0.3552  0.0627  0.1218
27010W        W42479  13.294   4.858   1.293 -0.2284  0.0186  0.1471
27011W        W42480   2.407  13.958   1.365  0.2291  0.0510 -0.2738
27012W        W42481  10.617   7.775   4.080  0.1694 -0.0272  0.0958
27013W        W42482   7.250  11.114   0.834 -0.0593  0.2552 -0.2451
27014W        W42483  14.695   0.678  15.151  0.0443 -0.5744 -0.4486
27015W        W42484   5.044   2.153  10.806 -0.2620 -0.1469  0.2724
27016W        W42485   8.081  18.395   2.296  0.2227  0.0610  0.0260
27017W        W42486   9.079  11.665   0.893 -0.2423  0.2395 -0.0943
27018W        W42487  14.668  12.013   0.389  0.1095  0.3067 -0.2348
27019W        W42488  10.193  12.790   5.509  0.0167  0.0831 -0.3009
27020W        W42489   6.669  11.527  14.926  0.1303 -0.1152  0.1939
27021W        W42490   9.151  14.526  12.988  0.2859  0.1418 -0.1001
27022W        W42491   9.311  16.039   1.420 -0.0054 -0.0657 -0.4475
27023W        W42492  10.398   1.735   4.203  0.1109  0.2997 -0.0520
27024W        W42493  10.497  13.737  15.296 -0.2227 -0.2133 -0.3448
27025W        W42494  16.977   2.271  14.462  0.1182  0.2938  0.2501
27026W        W42495   3.176   6.368   4.441  0.1351 -0.0368  0.2220
27027W        W42496  14.888  13.362  10.769  0.1897  0.2647  0.4803
27028W        W42497  12.494   3.804   3.039  0.1636  0.3580  0.0530
27029W        W42498  17.843   8.210   2.938  0.1925 -0.1446  0.2039
27030W        W42499   7.564  11.137  10.831  0.0268 -0.0042  0.0794
27031W        W42500  18.553   5.904   3.026  0.2599 -0.0132 -0.3737
27032W        W42501   9.034   6.403   4.774 -0.0029  0.2871  0.1280
27033W        W42502  11.604   4.510  14.796 -0.0562  0.0421  0.0614
27034W        W42503   0.055   4.021   1.439 -0.0018 -0.1801  0.2659
27035W        W42504  17.039   4.469  10.407 -0.0287  0.0422 -0.1910
27036W        W42505   8.839   4.150  14.223 -0.1209  0.2621 -0.1811
27037W        W42506  17.446  13.073   2.248  0.1684 -0.0346 -0.0703
27038W        W42507   0.299   6.130  14.221  0.1252  0.1678  0.5256
27039W        W42508   1.606   9.915   1.238  0.0687 -0.1803  0.0366
27040W        W42509   2.589   4.415   1.152  0.0028  0.0232  0.1781
27041W        W42510   8.745  10.132   4.385 -0.1266 -0.2840 -0.1334
27042W        W42511   7.550   9.758   4.469 -0.2463 -0.0333  0.0977
27043W        W42512   5.401  12.236   0.569 -0.1472 -0.1943  0.2648
27044W        W42513   9.362  13.954   1.209 -0.1854 -0.0374  0.0192
27045W        W42514   0.162  16.287  13.091 -0.0699  0.0455  0.1581
27046W        W42515   9.791   2.651  13.938 -0.0696  0.0728  0.0275
27047W        W42516  15.814  12.884   3.903 -0.1929 -0.3650  0.1651
27048W        W42517   4.780   5.438   2.643  0.0333  0.5711  0.1138
27049W        W42518   1.435  14.653  11.349  0.2025 -0.0057  0.4485
27050W        W42519  12.910  14.575   3.741  0.1073  0.0453  0.1905
27051W        W42520   7.212   0.984  12.195  0.0450 -0.1764 -0.1093
27052W        W42521   2.183   6.551  13.842 -0.0012 -0.1507 -0.0439
27053W        W42522  14.242  15.697  13.912  0.1603  0.3214 -0.0077
27054W        W42523  16.180  14.360  10.918  0.0716  0.0293 -0.1883
27055W        W42524   9.801   9.378  11.362 -0.1810  0.1286  0.0686
27056W        W42525   4.018   4.635   3.944  0.1030 -0.4464 -0.1505
27057W        W42526   2.748  10.340   1.607 -0.0975 -0.1879  0.1663
27058W        W42527   3.187  18.169  13.275 -0.2636  0.3731 -0.1187
27059W        W42528   6.135   7.837   0.938  0.0866 -0.0622  0.1867
27060W        W42529   1.090  16.578   0.135  0.0496  0.1927 -0.0332
27061W        W42530   6.495  14.111   1.072 -0.1539  0.1622 -0.1937
27062W        W42531  13.568   4.901   1.815 -0.2198 -0.2555 -0.2274
27063W        W42532   5.772   9.335  12.852 -0.0192  0.1316 -0.0154
27064W        W42533   2.995   6.937  10.863  0.3044 -0.1565  0.1518
27065W        W42534   8.388  16.876  14.840  0.0580 -0.0881  0.6083
27066W        W42535  13.842   0.354  15.437  0.1416 -0.0619 -0.0588
27067W        W42536  10.044  12.076  14.700 -0.3631  0.2579 -0.3584
27068W        W42537   4.103   5.639  11.382 -0.0907  0.0211 -0.0773
27069W        W42538  15.510  16.924   5.388  0.2107  0.0287  0.0819
27070W        W42539   9.705   0.406   4.869 -0.3572 -0.1007 -0.2146
27071W        W42540   3.849   6.257   1.478  0.0008 -0.1243  0.2980
27072W        W42541   2.301  16.882  12.779  0.0029 -0.1807  0.1343
27073W        W42542   9.975   3.047   5.608 -0.0131  0.2628 -0.0554
27074W        W42543   8.345  13.963  11.117 -0.2875 -0.0059 -0.4761
27075W        W42544  10.683  13.051   3.096 -0.1102  0.1214 -0.3748
27076W        W42545  16.830  18.060   1.439 -0.3922 -0.0877 -0.0303
27077W        W42546   3.553  17.866   1.068 -0.2835  0.2496 -0.0560
27078W        W42547  16.658   7.738  13.625  0.1100 -0.2024 -0.1693
27079W        W42548  12.718   6.920  13.407  0.0048 -0.2232 -0.0186
27080W        W42549   7.186  12.510  11.127 -0.1042 -0.3941  0.1438
27081W        W42550   5.454   9.781  11.004  0.3293 -0.1317 -0.2485
27082W        W42551  15.725  14.348  12.398  0.2146 -0.0889 -0.0204
27083W        W42552   7.811   1.719   2.817 -0.0942 -0.2584 -0.1442
27084W        W42553   5.709   7.959   4.135  0.2323 -0.2055  0.1316
27085W        W42554   9.779   8.539   0.492 -0.0770 -0.1393  0.0931
27086W        W42555  14.531   4.963   1.676  0.0510 -0.3057 -0.0234
27087W        W42556  15.500   9.539  11.080 -0.1502 -0.1124 -0.0547
27088W        W42557  11.582  13.139  10.678  0.1710 -0.0109  0.0163
27089W        W42558   3.025  11.813   0.312 -0.1053 -0.1244 -0.2095
27090W        W42559   5.911  14.385  15.507 -0.0277 -0.1664 -0.0763
27091W        W42560   6.415   9.523  10.985 -0.0287  0.0303 -0.0568
27092W        W42561   1.150   7.094   3.251 -0.1798  0.0373  0.0674
27093W        W42562   4.533  12.795   0.409 -0.1531 -0.1998  0.4095
27094W        W42563   1.575   6.831   0.093 -0.3932 -0.0574 -0.0029
27095W        W42564  12.269   6.903  13.092 -0.0654  0.2246 -0.0704
27096W        W42565  10.625  12.979  10.936 -0.1243  0.1941 -0.1251
27097W        W42566  17.718   1.670  14.644 -0.1924 -0.3088 -0.3892
27098W        W42567   9.443   0.547   1.132  0.0892  0.1504 -0.0349
27099W        W42568   9.615   2.186   3.529 -0.1947 -0.1642  0.1367
27100W        W42569   2.140  14.761   2.349  0.0878 -0.0478  0.1731
27101W        W42570   0.709  17.393  14.416  0.3597  0.2329 -0.0093
27102W        W42571  16.145   5.858  10.691  0.1118 -0.0794 -0.2012
27103W        W42572   2.774  16.375   0.509 -0.3367 -0.0494  0.1210
27104W        W42573  12.360   3.816   0.464  0.3232 -0.3024  0.1293
27105W        W42574  18.171  17.573  14.426  0.0979 -0.0370 -0.2042
27106W        W42575   7.539  10.389   0.251 -0.0860  0.2755  0.2322
27107W        W42576   7.364   5.594  14.805 -0.1782 -0.3610 -0.0190
27108W        W42577  15.266   7.223   0.617  0.4959 -0.2509 -0.3676
27109W        W42578  13.837  12.949   2.082 -0.1363  0.2489 -0.1237
27110W        W42579  13.901   3.096  15.264 -0.2355 -0.0257 -0.2320
27111W        W42580  13.039  14.200   2.219  0.3690  0.0736 -0.0344
27112W        W42581   8.339   0.687   5.313  0.1602 -0.0531 -0.0500
27113W        W42582  10.297   5.110  11.236  0.2032 -0.0914 -0.0806
27114W        W42583   6.988   6.960  13.962  0.0285 -0.0361 -0.0083
27115W        W42584   7.239   2.709  13.930 -0.0059 -0.1778  0.0040
27116W        W42585   6.983  10.607  11.709  0.1396 -0.0521 -0.0061
27117W        W42586  10.137   7.278   0.821 -0.0521  0.0097  0.0024
27118W        W42587   2.260   6.696   4.325  0.0101  0.0354  0.1609
27119W        W42588   7.412   0.226   1.103  0.0168 -0.4345 -0.0947
27120W        W42589   1.916  15.201   5.356 -0.0893  0.0272  0.0995
27121W        W42590  14.828   0.144   2.905 -0.3834 -0.0961  0.5321
27122W        W42591   4.090  18.567  11.997 -0.3885  0.0150 -0.1258
27123W        W42592  14.568   0.340   2.086  0.1326  0.3783 -0.0531
27124W        W42593   2.783   5.512  12.765 -0.0752  0.1668  0.0270
27125W        W42594   4.987   5.095   1.914 -0.1738  0.2149 -0.0901
27126W        W42595  18.439   2.049  14.691  0.0479  0.0420 -0.0840
27127W        W42596  12.356   8.803   2.802 -0.0099 -0.2639 -0.0969
27128W        W42597   5.495   7.485   0.225  0.1669  0.5471 -0.0443
27129W        W42598  18.435   4.699  10.028  0.0743  0.1471  0.2503
27130W        W42599  18.020  17.789   0.918  0.0521  0.2665 -0.0451
27131W        W42600  12.022   4.246   4.062 -0.1795  0.0583  0.0352
27132W        W42601  12.760   4.369   5.378  0.2756  0.1623  0.0205
27133W        W42602   5.589   0.774  11.973  0.1986 -0.2970 -0.4085
27134W        W42603   3.088   8.485   1.353 -0.3113  0.1229 -0.1704
27135W        W42604   9.971   5.051   1.491  0.0508 -0.0823  0.1697
27136W        W42605   5.503  17.870   3.190 -0.2298 -0.2563  0.0611
27137W        W42606  15.392  15.043  13.779  0.2628 -0.0039 -0.3436
27138W        W42607  10.797   3.459  11.514 -0.0210  0.1579  0.1250
27139W        W42608  12.154  12.210   0.178 -0.1987  0.0205 -0.0657
27140W        W42609  16.490   5.511  11.922 -0.2660  0.3595  0.0076
27141W        W42610  16.194   2.400   5.157 -0.3363  0.1625 -0.0923
27142W        W42611  16.109   9.453   0.827  0.1483  0.1988 -0.1720
27143W        W42612   7.148  10.517   4.974 -0.1328 -0.1165  0.0276
27144W        W42613  15.673  11.808  14.257  0.2123  0.1313  0.1390
27145W        W42614  10.152  15.998  13.418  0.0400  0.0760  0.0212
27146W        W42615  18.746   3.680  12.367 -0.0714  0.1000  0.3235
27147W        W42616  14.403  13.698   0.172  0.0531  0.4620 -0.2580
27148W        W42617  17.145  16.476  12.202  0.0771  0.2817 -0.0892
27149W        W42618  13.429   3.702   2.518 -0.1192  0.0274  0.3451
27150W        W42619   7.524  15.513   0.913  0.0494  0.2669  0.0170
27151W        W42620  11.210   7.317   3.672 -0.0910 -0.1005 -0.1501
27152W        W42621   7.047   9.194  12.977  0.1425 -0.2407 -0.1713
27153W        W42622  11.129  13.280  10.920 -0.1485  0.1887 -0.1217
27154W        W42623   1.240   1.196  11.658  0.0402 -0.1112  0.2976
27155W        W42624  13.726   1.362  12.987 -0.0166 -0.2101  0.1103
27156W        W42625   7.720   5.875  13.070  0.1824  0.0212 -0.1220
27157W        W42626  18.247  14.611   2.332  0.2342  0.2472  0.0106
27158W        W42627  10.100  13.143  13.702  0.0948  0.2399 -0.1562
27159W        W42628   6.376   2.969  11.599  0.0218  0.1166  0.0398
27160W        W42629   5.561   0.612  14.815  0.2731 -0.2458  0.4175
27161W        W42630   9.618  18.208   4.276  0.0341 -0.0038  0.1243
27162W        W42631  10.053   3.289   1.563 -0.0658 -0.1559  0.1776
27163W        W42632   0.769   3.769  11.097  0.0552  0.0410 -0.1018
27164W        W42633   1.908  10.499   4.334 -0.0860 -0.0283 -0.1624
27165W        W42634  10.103   0.150  14.502 -0.1945 -0.1503 -0.3531
27166W        W42635   2.081   4.217   5.183  0.0793 -0.3891  0.1094
27167W        W42636   1.018   9.929  13.787 -0.0483  0.0838  0.0931
27168W        W42637  16.142   9.659  13.752  0.1234 -0.0081 -0.1892
27169W        W42638   5.617   2.770   2.933 -0.3764 -0.0296  0.0208
27170W        W42639  15.064  10.419  12.539  0.2430  0.3373  0.0014
27171W        W42640  10.819  15.866   1.544  0.0988  0.0936 -0.0209
27172W        W42641   7.160   4.504  11.068  0.0286 -0.2015 -0.0545
27173W        W42642   3.368  16.603   0.564 -0.2098  0.1258 -0.0045
27174W        W42643   3.743  12.017   2.846 -0.1029  0.0675 -0.1663
27175W        W42644  18.885   9.560   3.670  0.0212 -0.2994  0.0079
27176W        W42645   9.663  15.578  12.621  0.1553  0.2160  0.0311
27177W        W42646  13.561  11.973   3.457  0.0584  0.0932 -0.1851
27178W        W42647   6.069  13.683  12.477  0.1891  0.0043 -0.2553
27179W        W42648   7.705   4.486   2.621 -0.0547 -0.0377  0.0894
27180W        W42649  11.882  17.045   3.750 -0.0699 -0.3757  0.1199
27181W        W42650   5.030   9.492  11.691 -0.2378  0.0675 -0.0313
27182W        W42651   6.699   5.848  11.976  0.1158 -0.0499  0.1458
27183W        W42652   8.327  10.817   0.099 -0.1231 -0.2011  0.0424
27184W        W42653  16.743  18.628  15.504 -0.1494 -0.0255  0.2213
27185W        W42654   3.916  10.321  12.769  0.1304  0.1618 -0.2348
27186W        W42655   6.342  11.185   0.510  0.2154 -0.0892 -0.0447
27187W        W42656   8.173  10.476  10.783 -0.3651 -0.1329 -0.0407
27188W        W42657  12.421  11.477   2.694 -0.1810 -0.0462 -0.2437
27189W        W42658   1.215  14.169   0.881 -0.0553 -0.2728 -0.2577
27190W        W42659   1.477  16.907   2.268 -0.0386 -0.0749 -0.1050
27191W        W42660   0.332  14.396  13.378 -0.0766 -0.0248  0.2352
27192W        W42661   4.357  11.021  13.381  0.3131  0.1639 -0.4241
27193W        W42662  15.281   1.013  12.089  0.0825 -0.0340 -0.0217
27194W        W42663   6.412   7.029  15.142  0.0946  0.1334  0.4663
27195W        W42664  10.420  18.313  13.179  0.0593 -0.0041 -0.1640
27196W        W42665  15.192  15.559  14.703  0.2986  0.0678  0.0582
27197W        W42666   2.216   1.342  10.735  0.2079  0.0944  0.3917
27198W        W42667   6.322   3.407  14.580  0.0731  0.0020 -0.1996
27199W        W42668  13.027   6.911   4.441 -0.2972 -0.3207 -0.3968
27200W        W42669   3.711  13.105  13.218  0.1276 -0.3656  0.2686
27201W        W42670  15.238  11.317  12.106 -0.2469  0.0807  0.2723
27202W        W42671   6.087   7.387  14.343 -0.2830 -0.1411  0.2821
27203W        W42672  13.223  16.566   5.063 -0.0345  0.0895 -0.1884
27204W        W42673   5.009  10.067  12.730  0.1794  0.0197 -0.1298
27205W        W42674   7.748   1.993  13.801 -0.0558  0.0773  0.0210
27206W        W42675  13.783  14.095   5.060 -0.2175 -0.1634 -0.2312
27207W        W42676   8.622   5.062   3.511  0.4304  0.3100  0.1660
27208W        W42677   4.042  12.222   2.325  0.3944  0.1136 -0.2696
27209W        W42678  11.806  18.723  14.023  0.2578  0.4174 -0.3020
27210W        W42679   3.925  11.529   1.787  0.0373  0.2336  0.0391
27211W        W42680   4.536  10.041  14.539 -0.1565 -0.2488  0.3738
27212W        W42681  18.317   8.063   2.284  0.1169  0.3476  0.0643
27213W        W42682  16.855   7.746  14.589  0.0547 -0.2281  0.2518
27214W        W42683   5.466   3.062  15.311 -0.0613  0.2184  0.4173
27215W        W42684   1.924   3.863   0.764  0.1252  0.2609 -0.3170
27216W        W42685  12.863   9.068  12.027  0.0926  0.3112  0.0079
27217W        W42686   3.761   1.312   3.071 -0.0703  0.0224 -0.1249
27218W        W42687  13.049   6.425   2.904 -0.2059 -0.0960 -0.2141
27219W        W42688  17.254   8.040  12.812  0.1324  0.0950 -0.2535
27220W        W42689   0.074   0.494  11.073  0.1514  0.1559 -0.1387
27221W        W42690   5.452   8.973   2.143  0.2670 -0.2793  0.1918
27222W        W42691   3.604  11.079  10.870  0.1505 -0.1282  0.1976
27223W        W42692   2.782  16.933  12.423  0.0829  0.3518 -0.1067
27224W        W42693  13.522   1.938   1.846  0.4516  0.1572  0.2309
27225W        W42694   4.360   4.372   0.410 -0.0174  0.2111  0.2458
27226W        W42695  18.305  10.825   1.835 -0.0193 -0.2576  0.4373
27227W        W42696   8.868   0.323  11.226  0.3520  0.2607 -0.0647
27228W        W42697   1.401  18.205  14.848  0.0604 -0.0093  0.1629
27229W        W42698   6.392   0.407  14.382 -0.0764 -0.0898  0.0113
27230W        W42699  14.051  11.800   3.500 -0.0822  0.1455  0.0793
27231W        W42700  13.467   3.354  10.885  0.2153  0.0510 -0.2894
27232W        W42701   1.125   6.285   0.748  0.1958  0.0380 -0.1282
27233W        W42702   0.959  11.173   4.940  0.1716  0.1506  0.1496
27234W        W42703   0.840   7.635  13.333  0.0481  0.0142  0.1493
27235W        W42704   9.928   7.463   4.532 -0.3056 -0.3375  0.1977
27236W        W42705   3.685   2.486  13.925  0.0311 -0.0176  0.3564
27237W        W42706  17.819   7.493   3.696  0.3662  0.2147  0.2880
27238W        W42707  10.863  18.363   0.561 -0.0048  0.0369  0.0047
27239W        W42708  11.614  14.376  14.069 -0.3621  0.0092  0.1209
27240W        W42709   3.736  15.679   9.710  0.1347  0.2992 -0.0752
27241W        W42710  11.965   3.330  14.160 -0.2469  0.0360 -0.3146
27242W        W42711  15.892  10.308  14.938 -0.0536  0.1945  0.0876
27243W        W42712  10.400   9.906   1.418 -0.3943 -0.0736  0.4463
27244W        W42713   9.399  11.310  10.605 -0.1426 -0.0520  0.3161
27245W        W42714   9.487  12.766   1.037 -0.0496  0.1313 -0.1042
27246W        W42715   5.641   6.653  13.407 -0.0826  0.3521  0.4762
27247W        W42716   2.944   9.015   4.477 -0.0862  0.1884  0.1920
27248W        W42717   7.499   7.949  12.621  0.1319  0.2285  0.0166
27249W        W42718   3.499   1.948   4.584  0.0008 -0.1670  0.1677
27250W        W42719  16.043   5.673  15.113 -0.0247  0.0003  0.0304
27251W        W42720   8.057  17.647  11.571  0.1235  0.1076  0.0611
27252W        W42721   2.554   5.621   1.656  0.2444 -0.1536 -0.0041
27253W        W42722   0.842   4.244   0.118 -0.2552 -0.0789  0.1160
27254W        W42723   8.869   1.106   0.520 -0.2410 -0.0182 -0.3107
27255W        W42724  14.546   0.897   5.415 -0.1456  0.0501 -0.0157
27256W        W42725   0.843   1.927   1.775  0.1990  0.5006  0.0545
27257W        W42726   5.312   3.557   0.178 -0.2722 -0.3280  0.2544
27258W        W42727   4.733  15.292  15.203  0.0102  0.2199 -0.0440
27259W        W42728   6.340   7.367   3.965 -0.1168 -0.2632  0.1509
27260W        W42729   6.179   8.299  15.141  0.1456  0.2001  0.0092
27261W        W42730   1.682  10.765  10.793 -0.1154  0.2034 -0.1204
27262W        W42731   5.769  13.845   2.985  0.2180 -0.0782  0.4518
27263W        W42732   3.250   4.355  13.864  0.2567 -0.0858  0.2452
27264W        W42733  18.023  13.349  10.957 -0.0505  0.4703  0.0047
27265W        W42734  17.698   3.668   1.412 -0.0347  0.1717  0.0343
27266W        W42735  11.238   7.760   1.524 -0.2591 -0.0549  0.1419
27267W        W42736   8.939   9.104  10.435  0.1873 -0.2671 -0.0752
27268W        W42737   5.172   6.067  13.512  0.2129  0.0877 -0.4863
27269W        W42738  17.494  15.125   1.936 -0.0889  0.1530  0.1335
27270W        W42739   1.464   4.487  14.795  0.1575 -0.2295  0.1544
27271W        W42740   9.689   7.582   0.019 -0.2614  0.1199 -0.1325
27272W        W42741  13.785  12.555   4.365  0.2466 -0.1188  0.0784
27273W        W42742  18.845  18.552   9.532 -0.3647  0.1032  0.0774
27274W        W42743   8.594   1.275  11.048 -0.0069  0.1062 -0.2211
27275W        W42744   5.117  17.562   0.168 -0.2525 -0.1097  0.0915
27276W        W42745   6.769   2.733   9.736 -0.2352 -0.0722 -0.0944
27277W        W42746   2.580   1.078   1.024 -0.3317 -0.3069  0.1622
27278W        W42747   5.716   6.351   1.020  0.0336  0.0539  0.0077
27279W        W42748   5.470  13.761  14.832 -0.2214 -0.1545  0.1929
27280W        W42749  14.971   0.012  14.446 -0.2201 -0.1629  0.1672
27281W        W42750   8.147   4.161  11.857 -0.3773  0.0879 -0.1347
27282W        W42751   2.500  13.656  13.489  0.2285 -0.0382  0.1598
27283W        W42752  14.140   3.545   1.611  0.2011  0.1267  0.1011
27284W        W42753  18.438   3.535   1.851 -0.0857  0.1232  0.0130
27285W        W42754   7.209  10.047  11.956 -0.1230  0.3473 -0.1159
27286W        W42755   9.544   8.297   3.649 -0.1680 -0.2772  0.0687
27287W        W42756   5.442  15.273   4.544  0.0151  0.2948  0.0528
27288W        W42757   4.803   0.673  13.730 -0.3561 -0.1223  0.2173
27289W        W42758   4.094  13.176  12.452  0.0901  0.0901  0.2569
27290W        W42759  17.452   9.686   1.542 -0.1625 -0.0176  0.0406
27291W        W42760  15.646  14.508  11.891 -0.2179  0.0433  0.2685
27292W        W42761  18.199  18.863   0.715 -0.0805  0.2067 -0.2940
27293W        W42762   7.554  15.090   3.020 -0.0646 -0.1351  0.0246
27294W        W42763  14.996   6.457   3.109 -0.1236  0.0685 -0.2545
27295W        W42764  14.942  18.595  13.055 -0.0745 -0.0982 -0.0323
27296W        W42765  13.011   0.712  14.307  0.3070  0.0090 -0.2791
27297W        W42766   0.883   5.855   3.788  0.0186 -0.1542 -0.4179
27298W        W42767   5.490   5.153   1.042  0.0715  0.0816  0.2052
27299W        W42768  16.227   4.111  14.251 -0.1288 -0.1191 -0.0552
27300W        W42769   1.678   2.197  13.119 -0.0676 -0.1230 -0.3840
27301W        W42770  14.596   7.222   3.839  0.2822  0.0453  0.4009
27302W        W42771   2.220   2.279  12.099 -0.2320  0.2141  0.0641
27303W        W42772   1.257   6.832   3.719 -0.0894 -0.0702 -0.0795
27304W        W42773   5.816  18.623   4.593 -0.1181 -0.4246  0.1812
27305W        W42774   9.583  10.626   4.910 -0.0499  0.2046  0.0639
27306W        W42775  11.043   9.031  14.267  0.1566 -0.1709 -0.1525
27307W        W42776  15.782  18.899  11.615  0.1996  0.1226 -0.1293
27308W        W42777  16.585   4.558  15.309  0.0331 -0.0908 -0.0751
27309W        W42778  10.150  12.510   3.872  0.2476 -0.2791 -0.2650
27310W        W42779  18.338  18.615   5.394  0.2660 -0.1308  0.0718
27311W        W42780  17.038   0.610  15.419  0.2897 -0.1389  0.1130
27312W        W42781  15.365   9.518   0.338 -0.2192  0.0517 -0.3985
27313W        W42782  15.931  11.198  13.987 -0.0365 -0.1522  0.3332
27314W        W42783   4.609  18.568  14.041 -0.0216 -0.2285  0.1416
27315W        W42784   5.514  12.784   0.935  0.2317  0.2057  0.1340
27316W        W42785  13.341  13.537   2.480 -0.2917  0.2427 -0.1082
27317W        W42786   3.006   8.065   1.609  0.0866 -0.2408  0.0089
27318W        W42787   6.361   1.731  11.413  0.1361 -0.0842 -0.2305
27319W        W42788  11.973   8.470   4.491 -0.1854 -0.0774  0.1293
27320W        W42789   3.290  13.340  11.935  0.1737 -0.0615 -0.3769
27321W        W42790  15.445   0.101   1.228 -0.2091 -0.0517 -0.1060
27322W        W42791  18.195   3.327   5.197 -0.1207  0.0844 -0.0971
27323W        W42792   0.699   9.670  14.560  0.1316 -0.0766  0.3527
27324W        W42793   6.668   3.494  13.522  0.2589  0.2314  0.1931
27325W        W42794  16.884  18.902   5.392 -0.0413  0.0059  0.3608
27326W        W42795  13.221   0.823   1.395  0.3405 -0.0220  0.1018
27327W        W42796  13.758   4.297   3.592  0.2143 -0.0115 -0.1118
27328W        W42797  10.101  14.061   3.807 -0.1281 -0.2725  0.4098
27329W        W42798  12.522  17.778  10.983  0.2169 -0.4666  0.0827
27330W        W42799  15.752   3.225   1.946 -0.2203  0.1303  0.2142
27331W        W42800   0.879  17.806  14.146 -0.1885  0.2267 -0.2012
27332W        W42801   7.441  12.230   3.128 -0.0836 -0.6614  0.1105
27333W        W42802   3.467  17.679  15.027  0.1518 -0.0883 -0.1267
27334W        W42803   5.058  10.007  11.398  0.1210 -0.1104 -0.2922
27335W        W42804  15.580   9.295   4.425  0.0050  0.1940  0.0082
27336W        W42805  10.986  11.149  11.753  0.4216 -0.3497 -0.0221
27337W        W42806   3.704   3.342   4.440 -0.0019 -0.1589 -0.1871
27338W        W42807   3.132  14.735   9.731  0.2831  0.0249 -0.1312
27339W        W42808   5.583   8.783  11.152  0.2878 -0.0567 -0.0863
27340W        W42809  12.874  13.198  13.186 -0.1115 -0.2424  0.0339
27341W        W42810   2.937  10.106  15.383 -0.2374  0.0018 -0.2831
27342W        W42811   4.165   0.550   5.978 -0.1460  0.3369  0.1284
27343W        W42812  15.578   4.815  12.597  0.0346  0.0468 -0.0642
27344W        W42813   7.864  17.873   2.220 -0.1243 -0.1490 -0.0697
27345W        W42814   0.426   1.402  14.789  0.1198 -0.0840  0.0979
27346W        W42815   5.047  12.648   0.746 -0.5521 -0.3034  0.4439
27347W        W42816  16.820  11.860  13.998  0.4851 -0.1230  0.0233
27348W        W42817  17.099  12.458   2.904 -0.0769  0.5361  0.0860
27349W        W42818   2.832  17.051  10.933  0.1077 -0.1384 -0.2152
27350W        W42819  15.049   2.514   1.942 -0.4536  0.0469 -0.0908
27351W        W42820  15.839  11.651  13.819 -0.2858  0.0235  0.2406
27352W        W42821  10.333   1.365  11.962 -0.1761  0.1949  0.1191
27353W        W42822   7.919   0.294  13.573  0.2468  0.1308  0.1916
27354W        W42823  11.208  12.623   2.950 -0.1377  0.3128  0.0218
27355W        W42824   1.746   3.602  14.877 -0.0378  0.1957 -0.1246
27356W        W42825   8.498  10.050  10.671 -0.1499  0.4363 -0.3430
27357W        W42826  17.270   6.966  14.891 -0.1726 -0.0723  0.2166
27358W        W42827   4.782  13.813   3.114  0.2842  0.2035 -0.3900
27359W        W42828   5.657  11.256  13.194 -0.1269 -0.5661 -0.1062
27360W        W42829   4.470  10.463   2.004  0.3513  0.0103 -0.1636
27361W        W42830   4.794  12.235   5.035  0.2531  0.2048 -0.0860
27362W        W42831   0.729  16.766  11.024  0.0222 -0.0338  0.0034
27363W        W42832  18.874   6.392   3.964 -0.0125 -0.3753  0.1866
27364W        W42833  13.593  13.185  11.089 -0.0666 -0.0876  0.4803
27365W        W42834  16.447   3.653  14.010 -0.0773 -0.2056 -0.1572
27366W        W42835  12.213  10.541  14.412  0.0253  0.1793  0.2108
27367W        W42836   1.902   9.465  12.062  0.0213  0.1904  0.2881
27368W        W42837  17.479   8.597  15.350 -0.1595  0.1051  0.0859
27369W        W42838  11.928  17.699   2.845 -0.1079 -0.3732  0.1244
27370W        W42839  10.774   8.712   5.635  0.0746  0.3825 -0.0147
27371W        W42840  14.323   4.743   0.869  0.3621 -0.1199 -0.0311
27372W        W42841  16.842   0.650   5.190  0.1891 -0.1138  0.0894
27373W        W42842  15.377  13.328   3.091 -0.1575  0.0802  0.3540
27374W        W42843  17.936   0.383   5.595 -0.0691 -0.1792 -0.0863
27375W        W42844   3.544   0.969   4.531 -0.0464 -0.1345  0.1142
27376W        W42845  17.817   9.758  11.001  0.2883  0.1236  0.3333
27377W        W42846  15.949  15.168   3.701 -0.1488  0.0123  0.4236
27378W        W42847  10.901  18.648   4.523 -0.2006 -0.0206  0.1916
27379W        W42848  15.195  15.913  11.205  0.0981 -0.0089 -0.2022
27380W        W42849   2.833   4.440   2.149 -0.4274 -0.2648  0.3725
27381W        W42850   8.922   0.993  14.252  0.3042 -0.0140 -0.0197
27382W        W42851  16.624  16.446   2.112  0.1463 -0.1121 -0.2178
27383W        W42852  17.227  16.433  14.608 -0.1557 -0.0130  0.1195
27384W        W42853   1.633  13.610  13.745 -0.1788  0.0292  0.0450
27385W        W42854  10.072  11.006   1.229 -0.2044  0.2527 -0.0333
27386W        W42855   9.840  11.335  13.141  0.2639  0.0372 -0.0112
27387W        W42856   3.322   2.904  12.722 -0.4520 -0.0496  0.1517
27388W        W42857   5.871  18.499   1.400  0.0882  0.0310  0.1065
27389W        W42858  13.236   8.018  15.271  0.2886  0.2549 -0.0675
27390W        W42859   3.340   1.586   1.339  0.3504 -0.0707 -0.4883
27391W        W42860   8.895   8.073  12.498 -0.1661 -0.1670 -0.1991
27392W        W42861   6.950  16.176  14.657 -0.0630  0.0810  0.4256
27393W        W42862  13.072   6.589   1.353 -0.0807 -0.1366  0.1095
27394W        W42863   7.247   6.355  11.587  0.1226 -0.1089  0.2655
27395W        W42864   3.628  10.046   0.384  0.3519 -0.0167  0.0719
27396W        W42865   1.021  16.937  15.145  0.2367 -0.0909 -0.2047
27397W        W42866  10.249   0.779  11.711 -0.2090 -0.2609  0.0497
27398W        W42867   3.153  18.885  13.794 -0.1268  0.2068 -0.0383
27399W        W42868   2.608  10.896   5.025  0.0063  0.2455  0.1455
27400W        W42869  11.848  18.874   3.350  0.1052 -0.3179 -0.0333
27401W        W42870  16.772  11.570  11.394 -0.0847 -0.1109  0.2418
27402W        W42871  13.067  17.367  13.073  0.2379  0.0828 -0.1480
27403W        W42872   8.463  11.258   4.238 -0.1624  0.0591  0.1319
27404W        W42873   3.961   9.906   3.619 -0.1695  0.0034  0.3109
27405W        W42874   3.759   0.763  10.178 -0.4944 -0.3216  0.0693
27406W        W42875   0.647  13.230   9.982 -0.0036  0.0895  0.0597
27407W        W42876  13.305  14.080  12.968 -0.0803 -0.0339  0.1561
27408W        W42877   9.441   3.721   3.808 -0.2342 -0.3051  0.2548
27409W        W42878   5.872   4.041   2.301  0.2232  0.0432  0.1674
27410W        W42879   1.278  17.029   4.026 -0.0933 -0.2873  0.1040
27411W        W42880   0.683  12.791   0.094 -0.0078  0.0181  0.1600
27412W        W42881  12.989   2.855   0.907  0.1290  0.0518 -0.1269
27413W        W42882  16.761   3.654  12.948 -0.2949  0.0449  0.0681
27414W        W42883  10.063  11.494   1.804 -0.2099 -0.1052 -0.1238
27415W        W42884  10.444  12.822   1.465  0.0004  0.2957  0.2537
27416W        W42885  11.359  15.531   2.273  0.1596 -0.0723 -0.1951
27417W        W42886  12.880   7.991  14.880  0.1294  0.1540  0.2820
27418W        W42887  10.043  15.893  14.668 -0.2994  0.1006  0.4365
27419W        W42888   2.695   6.571  13.762  0.2673 -0.0331  0.0719
27420W        W42889  16.540  17.681  12.587  0.3128  0.2234 -0.1712
27421W        W42890   4.174   6.402  14.167  0.0259  0.2146 -0.1189
27422W        W42891   3.434  12.062  11.980  0.1347  0.0310 -0.0262
27423W        W42892  12.301  17.089  13.462 -0.3208  0.1346  0.1130
27424W        W42893  12.131  16.588   4.076 -0.0222  0.2048  0.0519
27425W        W42894   3.504   5.209  14.506  0.1973  0.2910  0.1113
27426W        W42895  10.692  18.905   0.930 -0.0544  0.0643  0.0915
27427W        W42896   2.218   0.381  11.698  0.1021  0.3676  0.0918
27428W        W42897   4.453  14.878   4.491  0.2650 -0.1608 -0.2411
27429W        W42898   8.451   9.256   1.374 -0.1496 -0.0363 -0.0419
27430W        W42899  18.302   0.217  12.421 -0.2337  0.1614 -0.0320
27431W        W42900   4.302   2.590   2.383  0.2067  0.1901  0.3630
27432W        W42901   3.776   2.976   0.516  0.2969 -0.1271 -0.1277
27433W        W42902   2.950   3.819   0.618 -0.4667 -0.1522 -0.0958
27434W        W42903   0.644  15.600  14.727  0.2537 -0.0352  0.2070
27435W        W42904   4.358   3.917   3.307 -0.2844 -0.5200 -0.0536
27436W        W42905   2.427  16.856  11.159 -0.1777  0.1807  0.1929
27437W        W42906   3.281  16.955  12.949 -0.0619 -0.3038  0.2541
27438W        W42907  18.072  13.207  14.050 -0.0759 -0.0033  0.0281
27439W        W42908   8.433   0.714  14.282 -0.3393  0.1284 -0.1034
27440W        W42909   4.347   4.015   1.854 -0.0833  0.2094  0.1953
27441W        W42910  15.551  13.729  12.687 -0.2142 -0.1226 -0.1712
27442W        W42911   8.676   0.880  14.715  0.0290 -0.0160  0.2292
27443W        W42912  15.937  11.861   0.101 -0.1580 -0.0366 -0.0987
27444W        W42913  12.322   1.953   9.455  0.0016  0.1271  0.2316
27445W        W42914   8.978   3.607  13.943 -0.1688  0.1541  0.1391
27446W        W42915   1.622  12.323  11.701 -0.0295 -0.2356 -0.0575
27447W        W42916  13.588   3.320  12.566 -0.0448 -0.1143 -0.1317
27448W        W42917   1.514  12.969   1.370  0.1202  0.0089  0.3402
27449W        W42918  10.375   6.709  15.156 -0.1127  0.0219  0.2652
27450W        W42919  14.763   1.115  10.947 -0.0263  0.0782 -0.2540
27451W        W42920  16.998  17.777  12.512  0.0611 -0.1232 -0.0242
27452W        W42921   6.555  17.716   4.057 -0.0436 -0.0942 -0.3003
27453W        W42922  10.285  10.400   1.553 -0.1482 -0.3650 -0.0916
27454W        W42923   9.419   3.818   1.730 -0.2671  0.0222 -0.1506
27455W        W42924   5.167   7.108   3.454  0.1692 -0.0616 -0.2350
27456W        W42925  12.046  11.055  12.091 -0.3329 -0.3325  0.1325
27457W        W42926   7.894   8.974   5.488 -0.0786 -0.1637  0.0368
27458W        W42927  13.972  13.341  11.394  0.0848 -0.2089  0.1718
27459W        W42928   7.622   3.242   0.688 -0.5928  0.3708  0.0430
27460W        W42929  10.515   6.198   2.447  0.0281 -0.2139  0.0663
27461W        W42930  11.271   8.763  13.817 -0.0920 -0.3123 -0.2850
27462W        W42931   4.729   2.885   1.087 -0.2297 -0.0354 -0.1476
27463W        W42932   8.268  16.396   5.714  0.4652 -0.1083 -0.0434
27464W        W42933  14.716  14.506   2.292  0.0018  0.2161  0.3164
27465W        W42934  12.093  13.721  12.485  0.0833  0.0316  0.0675
27466W        W42935  17.234  18.437   3.379  0.1850  0.1638 -0.1243
27467W        W42936   2.310   9.034   4.482  0.0124 -0.0827  0.1239
27468W        W42937   2.789  12.741  12.513  0.1242  0.4033  0.2346
27469W        W42938  10.010  12.419   2.082 -0.3283 -0.1524  0.2910
27470W        W42939  11.319   1.806   0.378  0.2365  0.4016 -0.0641
27471W        W42940   9.643   3.632   2.611 -0.0405 -0.3232  0.1647
27472W        W42941   0.784   8.569  13.656 -0.0383 -0.0014 -0.0475
27473W        W42942  10.510  10.805   4.448  0.1458 -0.3714  0.0392
27474W        W42943  14.264  17.463   0.361  0.1358  0.2190  0.3343
27475W        W42944   3.627  18.437   1.255  0.0139 -0.0368 -0.0799
27476W        W42945  10.301   9.637  14.876 -0.0463 -0.0943  0.1145
27477W        W42946   3.306  15.224   4.260  0.0489  0.2930 -0.2171
27478W        W42947  11.468   7.329   1.576  0.0074 -0.1415 -0.1699
27479W        W42948   7.451  17.623   2.222  0.0416 -0.2209 -0.0490
27480W        W42949   0.563  11.952  11.265  0.2349  0.2578  0.0342
27481W        W42950  18.049  15.153   5.011 -0.0076  0.1269 -0.3953
27482W        W42951  13.304   1.177  10.692  0.2705 -0.0188 -0.1123
27483W        W42952   5.772   8.448  15.402 -0.0501 -0.0894  0.3366
27484W        W42953   2.196   5.885   4.358  0.0592 -0.1195  0.1669
27485W        W42954   7.193  11.432  12.472 -0.1983  0.1512 -0.2465
27486W        W42955  18.468  18.763   3.882  0.1325 -0.1492 -0.2281
27487W        W42956   8.924  17.501  12.103 -0.1503 -0.0594 -0.0903
27488W        W42957  11.669   8.166   4.033 -0.2112 -0.0190 -0.0150
27489W        W42958   6.721  17.148  14.554 -0.1103  0.0814 -0.1494
27490W        W42959  12.286   8.270   2.121  0.0824 -0.2062 -0.0473
27491W        W42960   8.553   4.571  12.741  0.0887  0.0380 -0.1138
27492W        W42961   0.306  12.634  10.836 -0.1047 -0.1248 -0.1234
27493W        W42962   7.231  10.055   0.028  0.2409 -0.3364  0.0032
27494W        W42963   8.021   2.057   4.686 -0.2448  0.1014 -0.1244
27495W        W42964   1.247   2.722   3.248  0.0140 -0.0155 -0.0190
27496W        W42965  13.634   0.814   1.128 -0.0246 -0.0737 -0.0686
27497W        W42966  10.352   0.804  10.649 -0.2600 -0.2189  0.0862
27498W        W42967   5.672  16.647  10.523  0.2464 -0.2475 -0.0469
27499W        W42968  12.860  12.775  14.720 -0.1884 -0.0174  0.1047
27500W        W42969   3.757   0.529  11.843 -0.1681 -0.0563  0.3771
27501W        W42970   8.671   1.900  12.818 -0.0163  0.0896 -0.1441
27502W        W42971   9.359   7.480   3.383 -0.0561 -0.1571 -0.0111
27503W        W42972   6.113   3.427   4.031  0.1050  0.1472  0.0174
27504W        W42973   9.158  16.626  15.286  0.2014 -0.0424  0.2716
27505W        W42974   6.048   4.050  12.104 -0.0476  0.1375 -0.3752
27506W        W42975  16.677  12.903   2.204  0.0136 -0.1404 -0.1882
27507W        W42976   8.578   5.911   4.224 -0.2081  0.1296  0.1830
27508W        W42977   6.045   4.940   1.155 -0.1216 -0.2646  0.1132
27509W        W42978   9.354  16.180  10.375 -0.1494 -0.1976 -0.2263
27510W        W42979  13.396  11.665  10.704 -0.0306  0.0702 -0.1796
27511W        W42980  13.715  13.936   3.640  0.1564  0.2279  0.1669
27512W        W42981   9.797   2.282   2.991  0.2589 -0.0391  0.2485
27513W        W42982  10.929  15.707   4.207  0.0381  0.0550 -0.3322
27514W        W42983  12.003  18.075   0.178 -0.2492 -0.2576 -0.1248
27515W        W42984  11.964  16.570   5.112 -0.0703  0.0394  0.4949
27516W        W42985  14.845   1.049   4.444 -0.0435 -0.4835  0.2112
27517W        W42986   7.220  17.160   4.234  0.2629  0.1407  0.1254
27518W        W42987   1.568   7.915  14.753 -0.3252  0.2704  0.0488
27519W        W42988   7.011  10.094   1.899  0.0583 -0.0366  0.2437
27520W        W42989   6.480   2.562   1.796 -0.1975  0.1720 -0.0275
27521W        W42990  12.228   8.531   0.720  0.1034 -0.2462  0.1371
27522W        W42991   8.497  10.724  10.577 -0.1803  0.1670  0.4357
27523W        W42992   4.158   4.646   4.489 -0.4729 -0.1056  0.0309
27524W        W42993  15.987   2.879   1.036  0.0270  0.2507  0.3035
27525W        W42994  16.770  10.651  15.229 -0.1746  0.0026 -0.1317
27526W        W42995  17.986   5.853  12.456  0.0542 -0.3043 -0.2987
27527W        W42996   0.494  17.709   2.788  0.1139 -0.2474 -0.4558
27528W        W42997   0.749   8.037   5.345  0.1214  0.3550  0.0911
27529W        W42998  10.337  17.781   4.264 -0.2245  0.1475 -0.1054
27530W        W42999   0.017   8.932   1.863  0.0463 -0.2965  0.1712
27531W        W43000   3.684   0.827   0.675  0.1191  0.0332  0.4081
27532W        W43001  12.046  16.249  11.352  0.1537 -0.2982  0.1086
27533W        W43002   8.163   5.404  11.986  0.2061 -0.4273  0.1398
27534W        W43003   3.841  14.741  13.638  0.3802 -0.0004  0.0922
27535W        W43004  14.774  17.819   0.209  0.0977  0.1074  0.0486
27536W        W43005   9.540   2.262  14.835  0.0344  0.1360 -0.2002
27537W        W43006   1.219  13.729  11.666  0.4165  0.4287  0.3973
27538W        W43007  10.510  14.750  12.575  0.1464  0.0375  0.0445
27539W        W43008  14.764   6.604  14.814  0.1904  0.0664  0.0446
27540W        W43009   0.095   6.771   1.311 -0.2421 -0.2714 -0.2625
27541W        W43010   7.755  14.741  14.202  0.1540 -0.6134  0.0287
27542W        W43011   4.672  12.193   4.207 -0.1229  0.0772  0.0288
27543W        W43012   8.496  12.766  10.628  0.6179 -0.2733  0.2159
27544W        W43013   4.754   6.586  14.895 -0.1981 -0.1319  0.2583
27545W        W43014  18.224  15.709  12.051 -0.0038 -0.1690  0.1699
27546W        W43015  13.844  12.593   0.413  0.0281  0.0491 -0.1244
27547W        W43016   2.645   2.326   3.959  0.2861  0.3027  0.1804
27548W        W43017   9.185  10.164  11.456 -0.4179 -0.0054 -0.1701
27549W        W43018   2.763   0.373   1.645 -0.0986 -0.1083 -0.0301
27550W        W43019  17.604   8.989  15.127 -0.3074  0.0314 -0.1698
27551W        W43020  16.052   4.639   1.253 -0.0078 -0.3177 -0.4231
27552W        W43021   1.396  10.405  11.097  0.1433  0.2853 -0.3222
27553W        W43022  15.015   0.126   1.475  0.1544 -0.2515  0.0025
27554W        W43023   3.249   7.100   2.730  0.0667  0.2328  0.2284
27555W        W43024  13.580  17.353   1.646 -0.2614  0.0883  0.0295
27556W        W43025   1.454   1.689  11.745  0.0542  0.4776  0.3614
27557W        W43026   7.151  12.921   1.849  0.1396  0.1378  0.1632
27558W        W43027   1.872   0.317  15.328 -0.0401 -0.2513  0.3060
27559W        W43028   5.294   1.889  13.960 -0.0040 -0.1038  0.0537
27560W        W43029   8.866  13.250  14.029  0.0055  0.3037  0.1475
27561W        W43030   3.426  18.898   3.799  0.2308  0.2434 -0.0468
27562W        W43031   2.916  12.133  14.157 -0.3305  0.1860 -0.0176
27563W        W43032   2.618  12.105   3.060  0.0983  0.0797 -0.1241
27564W        W43033  17.907   8.595   4.838 -0.0250  0.0087  0.0659
27565W        W43034   2.911   1.866   0.743 -0.0138  0.1727  0.2727
27566W        W43035  16.930   0.941  11.899  0.2500 -0.2842 -0.0684
27567W        W43036   1.110  12.440  13.915  0.0937  0.0496  0.0492
27568W        W43037  10.678   3.980  10.857 -0.0513  0.0678  0.3508
27569W        W43038  15.026  14.092   3.617  0.0204 -0.0983 -0.1731
27570W        W43039   1.679   4.966  12.971  0.0598  0.1535 -0.2610
27571W        W43040   6.158   6.572   1.072  0.0453  0.2756 -0.1697
27572W        W43041   3.816  12.664   4.179  0.1420  0.1237  0.4051
27573W        W43042   5.315  14.704   1.814  0.1918 -0.0125 -0.0424
27574W        W43043  12.521  10.994   3.675  0.0875  0.2388 -0.2137
27575W        W43044   6.452   1.195  13.349 -0.0109 -0.0941  0.0206
27576W        W43045  10.825   4.845   5.538 -0.1128 -0.2055  0.0770
27577W        W43046  13.436   0.081  12.114  0.2501 -0.1430  0.1046
27578W        W43047   4.645   6.860  10.500  0.2016  0.0360 -0.2005
27579W        W43048  14.568  15.280   3.084 -0.2691 -0.1602 -0.1377
27580W        W43049   1.943  13.163  15.416 -0.3736  0.2157 -0.3393
27581W        W43050   4.282   0.759  14.821  0.0420  0.1258  0.2726
27582W        W43051  17.891   0.197  12.697  0.0979  0.0648  0.1547
27583W        W43052   5.184   5.090   1.497  0.1272 -0.3833  0.2678
27584W        W43053   0.315   3.231   1.340 -0.0012  0.1108  0.1882
27585W        W43054   6.803  12.134   2.960  0.0960 -0.4503 -0.3656
27586W        W43055  11.684  11.327  10.213  0.0550  0.0865  0.1971
27587W        W43056   6.434  10.936  10.654  0.1693 -0.2455 -0.1574
27588W        W43057  11.741   6.069  10.387  0.0489 -0.1609  0.1628
27589W        W43058   5.060  15.394   3.871  0.1100 -0.5264 -0.4525
27590W        W43059   9.397   9.236  11.113 -0.0906  0.1009 -0.2731
27591W        W43060   8.765   6.780  10.477  0.0494  0.0196 -0.0438
27592W        W43061  13.670  12.927  13.680  0.0260 -0.0050 -0.1472
27593W        W43062   6.852   6.140  10.247 -0.2212  0.1781 -0.1035
27594W        W43063   9.890   9.166  10.502 -0.1006 -0.0881 -0.2386
27595W        W43064  18.083   6.769   0.475 -0.1374  0.0066  0.0598
27596W        W43065  16.574  13.344   1.288 -0.4220 -0.0650  0.3724
27597W        W43066   7.778   2.630  11.570  0.0070  0.2705  0.0849
27598W        W43067   7.721   1.275   3.035  0.3492 -0.0355  0.0937
27599W        W43068  10.767  15.703   3.709  0.0815  0.0388  0.2287
27600W        W43069  17.282  10.530  12.171 -0.3270 -0.1989 -0.1505
27601W        W43070  15.421   0.637   4.725  0.4170  0.0453  0.0784
27602W        W43071  11.774  16.676  11.277  0.0404 -0.3630 -0.0760
27603W        W43072   4.999   2.910  14.551 -0.2351  0.0954  0.1914
27604W        W43073   7.498  13.013   2.859 -0.5156  0.3823  0.0378
27605W        W43074   1.296   7.755   4.289 -0.0118  0.0036  0.3241
27606W        W43075  14.252   3.259   3.600  0.1621 -0.2265  0.3831
27607W        W43076  17.381   0.479   4.745  0.1090  0.0568  0.0230
27608W        W43077  13.221   3.686   0.427 -0.1192  0.0007  0.0153
27609W        W43078   1.042  18.373   3.649 -0.0827  0.1592  0.0468
27610W        W43079   8.518   8.186  12.055 -0.0812 -0.1385 -0.2179
27611W        W43080   0.415   9.181   3.659  0.3848  0.3973 -0.0283
27612W        W43081  13.091   8.418   1.644 -0.1290  0.2706 -0.1037
27613W        W43082  16.780  11.233   2.322  0.1780  0.2070 -0.0459
27614W        W43083  16.732   8.851   4.819 -0.0840 -0.5045 -0.2006
27615W        W43084   9.638  11.236  11.036  0.0013  0.2301  0.1413
27616W        W43085   0.513   0.770  12.365 -0.3747  0.2385  0.0707
27617W        W43086   7.409   5.036   4.081  0.0342 -0.1472 -0.4837
27618W        W43087   2.955  13.439  13.641 -0.0084 -0.0329 -0.3402
27619W        W43088  14.639   1.274  14.812 -0.1866  0.2996 -0.0694
27620W        W43089  18.941   2.476  10.750  0.2938  0.0813 -0.1265
27621W        W43090   2.800  13.024  15.356 -0.0544 -0.1455 -0.1205
27622W        W43091  18.046  11.598   3.480  0.0088  0.2122 -0.0751
27623W        W43092   0.632  18.530  13.742  0.0501 -0.2146  0.1040
27624W        W43093   2.291   1.833   0.697 -0.0578  0.1065  0.0657
27625W        W43094  15.276   5.531   4.028 -0.3038 -0.0144  0.3751
27626W        W43095   8.415   7.017   3.251  0.1234  0.1826 -0.1149
27627W        W43096   1.393  10.881   1.545  0.4779  0.0532 -0.1935
27628W        W43097  18.001   8.781   3.825  0.0013  0.1584  0.0877
27629W        W43098  12.231   4.213  11.712  0.3221 -0.2320 -0.0350
27630W        W43099   4.755   9.715   5.590 -0.0886 -0.0781 -0.0301
27631W        W43100   6.204   5.887  15.300 -0.0049  0.0837  0.5932
27632W        W43101   1.022   8.914  13.909 -0.0672 -0.1835 -0.0746
27633W        W43102  16.042  16.436   3.545  0.1057 -0.3952  0.1933
27634W        W43103  13.611   6.206  13.945  0.2447 -0.1097 -0.3048
27635W        W43104   3.018   7.117   4.463  0.0191 -0.0453  0.1409
27636W        W43105  12.340  11.948   3.491  0.2834 -0.0025 -0.0197
27637W        W43106   0.987   4.328   3.043 -0.1853 -0.2897 -0.0453
27638W        W43107  15.732  13.838  14.826  0.4260  0.0164  0.2554
27639W        W43108   3.515   5.534   1.325 -0.0594  0.0996  0.1010
27640W        W43109   8.996  17.349  10.846 -0.2159  0.1663 -0.1688
27641W        W43110   8.750  13.001   3.339 -0.1044 -0.2128 -0.0956
27642W        W43111  13.065   8.664  12.945 -0.0817  0.2323  0.2767
27643W        W43112   1.831  12.788   3.003  0.0080  0.3425 -0.1614
27644W        W43113  12.387  14.764   5.027 -0.5785 -0.2031 -0.0510
27645W        W43114   1.318   4.604  13.806 -0.0384 -0.0431 -0.0253
27646W        W43115   9.880   0.059  11.116  0.4019 -0.0801 -0.2228
27647W        W43116   3.466  16.697   4.583  0.1768 -0.1164 -0.0965
27648W        W43117  11.963  12.690  11.493 -0.1907  0.0700  0.1950
27649W        W43118  17.634   7.075  12.965  0.0177 -0.2913 -0.1191
27650W        W43119   0.655   4.564   9.583 -0.0928 -0.1369 -0.0590
27651W        W43120   5.140  15.863   5.291 -0.1195 -0.1298 -0.2145
27652W        W43121   7.877  17.008   0.942  0.0576 -0.0524  0.2751
27653W        W43122  18.297  14.966   0.214 -0.0945 -0.1158 -0.2472
27654W        W43123   6.498   0.301   1.273 -0.1491  0.0486  0.2461
27655W        W43124   9.699   2.000   1.751 -0.0003  0.2232  0.2607
27656W        W43125   8.180  11.794  13.921 -0.1432 -0.2429  0.2373
27657W        W43126  16.637   9.472   0.662  0.1559  0.2199  0.2629
27658W        W43127   6.073   0.771  14.276  0.0212 -0.1133  0.1643
27659W        W43128   0.394   0.329  14.575 -0.0674  0.0980 -0.1998
27660W        W43129   8.373  13.689  13.062 -0.0341 -0.0197 -0.1222
27661W        W43130  15.522   5.867  12.829 -0.0913  0.3608 -0.0770
27662W        W43131   2.028  17.835   3.831 -0.0479  0.1898 -0.0184
27663W        W43132  16.548   0.046  12.111 -0.0072 -0.0971  0.0214
27664W        W43133  10.567   8.879  12.052  0.0704 -0.1592 -0.1010
27665W        W43134  13.194   7.095   1.149  0.1860 -0.0769  0.0177
27666W        W43135  13.735  12.442  10.609  0.0873  0.0606  0.1407
27667W        W43136  14.249   0.993  14.816 -0.3678 -0.0530 -0.2974
27668W        W43137   6.136  11.863   0.960 -0.1965 -0.2064  0.1055
27669W        W43138   1.090   4.093  12.989 -0.1764 -0.3135 -0.2051
27670W        W43139   4.572   9.566  10.648  0.0550  0.0839  0.2879
27671W        W43140  16.882   2.887   9.867 -0.1278  0.1197 -0.2934
27672W        W43141   9.828   8.793  13.396 -0.2128 -0.0237  0.2275
27673W        W43142   0.105  11.681   3.582 -0.0164  0.2332 -0.0162
27674W        W43143  14.427  13.492  13.096  0.1282 -0.0956  0.0169
27675W        W43144   0.267   2.735  13.036 -0.0305  0.0159 -0.1902
27676W        W43145   4.907  14.647  10.968  0.0503  0.3058 -0.1533
27677W        W43146   2.506   5.837  11.791  0.2740  0.0563  0.1097
27678W        W43147  13.138  17.354   3.927 -0.0416  0.1711 -0.0627
27679W        W43148   4.253   4.992  12.921  0.0415  0.2765  0.0035
27680W        W43149   6.231   1.777   0.968  0.1988 -0.0960  0.0362
27681W        W43150  10.768   4.562  14.948  0.1457  0.1474  0.1726
27682W        W43151   6.850   2.175  10.572  0.0141  0.1337  0.1403
27683W        W43152  12.675  18.805  15.017 -0.3355  0.1907  0.0041
27684W        W43153   9.796   1.828  14.554 -0.3674 -0.0203 -0.0192
27685W        W43154   8.313   2.412   1.908  0.1561 -0.0558  0.1335
27686W        W43155   4.915  10.330  14.662 -0.1259  0.0752 -0.0888
27687W        W43156   5.598   7.953  11.799 -0.1580 -0.0932 -0.2260
27688W        W43157   5.486  18.710   3.658  0.0808  0.0381 -0.0761
27689W        W43158   8.975   3.043   0.449  0.0859  0.1268  0.1563
27690W        W43159   9.573   2.154   4.784  0.1238  0.0235  0.1647
27691W        W43160  17.998  16.916  11.409 -0.2524 -0.0955 -0.0768
27692W        W43161  13.023  18.615  10.985  0.0558 -0.0011 -0.0971
27693W        W43162  17.972   5.473   2.819  0.2211 -0.0529 -0.1186
27694W        W43163   6.607  15.949   0.515 -0.1562 -0.0696  0.2748
27695W        W43164   5.397   4.555   4.011  0.3569 -0.0370  0.0714
27696W        W43165   2.288   8.615  10.308 -0.1157  0.0635 -0.1880
27697W        W43166   4.963  15.513   4.714  0.3604  0.2759  0.4322
27698W        W43167  14.220   2.027   0.413  0.3679 -0.0859  0.0054
27699W        W43168  15.844   6.144   5.251 -0.3086 -0.1370  0.2236
27700W        W43169  13.231   8.404  14.654  0.0440 -0.1578 -0.4393
27701W        W43170   2.941  17.000   5.416  0.0082 -0.2924  0.4181
27702W        W43171  10.045  13.375  10.593 -0.1473 -0.0860  0.1324
27703W        W43172   5.655  17.491   0.228  0.2445  0.1909  0.1967
27704W        W43173  16.862  14.308   1.872 -0.1561 -0.1293  0.0395
27705W        W43174   0.289   4.197  10.321  0.1243 -0.3592 -0.0007
27706W        W43175  17.046  11.773  15.023  0.1586  0.0609 -0.1719
27707W        W43176  14.731   5.262  14.745 -0.0107  0.4172  0.0585
27708W        W43177  10.416   0.819   1.476 -0.2291  0.1022 -0.0721
27709W        W43178   4.552  12.000   4.652  0.2034  0.0601 -0.0258
27710W        W43179   4.915  10.710  15.405  0.1151  0.0123  0.1046
27711W        W43180  13.346   0.595   3.858 -0.0943  0.0088 -0.0282
27712W        W43181   5.398   3.788  13.311  0.1309  0.0365  0.1010
27713W        W43182   4.091   0.327   1.170  0.2642  0.1232 -0.2513
27714W        W43183   5.422   2.696  13.815 -0.1951 -0.1195  0.1249
27715W        W43184   3.429  13.345   3.482  0.1512 -0.1664 -0.3771
27716W        W43185  10.343   0.051  13.659  0.2452 -0.0304  0.3437
27717W        W43186   4.309  10.028  13.242  0.1585 -0.0171 -0.3115
27718W        W43187  12.411   4.529  10.390 -0.0821  0.1081  0.3432
27719W        W43188   1.867  10.224   4.854  0.0574 -0.0432  0.1426
27720W        W43189   8.892   1.354  12.903 -0.3589 -0.2403  0.1033
27721W        W43190  11.800   1.752   0.505  0.2559  0.0769 -0.5342
27722W        W43191   5.360  16.795  12.391 -0.1197 -0.3225 -0.2262
27723W        W43192  17.883   6.892   1.867 -0.0158  0.1121  0.0705
27724W        W43193   5.024  18.914  11.284 -0.3101 -0.0032  0.1031
27725W        W43194  14.864  13.876   4.260  0.0433 -0.2910  0.0223
27726W        W43195   3.807  14.878   5.126  0.1395 -0.2733  0.0413
27727W        W43196   8.824   9.989  13.567  0.1666  0.1061 -0.1302
27728W        W43197  11.927   3.920  12.859 -0.0644 -0.1840 -0.0684
27729W        W43198   9.728   9.493   0.803  0.2725  0.1025 -0.2932
27730W        W43199  15.882  10.052   1.562 -0.1409 -0.3968  0.0257
27731W        W43200  10.014  14.523  13.436 -0.0119 -0.2867 -0.4149
27732W        W43201  12.148  16.513  10.954 -0.0221  0.0495  0.1324
27733W        W43202  11.242   3.362  14.472 -0.1996  0.0022 -0.0246
27734W        W43203   1.070  15.637  13.153  0.2710 -0.1311  0.3487
27735W        W43204   7.900  18.324  10.486  0.0060  0.0345 -0.2935
27736W        W43205   8.192  16.059   2.913  0.0975  0.2101  0.0565
27737W        W43206  10.822   0.060   5.623 -0.0167  0.5016  0.1763
27738W        W43207  14.420   6.045  14.340  0.2501  0.0716 -0.1286
27739W        W43208   9.684   5.338   0.749 -0.3700  0.0211  0.3384
27740W        W43209   9.127  12.958   4.019  0.1377  0.0993  0.2130
27741W        W43210  10.382   3.029   4.403  0.0048  0.0289 -0.1415
27742W        W43211   7.710  15.188  12.025  0.1874  0.1147  0.1552
27743W        W43212  16.892   1.500   1.952  0.3914 -0.0212  0.5300
27744W        W43213  14.708  18.194  13.264  0.0794  0.1033  0.0804
27745W        W43214   1.898  11.018   0.869 -0.0090  0.1194  0.1601
27746W        W43215   6.009  16.446   0.009  0.0635 -0.0595 -0.0454
27747W        W43216  12.125   2.826   2.255 -0.3443 -0.1460 -0.1217
27748W        W43217  16.073  18.360   5.221 -0.2718 -0.0109  0.1390
27749W        W43218  12.345  10.369  13.955 -0.1851 -0.0214 -0.0312
27750W        W43219   2.453  12.924   5.324 -0.2388 -0.0540  0.2101
27751W        W43220   4.046   0.518   0.205 -0.3299 -0.3126  0.0332
27752W        W43221  13.818  15.007   4.926 -0.0354 -0.1587  0.0197
27753W        W43222   4.455   0.365  13.092 -0.0508  0.1523  0.1551
27754W        W43223   3.762  18.384   2.882 -0.0890 -0.0063  0.2295
27755W        W43224  13.589  17.555   2.110 -0.1741 -0.2427 -0.1014
27756W        W43225  11.029  17.898   2.586 -0.3339 -0.1495 -0.1416
27757W        W43226  14.512   8.888   0.825  0.2530  0.0793  0.4669
27758W        W43227   1.696   8.989   3.156 -0.4632 -0.3440  0.1091
27759W        W43228   7.092  16.362   4.354  0.1054 -0.1239 -0.1788
27760W        W43229   8.362   6.520   3.337  0.2474  0.2486 -0.1071
27761W        W43230   8.131  14.487   0.381 -0.0962 -0.2326  0.0709
27762W        W43231  14.218  17.281   3.489  0.0346  0.4622  0.0805
27763W        W43232   2.519   4.794   4.734 -0.0322  0.1305 -0.2932
27764W        W43233   5.081   8.111  10.352  0.3025  0.0934 -0.0645
27765W        W43234   4.108   4.716  14.054 -0.0481  0.3017  0.0902
27766W        W43235   4.056   8.059   0.405 -0.1852 -0.1346 -0.0477
27767W        W43236   2.495   3.147  13.818 -0.0326 -0.2558  0.2364
27768W        W43237  16.909   1.348  13.666 -0.0953 -0.0277  0.1292
27769W        W43238  11.486   1.087  10.664  0.1309  0.0702  0.4200
27770W        W43239   1.250   8.152   2.500  0.0769 -0.1858  0.0019
27771W        W43240   3.068  12.995   2.164 -0.0292 -0.2287  0.3477
27772W        W43241  13.539  11.415   5.094 -0.0866  0.2175 -0.1732
27773W        W43242  11.618  12.643   1.964  0.0237  0.2732 -0.2144
27774W        W43243  12.899  17.825   0.600 -0.0285 -0.2976 -0.4401
27775W        W43244  10.277   6.107  10.111 -0.1312  0.1169  0.0073
27776W        W43245   9.395  17.361   5.770 -0.1191  0.0286 -0.0926
27777W        W43246  18.365  12.126  12.640 -0.0659  0.1651  0.3567
27778W        W43247  12.522  15.869  13.635 -0.0832 -0.1731  0.0793
27779W        W43248   2.015   2.440   5.021  0.2432  0.0400  0.1949
27780W        W43249  17.900   4.336  11.069  0.0333  0.1854  0.1348
27781W        W43250   3.580  10.283   1.430 -0.1125  0.0458  0.0453
27782W        W43251  17.818   8.410  11.807 -0.3425 -0.1572  0.1405
27783W        W43252   4.679  13.302  12.649  0.0669 -0.0668  0.1046
27784W        W43253   9.651   5.860   3.191  0.1029  0.0534 -0.0901
27785W        W43254   8.906  18.737  13.757 -0.0232 -0.0004 -0.0025
27786W        W43255   7.709   3.395  12.402 -0.1708 -0.0396  0.1147
27787W        W43256   1.165  17.472   0.358 -0.2703 -0.0672  0.1637
27788W        W43257  13.317  18.577  15.435  0.0214  0.1738 -0.0457
27789W        W43258  17.515   5.803  10.243 -0.0339  0.0515 -0.1432
27790W        W43259   2.819  11.304  11.734 -0.2370 -0.1193  0.2642
27791W        W43260   4.251  13.050   4.523  0.0394 -0.0044 -0.2553
27792W        W43261  18.218   5.847  12.036  0.0290 -0.2754 -0.4552
27793W        W43262  16.047   1.698   0.930  0.2123 -0.2246 -0.1825
27794W        W43263   9.184  14.683   9.931 -0.0444 -0.2260 -0.1126
27795W        W43264   4.738  10.817   0.634  0.0138  0.3265  0.4434
27796W        W43265   6.810  13.124  11.840 -0.3430  0.2699 -0.2375
27797W        W43266   6.285  15.599  11.342  0.2398  0.0166 -0.0408
27798W        W43267   0.002   2.013  10.958 -0.0532  0.1653 -0.3142
27799W        W43268   6.482   5.327  12.754 -0.2238  0.0093  0.5706
27800W        W43269   1.628  14.010   3.353  0.0664 -0.3881 -0.0963
27801W        W43270   3.611  17.235   1.903  0.3318 -0.1809 -0.2383
27802W        W43271  15.050   8.810   2.529  0.0459  0.2242  0.0883
27803W        W43272   4.990  10.433   2.876  0.1079  0.0510 -0.2196
27804W        W43273  17.487   3.174   4.524  0.0915  0.1396 -0.0444
27805W        W43274   7.166  11.816   1.699  0.0622 -0.0082 -0.2378
27806W        W43275  17.169   3.828  11.161 -0.2430 -0.2934 -0.1077
27807W        W43276  17.587   2.545  11.493 -0.1190 -0.2216  0.2979
27808W        W43277  14.568   1.125   5.865 -0.1724 -0.0752  0.2433
27809W        W43278  14.209  13.975  14.191  0.0861  0.1479 -0.1899
27810W        W43279   7.072  14.098   3.026  0.0650  0.1960 -0.1056
27811W        W43280   2.082  18.013   5.473 -0.0015 -0.1093 -0.2338
27812W        W43281   3.033  17.625   3.537 -0.2922 -0.2213  0.1923
27813W        W43282   9.387   4.318   4.728  0.1030  0.3430 -0.1219
27814W        W43283   5.615   5.415  11.120 -0.0898  0.0340  0.0652
27815W        W43284  12.070   1.148   5.186 -0.0932  0.0073  0.0511
27816W        W43285  13.628   9.569  11.790  0.1187  0.1132 -0.0531
27817W        W43286   9.907  15.264  14.427  0.1236 -0.0804  0.3073
27818W        W43287  18.579   3.603   4.431 -0.3655 -0.0775 -0.0706
27819W        W43288   6.299  10.399  14.182  0.0587 -0.0598 -0.2067
27820W        W43289  14.991   8.107   3.341  0.4941  0.0172 -0.2022
27821W        W43290  15.563   4.328  12.664 -0.0531  0.0003 -0.0583
27822W        W43291   1.259   7.557   2.881 -0.0311 -0.0851  0.0642
27823W        W43292   7.174   7.053   0.082 -0.2133  0.0348  0.1049
27824W        W43293  17.015   0.577  14.262 -0.0810  0.2755 -0.1281
27825W        W43294   2.924   2.436   9.936 -0.1343 -0.0712  0.0657
27826W        W43295   0.320  17.580   5.560  0.1121  0.0303  0.0253
27827W        W43296   3.593   8.049  11.374  0.3123  0.2517 -0.0350
27828W        W43297   4.846   4.711   3.387  0.0994  0.0887  0.4939
27829W        W43298   4.651  11.865  14.746  0.3994  0.2434  0.1407
27830W        W43299   4.647   7.957  15.102 -0.0394 -0.0279  0.1579
27831W        W43300  16.617   7.596   4.177 -0.3108 -0.1873 -0.1361
27832W        W43301  11.229  17.180  10.865  0.1263  0.2366  0.1543
27833W        W43302  12.853  17.047  11.613  0.1278  0.0470 -0.2443
27834W        W43303   1.457   4.932  13.433  0.1943 -0.1290  0.0141
27835W        W43304   6.712   6.166   5.381  0.1352  0.3120  0.2187
27836W        W43305  14.563  16.112   0.570  0.1073 -0.0227  0.2139
27837W        W43306  14.685   5.070   3.055 -0.1495 -0.1074 -0.2229
27838W        W43307   6.741  18.543   4.906 -0.1862  0.0416 -0.3918
27839W        W43308  16.115   7.793  14.278 -0.0392  0.1763  0.3516
27840W        W43309  13.346  17.086   2.057 -0.2436 -0.1673 -0.0976
27841W        W43310   7.208   6.344  12.442  0.1787  0.0739  0.1021
27842W        W43311   3.458   6.532  12.859 -0.3013 -0.0179 -0.0723
27843W        W43312   8.939  14.401  10.835  0.2032  0.0170 -0.2025
27844W        W43313   1.241  12.047  12.470 -0.2393 -0.0653  0.3619
27845W        W43314  17.344   5.065   4.114  0.2418  0.1605 -0.1077
27846W        W43315   5.231  18.806  10.229  0.0893  0.1541  0.0602
27847W        W43316  14.013  17.621   4.354  0.0142  0.0653  0.1890
27848W        W43317   6.111  11.645   0.047 -0.0331  0.1691 -0.1415
27849W        W43318   4.540  13.616  12.267  0.2364  0.1495 -0.0555
27850W        W43319   3.555   7.174  13.584  0.0790 -0.2185  0.2892
27851W        W43320  17.698  12.267  13.908 -0.3312  0.0513 -0.0584
27852W        W43321  16.825  11.669  12.641 -0.0378  0.0509 -0.0621
27853W        W43322  18.200  16.253  14.147 -0.0693  0.1627 -0.1809
27854W        W43323  12.477  17.338  10.747  0.2936 -0.0021 -0.1237
27855W        W43324   4.488   4.301   4.134  0.0531 -0.3476 -0.0114
27856W        W43325   5.338   3.647   1.279  0.1552 -0.0018  0.2144
27857W        W43326   4.399   0.145   0.036 -0.2771  0.2656  0.0750
27858W        W43327   0.857   9.732  11.871  0.0521 -0.1848 -0.2798
27859W        W43328  12.241   1.529   4.890 -0.1638  0.0855  0.0287
27860W        W43329   6.806  10.941   2.091  0.3890 -0.1288 -0.3386
27861W        W43330  17.199  11.125   1.505  0.1821  0.4864 -0.2519
27862W        W43331  10.257  13.726   1.423 -0.0605  0.0698  0.1343
27863W        W43332   8.434  10.848   3.867  0.2705 -0.0623  0.0454
27864W        W43333   9.892   6.964   2.309 -0.1243  0.3258 -0.1866
27865W        W43334   9.081  17.575  12.673  0.1958  0.3389 -0.1150
27866W        W43335   7.804   3.472   2.106  0.1930  0.0805 -0.1282
27867W        W43336  17.946  16.006   4.628 -0.2054  0.4149  0.1333
27868W        W43337   3.545   7.676   3.483  0.1787 -0.4171 -0.1450
27869W        W43338   1.597   0.422   4.717 -0.0736 -0.2137 -0.2510
27870W        W43339   6.772  13.862   5.435 -0.1116  0.0431  0.0628
27871W        W43340  15.612  17.858  15.460 -0.0345 -0.0270 -0.1160
27872W        W43341   9.410   8.021   0.567  0.1292  0.0886  0.1628
27873W        W43342  17.692  15.070  11.751  0.0462  0.0538  0.0692
27874W        W43343  12.140   0.095   2.215  0.0203 -0.0933  0.0614
27875W        W43344  16.164  10.152   3.173 -0.0893  0.0005 -0.3230
27876W        W43345   5.830  10.663   1.835  0.0452 -0.0159  0.0692
27877W        W43346  17.784  12.250   4.510  0.1717  0.0892 -0.1024
27878W        W43347  10.394  16.226   0.655 -0.2073 -0.0271  0.1311
27879W        W43348  16.263   4.552   5.087  0.1553 -0.2883 -0.1910
27880W        W43349   1.730   9.362  10.323  0.2154 -0.1991  0.0083
27881W        W43350   8.090  16.646  15.230 -0.2103 -0.0758  0.0623
27882W        W43351   8.744  16.123  14.145 -0.1627  0.4151  0.0528
27883W        W43352   4.011  14.355   2.482  0.0896  0.0722  0.0173
27884W        W43353  16.031  13.995   4.105 -0.1353  0.1738 -0.1900
27885W        W43354  18.820   5.602   5.128 -0.0680 -0.2815 -0.1853
27886W        W43355  11.712  12.843  12.470 -0.2954  0.3469 -0.0568
27887W        W43356   2.808  13.790   0.864  0.2381  0.3280  0.1722
27888W        W43357  14.121   3.960   0.228 -0.1232 -0.0527 -0.1274
27889W        W43358   1.562   0.892  13.143  0.1801  0.0653  0.2955
27890W        W43359  11.530  14.755   1.796 -0.4264  0.2595  0.1595
27891W        W43360   1.650   5.396  14.722 -0.2181 -0.0238  0.0807
27892W        W43361  13.540  17.083   0.312 -0.2258 -0.2276  0.0996
27893W        W43362   2.465   1.417  15.041 -0.2154 -0.2609 -0.2064
27894W        W43363   6.415  10.287   0.171  0.0741  0.1370 -0.1060
27895W        W43364  14.852  16.800   0.608 -0.1150  0.0408 -0.1182
27896W        W43365   6.706  15.433  13.536  0.0138 -0.1061  0.3778
27897W        W43366   0.559  18.059  13.736 -0.5828 -0.2971 -0.2098
27898W        W43367  11.959   0.473   2.605  0.1490 -0.0958 -0.5111
27899W        W43368   8.800   8.351   3.095 -0.0213 -0.0843  0.0246
27900W        W43369  13.673  12.304   1.289  0.1187 -0.0621  0.3081
27901W        W43370   0.829   2.262  10.013 -0.2280 -0.0242  0.1965
27902W        W43371  17.560  18.694   6.288  0.1889  0.1231  0.2749
27903W        W43372  15.013  15.980   3.753 -0.1389  0.1995  0.3966
27904W        W43373   6.062  11.940   3.573 -0.1853  0.0390  0.0521
27905W        W43374   8.617   3.340   0.471 -0.1681  0.2880 -0.0060
27906W        W43375   1.345   3.901  11.288 -0.4347 -0.0597 -0.1086
27907W        W43376  16.883   5.735  14.912 -0.1151  0.0505  0.0941
27908W        W43377  11.455  11.531   3.813 -0.1631 -0.0966 -0.1889
27909W        W43378  14.478   8.401  12.452 -0.1035  0.0481  0.1822
27910W        W43379   2.555  18.812  11.062 -0.1101  0.2474 -0.2667
27911W        W43380   0.441  17.062  12.784  0.1154  0.2042  0.1512
27912W        W43381   0.470   2.513  12.080 -0.1760 -0.0153 -0.2050
27913W        W43382   5.712  14.380   3.045  0.0406 -0.1649 -0.1747
27914W        W43383  17.488   2.111  14.922  0.1732 -0.0188 -0.0200
27915W        W43384   8.876  16.425   0.976  0.0371  0.4268  0.1035
27916W        W43385   5.486   4.511   5.122  0.2810 -0.1684  0.1022
27917W        W43386   4.703   3.308  11.361 -0.0074  0.2163  0.0216
27918W        W43387  15.369   9.909   5.186  0.0529 -0.0043 -0.0418
27919W        W43388   6.947   9.610  10.574  0.0769 -0.0328 -0.2354
27920W        W43389  15.673   8.471  10.968  0.1987 -0.0813 -0.0874
27921W        W43390  17.119   6.000  13.587 -0.2502 -0.1872 -0.1607
27922W        W43391   1.651   3.484   2.223 -0.1342 -0.3461  0.1470
27923W        W43392  12.180   9.983   0.712 -0.4224  0.0488 -0.1174
27924W        W43393  14.421  13.366   3.432  0.0922 -0.0726  0.0348
27925W        W43394  16.656   1.694   1.497 -0.2665  0.2780 -0.0129
27926W        W43395  17.948  11.602  15.301 -0.0226 -0.4034  0.0551
27927W        W43396  13.365  16.368  11.002  0.2238  0.1406  0.3717
27928W        W43397  10.163   6.763  12.906  0.1383 -0.0588  0.0651
27929W        W43398  10.602   5.458  14.960 -0.2396  0.3592 -0.1200
27930W        W43399  16.562  14.744   2.469  0.2348 -0.1784  0.0485
27931W        W43400   6.436   2.284   0.104 -0.0681  0.1582 -0.0133
27932W        W43401  11.879   5.378  14.741  0.3663  0.4102  0.0347
27933W        W43402   2.892   7.915  13.976  0.1776 -0.1401  0.2992
27934W        W43403   3.069   8.352   4.410 -0.2205 -0.1086  0.0533
27935W        W43404   8.995  17.194  11.392 -0.0006 -0.3576  0.2277
27936W        W43405  13.588   0.359  14.666 -0.0384 -0.1544  0.0404
27937W        W43406   8.581   0.219   5.313 -0.1304 -0.0916  0.0027
27938W        W43407   0.699   0.583   3.027  0.0852 -0.0373 -0.0120
27939W        W43408   7.375  12.806  12.830 -0.2454  0.5065  0.0490
27940W        W43409  17.380   3.550  12.562  0.0767  0.3747 -0.0186
27941W        W43410   7.978  15.750  13.695  0.5187 -0.0695  0.0328
27942W        W43411   1.050  16.075   3.914  0.2570 -0.1181 -0.2078
27943W        W43412  16.082  13.984  12.375  0.0680  0.1561 -0.0955
27944W        W43413  14.233   7.137   0.846  0.1460  0.4120  0.1295
27945W        W43414   9.416  18.478  12.420 -0.2517 -0.2322  0.2400
27946W        W43415   0.603  16.445  12.293 -0.1586 -0.0099  0.2046
27947W        W43416  13.404  10.861  13.944 -0.0084  0.3011  0.2662
27948W        W43417  18.552  14.781   3.468 -0.0776  0.4978  0.5619
27949W        W43418   2.426   1.541   1.930  0.0580  0.1910  0.0254
27950W        W43419   6.398   0.579  12.585  0.1137 -0.1592 -0.0596
27951W        W43420   5.096  17.947   4.358  0.0575  0.2715  0.1957
27952W        W43421   6.229  12.513  12.150 -0.1712  0.1479  0.0090
27953W        W43422  18.908  14.107   2.414  0.1837  0.1351  0.0124
27954W        W43423   8.063  13.804  13.548  0.1856  0.4440  0.1292
27955W        W43424   6.518   2.934   5.629  0.0878  0.1184 -0.1604
27956W        W43425   2.223   7.254   5.035 -0.0357 -0.1817 -0.0549
27957W        W43426  15.357  11.838   2.734 -0.2287 -0.0490  0.0269
27958W        W43427   5.701   1.300   4.574  0.0729 -0.1471  0.0033
27959W        W43428  16.852   9.502   0.149 -0.1589 -0.2028  0.1096
27960W        W43429   1.918  12.777  12.094  0.0663  0.0034 -0.2168
27961W        W43430   9.185   9.668   1.543  0.0964  0.0327 -0.0857
27962W        W43431   3.746   0.882   3.699 -0.1065 -0.0668  0.0437
27963W        W43432   8.151   5.432  15.020  0.0362  0.1026  0.1819
27964W        W43433  11.333   4.003   2.304  0.2914  0.0760 -0.1899
27965W        W43434   1.745   0.202   0.877  0.0773  0.2424 -0.4942
27966W        W43435   2.301  12.914   2.826 -0.2863 -0.0398  0.1943
27967W        W43436   0.105  12.662   2.882  0.0826  0.0476 -0.0029
27968W        W43437  16.716  17.998   9.718  0.0518 -0.2781  0.0516
27969W        W43438   9.164  10.873   4.697 -0.2119  0.4239  0.4014
27970W        W43439  18.208   1.285   3.170 -0.1497 -0.1259 -0.4975
27971W        W43440   9.447   8.451  13.483  0.0708  0.1319  0.0484
27972W        W43441  13.940  16.362   5.463  0.0348 -0.0904  0.2406
27973W        W43442   5.031   9.068  12.387  0.2658  0.1801  0.4443
27974W        W43443   5.632  13.689   0.526  0.2533  0.0774 -0.0283
27975W        W43444   1.708   2.001   4.702  0.0653 -0.1372 -0.1823
27976W        W43445   8.776  17.544   5.909  0.0533 -0.2269  0.1725
27977W        W43446  14.207  14.080   3.638 -0.0514  0.1023 -0.0492
27978W        W43447   0.238   5.740  11.244 -0.5307 -0.0505 -0.1648
27979W        W43448   4.433  14.850   3.989  0.1620 -0.1470  0.2860
27980W        W43449  10.668  16.670  12.953  0.1087 -0.0798 -0.3160
27981W        W43450  17.469   5.948   0.992 -0.2146 -0.0234 -0.3178
27982W        W43451  10.110  10.733   5.079 -0.2894  0.0199  0.6632
27983W        W43452   0.874   6.498   4.576  0.1808 -0.2320  0.2942
27984W        W43453   4.271   4.350   2.216  0.0471  0.1547 -0.2760
27985W        W43454  16.613   1.810  10.563  0.4246 -0.2030 -0.1276
27986W        W43455   6.240  15.998  15.212  0.0073  0.1383  0.3510
27987W        W43456   9.809  12.055  13.810 -0.4812  0.3506 -0.2075
27988W        W43457   8.963   1.822   1.821  0.2007 -0.1177  0.0553
27989W        W43458  12.003   8.974   3.261 -0.3016  0.1317 -0.0143
27990W        W43459  17.853   9.514   1.311 -0.2932 -0.0133  0.1519
27991W        W43460  17.352   2.789   4.234  0.0437 -0.1345  0.0167
27992W        W43461   5.643   0.557   0.516 -0.2462 -0.2571  0.2539
27993W        W43462  13.240  11.771   5.402 -0.3260 -0.0180  0.2273
27994W        W43463  12.724   7.265  12.374 -0.0646  0.4003  0.1447
27995W        W43464   7.882  13.727   4.512  0.2165 -0.0897 -0.1045
27996W        W43465   0.337   3.773  11.516 -0.3629  0.3957  0.0951
27997W        W43466   5.175  16.140   4.243  0.2153  0.1101  0.4298
27998W        W43467   2.802  16.659  14.748 -0.3027 -0.2494 -0.0705
27999W        W43468  16.059   7.508   5.094  0.1210 -0.2947 -0.2511
28000W        W43469   7.979  10.502   3.795 -0.4093  0.0216  0.3933
28001W        W43470   6.392   0.418   2.887  0.1845  0.1711 -0.2460
28002W        W43471  11.870   3.369  12.834 -0.1759  0.0590  0.2105
28003W        W43472  14.899   9.871   2.999 -0.0499  0.1347  0.1595
28004W        W43473   8.755   4.820   0.477  0.1646  0.1332  0.2136
28005W        W43474   1.324   1.283   4.957 -0.0500  0.0044  0.2204
28006W        W43475  13.823  10.918  14.161  0.1508 -0.2326 -0.0272
28007W        W43476  17.415  17.126   1.418 -0.2948 -0.1998  0.1970
28008W        W43477   9.113  17.742  14.660  0.0494  0.0349  0.4033
28009W        W43478  15.464  18.783   4.034 -0.2812 -0.0366 -0.1460
28010W        W43479   5.638  11.263   1.720  0.0029  0.3591 -0.2144
28011W        W43480   5.714  16.802  15.316 -0.1485 -0.0100 -0.1451
28012W        W43481  11.255   2.602   4.105  0.2132  0.0310  0.2987
28013W        W43482  13.663  10.977   4.895  0.0652  0.1701 -0.3700
28014W        W43483  16.021   3.941   3.460  0.0671 -0.1142  0.0657
28015W        W43484   6.390  12.062  11.502  0.0383  0.0232 -0.2269
28016W        W43485   5.168  11.968  11.453 -0.0226  0.2365  0.2331
28017W        W43486   4.338  11.518   1.103 -0.0330  0.1882  0.0624
28018W        W43487   0.009   3.010   0.528 -0.2151 -0.2578 -0.1024
28019W        W43488  12.257   3.374   1.304 -0.2225 -0.0796  0.1093
28020W        W43489  10.520   7.717  12.964 -0.1474  0.2709 -0.0327
28021W        W43490  18.135  17.595   1.529  0.1854  0.0312  0.0311
28022W        W43491   8.474  10.166  13.234 -0.1305  0.1016  0.0484
28023W        W43492   6.132  13.148   3.626 -0.1762 -0.1302 -0.0177
28024W        W43493   3.320   2.143  15.442  0.0056  0.0649 -0.0596
28025W        W43494  13.658   5.978   1.413  0.0188 -0.0133 -0.2808
28026W        W43495   0.507   0.987  10.597 -0.1719 -0.2375  0.2401
28027W        W43496  10.148   5.591   0.756  0.3572 -0.0147 -0.0266
28028W        W43497  14.826  15.765  12.281 -0.0913  0.2558  0.3989
28029W        W43498  14.553   4.988  11.090 -0.1677  0.2224  0.1724
28030W        W43499  11.613  15.282   1.871 -0.0222  0.1354  0.0266
28031W        W43500   0.594  12.349   3.139 -0.1255  0.1674 -0.1207
28032W        W43501   1.547   9.378   4.430 -0.0078 -0.0234  0.3095
28033W        W43502   8.691   7.473   4.332 -0.1603  0.3765 -0.0498
28034W        W43503  15.766  10.757   1.922  0.2878 -0.0134  0.0818
28035W        W43504  16.553  17.443  14.440 -0.0049  0.3548  0.1075
28036W        W43505  18.262  18.813   2.674  0.0539 -0.1741  0.1284
28037W        W43506   3.558   7.700   4.098  0.0186 -0.2878 -0.0380
28038W        W43507  16.673  14.959   3.223 -0.0491  0.0110  0.2258
28039W        W43508  16.351   9.830   2.795 -0.1300  0.1057  0.2019
28040W        W43509   7.948  15.269  13.896 -0.1095 -0.0897 -0.1200
28041W        W43510  10.891   0.428  15.092  0.1129 -0.0387  0.0071
28042W        W43511  13.251  13.016  14.524 -0.2984 -0.1617  0.3071
28043W        W43512  10.616   3.937  11.550  0.2251 -0.2746 -0.0639
28044W        W43513   7.672  10.461   4.321  0.0581  0.3379  0.0236
28045W        W43514  13.166  11.657   3.267  0.4819  0.1464  0.1294
28046W        W43515   4.944   2.827  13.542 -0.3575 -0.0569  0.0229
28047W        W43516   3.189   0.058  14.988 -0.1053 -0.0401  0.2297
28048W        W43517  16.351   4.190   1.962 -0.0894 -0.0014 -0.1943
28049W        W43518   7.805   1.201  14.061  0.1382 -0.0049  0.3496
28050W        W43519   5.248   5.968  11.051  0.1182 -0.2289  0.0500
28051W        W43520   3.537  12.419  11.549  0.0505  0.2725  0.1159
28052W        W43521   5.342   5.081   0.559  0.0349  0.0973 -0.1742
28053W        W43522  10.043   2.917  15.373  0.1199  0.1146  0.2154
28054W        W43523  18.557   5.526  14.662 -0.0197  0.0440  0.1029
28055W        W43524   6.464   1.381   1.250 -0.1175 -0.1241 -0.2319
28056W        W43525   3.398  13.571  13.189  0.0672  0.0832 -0.1568
28057W        W43526  14.777  13.077   5.295 -0.2907 -0.1019 -0.0365
28058W        W43527   3.425   3.686  11.971  0.5688 -0.0911  0.1985
28059W        W43528   6.417   2.538   2.591 -0.0107 -0.1308 -0.4276
28060W        W43529  12.617  10.582   3.974 -0.1357 -0.1473  0.0402
28061W        W43530  15.427   4.298   4.936  0.1902 -0.5026  0.0021
28062W        W43531   9.593   5.365  11.269 -0.1998  0.0317  0.0238
28063W        W43532  11.510   3.900  13.683  0.1291  0.1311 -0.0687
28064W        W43533  15.939   3.248   3.740  0.1698  0.1097 -0.2540
28065W        W43534   0.124  15.188   4.312  0.1785 -0.0930  0.0996
28066W        W43535   6.749  16.907  11.652  0.0675  0.0760 -0.1413
28067W        W43536  14.855  12.975   1.611 -0.0091 -0.2743  0.2407
28068W        W43537   3.327   2.054   0.494 -0.0962 -0.1449  0.2058
28069W        W43538  16.991  13.127  12.694  0.3444  0.0741 -0.1718
28070W        W43539  11.551   0.002   4.814  0.4108 -0.0134 -0.1859
28071W        W43540   0.368   0.619   5.098 -0.2591  0.1135 -0.0289
28072W        W43541  18.444   3.014   1.410  0.1149 -0.1113 -0.0280
28073W        W43542   3.956   8.620   2.273  0.1564 -0.0596  0.3024
28074W        W43543  14.680  17.824  14.869  0.0395  0.1065  0.0463
28075W        W43544   9.697   9.681  12.706  0.0566  0.0044  0.0938
28076W        W43545  11.149  12.015  12.483  0.0534 -0.2225 -0.1884
28077W        W43546   6.113  17.465  11.374 -0.1641 -0.2017 -0.2312
28078W        W43547  17.699  14.465   2.177 -0.0234 -0.0900  0.0982
28079W        W43548   5.285   5.516  11.528  0.0170 -0.5240  0.1532
28080W        W43549  10.272  11.978  10.819  0.0148  0.0597  0.5330
28081W        W43550   4.322  11.144  11.176 -0.0294  0.1302 -0.1115
28082W        W43551  11.511   7.842  13.954  0.0240  0.0205  0.2233
28083W        W43552  17.050   6.436  14.873 -0.0296  0.1505  0.1918
28084W        W43553   1.965   1.641   2.336 -0.2072  0.1095 -0.0784
28085W        W43554   0.603   3.945  14.145 -0.1518 -0.1360 -0.3073
28086W        W43555  14.323   6.170   0.228  0.2518  0.2935 -0.1580
28087W        W43556   0.355   7.937  10.990  0.3277 -0.0500  0.0895
28088W        W43557  11.976  16.713  13.728  0.2078  0.2332  0.0655
28089W        W43558  12.098  18.684  13.237 -0.0762  0.0364  0.1121
28090W        W43559  10.513   2.343  12.007  0.0458  0.1726 -0.1816
28091W        W43560  16.953   0.675   2.419 -0.3170 -0.0292  0.3964
28092W        W43561  11.852   6.644   0.107  0.2305  0.0383 -0.2564
28093W        W43562   4.247  12.728  10.820  0.1338  0.0462 -0.1127
28094W        W43563  17.815  10.112   1.635  0.1159 -0.3499  0.1043
28095W        W43564   9.963   2.512   4.813  0.1615 -0.0155 -0.0201
28096W        W43565  14.922  11.820  14.767  0.0594  0.0003  0.3454
28097W        W43566   9.216  18.074  12.815 -0.0708  0.0348 -0.0319
28098W        W43567   8.968  14.251   3.626 -0.1223  0.3562 -0.0601
28099W        W43568   1.958   0.650   0.712  0.1257 -0.1379  0.0997
28100W        W43569   8.417   2.273  12.628 -0.2104 -0.0721 -0.0270
28101W        W43570  13.971  14.949  14.283  0.0833 -0.1897  0.1824
28102W        W43571  17.129  13.389  14.995 -0.1369 -0.0875 -0.4929
28103W        W43572  15.041   9.156  11.013  0.1491  0.0830  0.2021
28104W        W43573  18.766   0.477   3.489  0.2698  0.1000  0.3255
28105W        W43574   6.530   0.971  13.899 -0.1161 -0.3452 -0.2556
28106W        W43575  15.249  13.776   0.608  0.0569 -0.2314 -0.2296
28107W        W43576   9.878   1.447   2.855  0.2903 -0.1303  0.1662
28108W        W43577   0.045   8.466   4.350 -0.0716  0.1385  0.1367
28109W        W43578   5.696   5.732   3.278 -0.1194 -0.2972  0.1323
28110W        W43579  11.617  14.965   3.579  0.1102 -0.2001 -0.0973
28111W        W43580  12.384  10.015   1.182  0.3261 -0.0428 -0.3161
28112W        W43581  16.860  17.889   4.424 -0.1765  0.0170 -0.1633
28113W        W43582  17.699   5.068   0.125 -0.1097  0.1535  0.2203
28114W        W43583   4.985  11.821  10.982  0.0673 -0.0881 -0.0828
28115W        W43584   5.372  16.932  13.243  0.1448  0.1239  0.3687
28116W        W43585   1.572   4.741   0.969  0.0536  0.0974 -0.1312
28117W        W43586  10.309  18.915   3.203  0.0239 -0.0024 -0.3350
28118W        W43587   5.214   5.582   4.097  0.0896  0.0158  0.1527
28119W        W43588   5.096   7.094  10.108 -0.2534 -0.0050 -0.0046
28120W        W43589   2.228   9.385   5.568  0.1699 -0.1651 -0.3429
28121W        W43590  11.224   5.352  12.776  0.0866 -0.1280  0.1558
28122W        W43591  14.094  10.801   4.543 -0.1861  0.0772 -0.1618
28123W        W43592   0.609   2.242   3.655 -0.5214  0.2298 -0.0835
28124W        W43593   6.331  18.177   5.578  0.1251 -0.3379 -0.1618
28125W        W43594  13.486  13.438  14.246 -0.0682 -0.0687 -0.1311
28126W        W43595  10.653   0.798   3.874 -0.3827 -0.1459  0.0272
28127W        W43596  16.038  13.072  14.201  0.0149  0.0048  0.0259
28128W        W43597   2.271  18.194  15.417 -0.2802 -0.0312 -0.1489
28129W        W43598   6.371   2.518   4.938 -0.2296 -0.4010  0.3295
28130W        W43599   5.842   3.626   1.330 -0.1406  0.3368 -0.2080
28131W        W43600   5.441   0.541  13.286 -0.2182 -0.0967  0.1792
28132W        W43601  15.277   7.213  10.786 -0.1084 -0.2498  0.0732
28133W        W43602  13.763  16.874  15.443 -0.0996  0.1756  0.1696
28134W        W43603   6.460  11.279  11.176 -0.0131 -0.2682  0.2385
28135W        W43604   0.286   3.368   0.268  0.0604 -0.1306 -0.2053
28136W        W43605   5.197   3.685   0.795  0.2709 -0.1400 -0.0444
28137W        W43606  10.918  18.024  10.849  0.0166 -0.3635  0.2369
28138W        W43607   3.737   4.911   1.664 -0.0346  0.2600  0.2109
28139W        W43608   3.844  15.505  10.187  0.1480 -0.2931 -0.1353
28140W        W43609   9.092  15.175  13.210 -0.0598 -0.1135 -0.0884
28141W        W43610   4.576   4.326  14.365  0.2159  0.0163 -0.3653
28142W        W43611  18.540  15.863  14.376 -0.5773 -0.3533  0.4037
28143W        W43612  11.742  17.053  15.084  0.2533  0.0679 -0.0544
28144W        W43613   7.954   4.563   5.292 -0.0951  0.0808 -0.0802
28145W        W43614   7.314   9.544  15.378  0.1323  0.2298 -0.2104
28146W        W43615  18.535  10.016  12.858  0.1140  0.0835  0.2126
28147W        W43616   4.628  14.791  15.145 -0.2367  0.1090  0.3657
28148W        W43617  13.679   8.099   0.901  0.1818  0.0436  0.1130
28149W        W43618  18.655   1.140   2.841  0.0805  0.1523  0.4940
28150W        W43619  17.921  15.649  12.872  0.1727 -0.2442 -0.0563
28151W        W43620   6.242   1.205   2.265  0.0824  0.0476  0.0251
28152W        W43621  18.246  13.975   4.159  0.0152 -0.1578  0.1637
28153W        W43622   4.561   5.267  14.607 -0.1684  0.1183 -0.1722
28154W        W43623  18.151  13.218   1.689 -0.0018  0.1951 -0.1099
28155W        W43624   4.359   1.895   5.306  0.2686 -0.5643  0.2080
28156W        W43625   1.737   4.632   0.316 -0.1676 -0.0441  0.1384
28157W        W43626   8.268   6.612   4.477 -0.0560  0.0100 -0.2435
28158W        W43627  14.106   3.730   9.778 -0.2410 -0.2801  0.0829
28159W        W43628  18.805   3.604  12.889  0.1218  0.1866  0.1558
28160W        W43629   4.752  14.401   4.302  0.2889  0.1507 -0.1726
28161W        W43630  13.666  18.387   0.885 -0.3216  0.0996  0.1947
28162W        W43631   2.034  11.413   4.181 -0.0545 -0.2664 -0.2011
28163W        W43632  17.702   8.897  13.766 -0.0914  0.1817 -0.0102
28164W        W43633   3.267  18.252   0.932 -0.2105  0.1605 -0.0947
28165W        W43634  17.682   2.162  12.205 -0.3025  0.0123 -0.0009
28166W        W43635   1.881   7.375  10.279  0.0637 -0.1392 -0.1601
28167W        W43636   0.056   2.169  15.367 -0.0022 -0.0277  0.0417
28168W        W43637  15.761  16.118   4.934  0.2373  0.0965 -0.2173
28169W        W43638   2.905  18.737   5.130  0.1186  0.0259 -0.0878
28170W        W43639  11.095  13.414  12.512 -0.1438  0.0549 -0.0401
28171W        W43640   1.461  17.441  13.794 -0.2604 -0.0959 -0.2346
28172W        W43641  15.163   1.603  11.078 -0.2815  0.0963  0.2414
28173W        W43642  16.461  15.919  14.751 -0.3592  0.4713  0.0172
28174W        W43643  14.306   0.667  14.052 -0.1365 -0.0386  0.4643
28175W        W43644   8.855   3.251   9.659  0.2808  0.2425 -0.4123
28176W        W43645  16.380  13.939   1.947  0.1211  0.0993  0.2602
28177W        W43646   5.941  13.816  10.454  0.0063 -0.0312  0.0059
28178W        W43647   6.303  13.797  10.796 -0.0250 -0.3482  0.3974
28179W        W43648   3.766   2.294   3.207  0.0955 -0.1562  0.2529
28180W        W43649   4.004  17.634  12.779 -0.0753 -0.2207  0.0834
28181W        W43650  13.436  14.459  13.221  0.3311  0.4388  0.2872
28182W        W43651   2.569  14.897   2.571  0.0897  0.2431 -0.0203
28183W        W43652  10.186   2.180  13.832 -0.0079  0.2872  0.1713
28184W        W43653  17.536  13.131   9.486 -0.1400  0.0193 -0.1993
28185W        W43654  11.624  15.024  10.070 -0.4682 -0.1521 -0.1447
28186W        W43655   5.838   2.477   4.784  0.1467  0.0597 -0.0383
28187W        W43656   4.234   1.082   3.019  0.2823 -0.1835  0.0229
28188W        W43657  10.596  14.140   4.477 -0.2183  0.1607  0.0571
28189W        W43658  18.174   9.224  12.901  0.0180 -0.1471 -0.2310
28190W        W43659  16.843   3.807  12.490  0.1191  0.1124 -0.2942
28191W        W43660   2.610  17.070   2.671  0.2726  0.1749  0.3234
28192W        W43661   7.096   6.085   5.074  0.0262 -0.0213  0.0192
28193W        W43662   3.065  11.032   4.006 -0.3730 -0.0966  0.0578
28194W        W43663  17.283   7.376   0.689 -0.0385  0.0767  0.3268
28195W        W43664  14.366   3.478   2.859  0.3334 -0.0788  0.1366
28196W        W43665   3.917  13.054   5.008 -0.0691 -0.2644 -0.2995
28197W        W43666  16.928  16.846  13.644  0.2266 -0.1566  0.1380
28198W        W43667   6.032  12.333  13.978  0.1333  0.4572  0.2448
28199W        W43668  12.235   6.282  11.771  0.0957  0.2391 -0.1299
28200W        W43669   7.996  15.295   4.557  0.0969 -0.1195  0.1616
28201W        W43670  16.185  15.170   0.374  0.1747 -0.0088  0.1022
28202W        W43671  15.816   0.543   1.976  0.2172  0.0690 -0.2461
28203W        W43672   4.931   5.828   2.108 -0.1485 -0.0642 -0.0603
28204W        W43673  11.926   3.350   3.979 -0.1677 -0.2666 -0.0220
28205W        W43674   3.976   9.849  13.970 -0.0744 -0.1216  0.0621
28206W        W43675   0.552   5.760  13.570  0.1408 -0.0908 -0.0010
28207W        W43676   8.902   7.820   1.409 -0.1043 -0.3650  0.0904
28208W        W43677  14.010  16.574  12.295  0.0246 -0.0710  0.0205
28209W        W43678  16.258  14.540   4.813 -0.1501 -0.1102 -0.2987
28210W        W43679   6.829   3.395  12.397  0.2712  0.1118 -0.0932
28211W        W43680  14.351  15.636   2.841 -0.1687  0.1815 -0.1425
28212W        W43681   2.871  10.907   1.532  0.1180  0.3142  0.2203
28213W        W43682  11.041  11.871   3.704  0.4367 -0.1394  0.2389
28214W        W43683  15.395  16.212   2.296 -0.0705  0.2437 -0.3355
28215W        W43684   9.789   7.716  14.695 -0.0532  0.2847 -0.4330
28216W        W43685  15.538   2.811  14.116  0.0539  0.2854  0.2008
28217W        W43686   5.047  11.681   4.591 -0.0760  0.0787  0.4469
28218W        W43687  10.103  15.442  12.452  0.0438 -0.1203 -0.0338
28219W        W43688   8.272  10.114   4.564  0.0580 -0.1851 -0.1799
28220W        W43689   2.502  12.034  13.904 -0.0973  0.2615 -0.1875
28221W        W43690  18.598  14.613   9.837  0.5276 -0.1304 -0.3256
28222W        W43691   3.227  18.072  12.322  0.3214 -0.1233  0.0175
28223W        W43692  10.686   8.061  11.592 -0.0116 -0.0387 -0.0362
28224W        W43693  15.983  12.294   0.974  0.1346  0.2393 -0.2020
28225W        W43694  13.755   7.823   0.527 -0.1981 -0.1655 -0.1065
28226W        W43695  10.290  18.475   2.386 -0.0215 -0.6071 -0.0933
28227W        W43696   0.355  11.926  13.855 -0.0993 -0.2988  0.1260
28228W        W43697  15.878  12.559  15.085 -0.3539  0.2535 -0.0943
28229W        W43698   3.559   7.053  15.142  0.0365 -0.3122  0.3112
28230W        W43699   6.314   8.713   2.639  0.1812  0.3104  0.1162
28231W        W43700   0.998  15.277   2.945 -0.1581 -0.4130  0.2644
28232W        W43701  17.122  18.106   2.084  0.0304 -0.0700  0.2580
28233W        W43702   1.429  17.579   0.851 -0.0192  0.3231 -0.2438
28234W        W43703   7.243  16.811  15.404  0.2052  0.0541 -0.1346
28235W        W43704   2.614  11.372   0.871 -0.2828  0.1974 -0.1517
28236W        W43705  17.559  11.788  12.708  0.1308 -0.3076  0.1116
28237W        W43706  13.437   9.932  13.440  0.2460 -0.0444  0.0084
28238W        W43707   1.477   6.439   3.460  0.0700  0.0542 -0.1494
28239W        W43708   8.606   6.010  14.077 -0.0365  0.1766  0.0989
28240W        W43709  15.231   0.456  14.202  0.1851  0.0928  0.1604
28241W        W43710  11.361   7.516  12.992 -0.1389  0.0701  0.3332
28242W        W43711  16.976   2.655   4.994 -0.0882 -0.2331  0.1092
28243W        W43712   6.952  18.705  10.108  0.0597 -0.1422  0.3855
28244W        W43713   9.536  10.499  11.257  0.4639  0.0289  0.3681
28245W        W43714   6.390   3.324   2.303 -0.1689  0.2877  0.0451
28246W        W43715   2.064   9.493   0.336  0.1364 -0.1200 -0.5186
28247W        W43716   0.944  12.706   1.421 -0.3893 -0.0255  0.0697
28248W        W43717  13.803   7.332   3.354 -0.1573 -0.0603  0.1199
28249W        W43718   8.819   3.593  14.410 -0.0458 -0.2235  0.1701
28250W        W43719  15.564  17.567  10.903  0.3288 -0.2140 -0.1439
28251W        W43720   2.748  10.637   1.999 -0.4726 -0.0127  0.0056
28252W        W43721  17.697   5.637   1.701 -0.1762  0.3845 -0.1273
28253W        W43722  10.570   5.265  12.849  0.1992  0.1099 -0.0721
28254W        W43723  17.691   3.962  15.263  0.1443  0.2383  0.0611
28255W        W43724  17.849  10.467   1.179 -0.1865  0.0120  0.2075
28256W        W43725   3.545  10.338  14.796 -0.2080  0.2018  0.2356
28257W        W43726   2.441   6.155   3.930  0.1499  0.2535 -0.3053
28258W        W43727  15.904   2.298  11.089 -0.1322  0.0732  0.4500
28259W        W43728  11.650  16.334   3.206  0.0268 -0.1308  0.1996
28260W        W43729  13.159   3.277   1.388 -0.0954  0.0266 -0.2711
28261W        W43730   4.534   7.006   0.032 -0.0230  0.1907 -0.2431
28262W        W43731   4.405  12.309   3.576 -0.0441  0.0372  0.2315
28263W        W43732   1.690   8.381  12.639 -0.0754  0.0571 -0.0546
28264W        W43733   5.044  15.575  12.919  0.3419 -0.2290 -0.0822
28265W        W43734  10.709  17.999  14.166  0.0991 -0.0055  0.0326
28266W        W43735  10.475  12.333  12.244  0.2434  0.2059  0.1992
28267W        W43736   2.365  10.232   4.320  0.0350  0.2229  0.1281
28268W        W43737   6.727  15.199   4.490 -0.1017  0.3637 -0.2733
28269W        W43738   5.129  10.773   4.555  0.0600 -0.2429 -0.0245
28270W        W43739  12.793   6.700  11.077  0.2281 -0.3085  0.4352
28271W        W43740   2.981   3.095   2.135 -0.0456  0.2010  0.3175
28272W        W43741   6.827   9.753  12.062 -0.0940 -0.0588 -0.0146
28273W        W43742   7.102   0.638  13.237  0.1465  0.2931  0.2811
28274W        W43743  15.874   9.635  14.188  0.1376  0.0514  0.0596
28275W        W43744  14.483   3.328  12.000 -0.2556  0.3507  0.3078
28276W        W43745   8.362   1.239   5.109  0.1288 -0.0662  0.0502
28277W        W43746  15.140   2.302   0.647  0.2731 -0.3055 -0.2640
28278W        W43747  10.838  11.738   2.075  0.0693  0.0638 -0.0641
28279W        W43748  18.441   5.492   0.633 -0.1055 -0.0334  0.2290
28280W        W43749  13.859   1.005  10.682  0.4166 -0.0145  0.1220
28281W        W43750   2.870   8.060   4.038  0.3102 -0.3842 -0.0129
28282W        W43751  12.796  10.689  10.746 -0.0968 -0.0759 -0.1854
28283W        W43752  15.385  14.285  13.976  0.1652  0.1510 -0.2521
28284W        W43753   3.075   3.230  14.548  0.2505  0.0549  0.2928
28285W        W43754   5.469   0.969  10.223 -0.3331  0.0262  0.4102
28286W        W43755  15.237   5.614  10.867 -0.2997 -0.2070  0.1614
28287W        W43756  14.753   6.285  10.597 -0.1011  0.2021 -0.0149
28288W        W43757  12.215   3.986  11.213  0.2050  0.1320  0.2240
28289W        W43758   7.545  18.548  14.699  0.1498 -0.1720 -0.0339
28290W        W43759  18.557   6.713   2.695 -0.0540  0.4413 -0.1070
28291W        W43760   0.073   1.239   0.859 -0.3950  0.0632 -0.0115
28292W        W43761  10.776  15.647   0.131  0.0957  0.0806  0.0447
28293W        W43762  14.872   3.611  12.160 -0.4038 -0.0213  0.0065
28294W        W43763   6.035   9.320  11.707  0.0116  0.1476  0.2938
28295W        W43764   8.114   7.198  13.529 -0.1114 -0.2180 -0.0754
28296W        W43765   8.674   7.704  12.260  0.0653 -0.4191  0.1351
28297W        W43766  18.285   7.444  12.150  0.0718 -0.5512 -0.4349
28298W        W43767   1.512   4.208  14.074  0.1454 -0.1503  0.2856
28299W        W43768   8.477   0.635   2.495  0.4667 -0.1180 -0.3005
28300W        W43769   7.639  15.764   0.415 -0.2921 -0.1572 -0.0496
28301W        W43770   4.149   8.589   1.320 -0.0845  0.5825  0.0554
28302W        W43771   2.019   2.246   3.891  0.1719 -0.5188 -0.6729
28303W        W43772  16.832   1.035  14.180  0.1372 -0.0684  0.1718
28304W        W43773   0.701   2.235   5.057 -0.4022  0.1398 -0.0068
28305W        W43774   0.921   4.288   5.267  0.0848 -0.3169 -0.1163
28306W        W43775   0.094   1.030   2.559  0.1375  0.1475 -0.1261
28307W        W43776  15.724   6.392   3.940  0.0524  0.0924 -0.0748
28308W        W43777   7.984   6.822  14.812  0.0043  0.3044  0.3512
28309W        W43778   8.034   4.462  13.410  0.1701  0.0052  0.4194
28310W        W43779   5.590  12.176  13.016  0.2566  0.2209 -0.1672
28311W        W43780  16.042  11.587  15.191 -0.2762  0.0955 -0.1356
28312W        W43781   9.792  14.680  12.159 -0.1503 -0.0186 -0.2812
28313W        W43782   5.303  12.766   1.438 -0.0770  0.1537 -0.0070
28314W        W43783   4.826  11.321  11.385 -0.2467  0.2775  0.2611
28315W        W43784  17.331  10.532  12.932  0.0741 -0.0282  0.2175
28316W        W43785  15.027  16.408   2.665 -0.0330  0.1404 -0.0116
28317W        W43786  12.327   1.695   3.976 -0.1269 -0.1877 -0.1550
28318W        W43787  16.085   5.624   1.475  0.2115 -0.3572 -0.3119
28319W        W43788   9.171   0.601  10.745  0.1621  0.2314  0.1713
28320W        W43789   3.698  15.789   5.406 -0.3050  0.0867 -0.0662
28321W        W43790  18.737   0.969   1.285  0.2808 -0.1696  0.1586
28322W        W43791   9.314   2.109   2.597 -0.0603 -0.0292 -0.0290
28323W        W43792   5.504  12.686  11.421 -0.1055  0.3711 -0.3821
28324W        W43793  10.453   9.272  13.542 -0.2918  0.0238 -0.1661
28325W        W43794  17.583   6.090   3.267 -0.0667 -0.0957 -0.1078
28326W        W43795   0.659  14.472   4.064 -0.1411 -0.2542 -0.1540
28327W        W43796   0.589  13.891  14.320 -0.3646 -0.0535 -0.1895
28328W        W43797   0.977  10.273   3.685 -0.2225 -0.2489  0.1533
28329W        W43798  16.869   1.987  11.857  0.0226  0.2242 -0.0637
28330W        W43799   5.437  16.143   2.160  0.2288  0.3214  0.1641
28331W        W43800  10.588   8.897   3.183  0.3785 -0.0452  0.1067
28332W        W43801  11.845   4.903   1.647 -0.0621  0.0951 -0.0889
28333W        W43802   1.520  17.105   3.561 -0.1146  0.0808 -0.0228
28334W        W43803  13.975  16.481  14.104  0.1781  0.2726  0.3444
28335W        W43804  12.708   5.091  15.215  0.1416  0.1584  0.2112
28336W        W43805   4.469   8.215  10.436  0.0112  0.0065 -0.1685
28337W        W43806  11.663   4.247  15.421 -0.2811 -0.0501 -0.1100
28338W        W43807   5.709   1.202   5.063  0.0086  0.1090 -0.1671
28339W        W43808   2.579  17.749  14.599  0.1161  0.1069  0.3162
28340W        W43809   3.929  11.060  13.112 -0.1119 -0.0527 -0.0755
28341W        W43810   0.897  17.641  12.165 -0.0660 -0.2029 -0.0239
28342W        W43811  14.133   6.059   9.845 -0.1476 -0.0077  0.1601
28343W        W43812  11.267   9.804   3.047 -0.1298 -0.3855 -0.0606
28344W        W43813   2.745   6.131   5.478  0.0020  0.1122 -0.1758
28345W        W43814   0.565  16.926  14.589 -0.0399  0.0303 -0.0686
28346W        W43815   6.733  12.839  11.424 -0.2861  0.0734 -0.0054
28347W        W43816  15.354  11.140  12.973 -0.1290 -0.0300 -0.4037
28348W        W43817  11.669   3.047   2.348  0.0043 -0.0636  0.2105
28349W        W43818  17.006   7.454   4.496 -0.1341  0.0439 -0.1085
28350W        W43819   4.507   8.825   1.020  0.0649  0.2726 -0.4168
28351W        W43820   2.221  15.331   2.399  0.2191 -0.2057  0.0759
28352W        W43821  10.479  10.243  15.134  0.4993  0.0809 -0.0960
28353W        W43822  10.820  13.596  14.157 -0.2787  0.3929 -0.1947
28354W        W43823  15.504  14.641  15.229 -0.0615  0.0927  0.2197
28355W        W43824  12.737  15.693  14.570  0.0138  0.1150  0.2776
28356W        W43825   7.741  11.523  12.529 -0.2932 -0.1435 -0.0919
28357W        W43826  16.416   6.931   0.863 -0.0855 -0.0410  0.1838
28358W        W43827  17.454  12.068  14.839 -0.1325 -0.1548  0.2758
28359W        W43828  12.640  18.379   2.248 -0.0785 -0.0694  0.2832
28360W        W43829  13.781   6.905   3.917 -0.3242  0.0299  0.1834
28361W        W43830   6.860  12.510  12.785  0.1895  0.0854  0.3035
28362W        W43831   0.050  12.891  12.215 -0.0776  0.1555 -0.2040
28363W        W43832  13.444  13.327   1.199  0.0801 -0.3755  0.1121
28364W        W43833   6.208  15.230   1.969 -0.4945  0.0465 -0.3957
28365W        W43834   3.294  15.098  11.469  0.1392 -0.0492 -0.1355
28366W        W43835  18.913  15.919   4.781 -0.0831 -0.2475  0.1757
28367W        W43836   0.366  12.326   4.501 -0.0745  0.1597  0.2294
28368W        W43837   2.114  14.638  10.835 -0.1066  0.1944  0.2361
28369W        W43838   5.047  11.891  15.259 -0.0591  0.2177  0.0726
28370W        W43839   1.007   2.516   4.801 -0.0452 -0.2602  0.1040
28371W        W43840   5.414  11.023  10.514 -0.1236  0.0902 -0.0975
28372W        W43841  17.409   5.904   2.052 -0.1621 -0.0998 -0.4202
28373W        W43842   5.409   6.367  13.049  0.0647  0.1356 -0.3832
28374W        W43843  14.837  10.738   3.410 -0.1591  0.2177  0.0761
28375W        W43844   4.650  11.863  12.180 -0.0906  0.1259  0.0911
28376W        W43845   2.317   9.638   3.044  0.1448 -0.2091  0.1396
28377W        W43846  10.359  15.266   0.412 -0.2506 -0.0798  0.3804
28378W        W43847  17.609   8.364   4.123 -0.0492  0.2058 -0.0690
28379W        W43848   1.607   0.670   1.568 -0.0399 -0.0223 -0.1150
28380W        W43849   3.262  13.083   2.663  0.3625  0.0528  0.0996
28381W        W43850  13.575  10.618  13.465 -0.0486  0.0167  0.0599
28382W        W43851   7.389  13.069   2.360  0.3715  0.1266  0.0314
28383W        W43852   6.058   3.313  10.157  0.0323  0.2462  0.0195
28384W        W43853   5.882  17.983   2.176 -0.0059  0.0466 -0.0512
28385W        W43854   5.051   2.029  12.487 -0.1808 -0.0803  0.0212
28386W        W43855  12.411  13.140   1.806  0.1983  0.3597  0.2227
28387W        W43856   5.826   4.551  13.800  0.0195 -0.1386  0.0610
28388W        W43857  15.933  10.565   4.507  0.4791 -0.1464 -0.2498
28389W        W43858  11.093  15.483  12.544 -0.0148 -0.0701 -0.0374
28390W        W43859  12.297  12.500   2.706 -0.0120 -0.0050  0.1285
28391W        W43860   0.675   1.845  11.235 -0.2016  0.2580  0.2114
28392W        W43861   7.410  11.563  14.270  0.0981  0.0557 -0.1607
28393W        W43862   6.749  12.521  12.282 -0.2034  0.0375 -0.0919
28394W        W43863   5.963   7.285  15.438 -0.0342 -0.2116 -0.0432
28395W        W43864  14.992   0.820   5.045  0.0270 -0.2331  0.3145
28396W        W43865   8.461  17.289  14.209  0.1606 -0.1907  0.2566
28397W        W43866   1.772   1.093   2.399 -0.2621 -0.1322 -0.0622
28398W        W43867   9.409  14.170   2.207  0.0024  0.0023  0.0181
28399W        W43868  12.143   0.715  14.224 -0.0047 -0.3638  0.1676
28400W        W43869  14.526   2.085   1.416  0.3465  0.4676 -0.0296
28401W        W43870  14.852  13.458  14.345 -0.3089 -0.1985 -0.1425
28402W        W43871  11.596   1.879   2.127 -0.0116  0.1680 -0.1069
28403W        W43872   5.526   7.795   3.098  0.1304 -0.1629  0.4219
28404W        W43873  14.533   9.007   2.921  0.2091  0.0102  0.3186
28405W        W43874  10.519   5.607   0.342  0.2098  0.0732  0.4084
28406W        W43875   7.370  11.359   1.507  0.2330 -0.1702  0.0633
28407W        W43876   9.261  18.556   4.420  0.1855  0.2854 -0.2442
28408W        W43877  11.781  14.171  11.944  0.0077  0.0222  0.0994
28409W        W43878   8.901  14.914   2.540  0.2753 -0.1538 -0.0398
28410W        W43879   0.554  18.008  12.338 -0.1318 -0.1237 -0.2014
28411W        W43880  15.524  15.587  10.837 -0.1062 -0.3580  0.1036
28412W        W43881  16.131   1.818  10.828  0.2214 -0.0550  0.1556
28413W        W43882   6.975   8.664   4.444 -0.0488  0.0243  0.0602
28414W        W43883   6.855   9.643  12.955  0.0377 -0.0080  0.1109
28415W        W43884  12.658   5.114  10.454 -0.2660  0.0784 -0.0541
28416W        W43885  13.006   1.368  12.236  0.2017  0.3230 -0.0510
28417W        W43886  15.248  18.218  13.152  0.0980  0.2645  0.2602
28418W        W43887   2.036  17.377  15.238 -0.0815  0.0253  0.2169
28419W        W43888  15.415  11.420   1.319 -0.2403 -0.2344 -0.1795
28420W        W43889   1.518  13.480   3.487 -0.0533  0.3124  0.0251
28421W        W43890   9.857   3.918  15.500 -0.0944  0.0878 -0.2895
28422W        W43891  16.860  18.179   0.219  0.0518 -0.3609  0.2354
28423W        W43892  12.013  14.686  12.576 -0.1469 -0.0575 -0.0350
28424W        W43893   5.804  10.606  14.553  0.1713 -0.2855 -0.0036
28425W        W43894  10.240  17.624  11.431 -0.0905 -0.0600  0.0146
28426W        W43895   8.559  16.622   1.418 -0.1046  0.0152  0.1033
28427W        W43896  12.276   8.216  10.584 -0.0387 -0.1256 -0.0756
28428W        W43897   7.977  14.205   3.217 -0.1471  0.0925 -0.0829
28429W        W43898   6.011  11.219   2.380  0.5192  0.1639  0.3146
28430W        W43899   5.026   9.755   1.674  0.0421 -0.1427 -0.3943
28431W        W43900  16.266   5.188  12.303 -0.0625  0.1968  0.2196
28432W        W43901  15.151  11.512  14.414 -0.1093 -0.4434 -0.3787
28433W        W43902  13.564   7.436  11.429  0.0548  0.0683  0.1782
28434W        W43903   1.185  16.489   2.308  0.1801  0.1928  0.2554
28435W        W43904   4.335   1.901   0.107 -0.0864  0.1395  0.2427
28436W        W43905   4.282   3.117   2.246 -0.0013 -0.2722  0.1394
28437W        W43906  13.099  13.144   4.581  0.1162  0.1700  0.1333
28438W        W43907   5.624  10.486   0.484 -0.3894 -0.2482  0.1736
28439W        W43908  15.106  14.332  15.426  0.1599  0.0044  0.2848
28440W        W43909  14.109   6.637   4.540  0.3717 -0.4026  0.1297
28441W        W43910   1.146  15.060   2.446  0.3956  0.2935  0.3151
28442W        W43911   4.863   5.211   4.814 -0.1496 -0.0832 -0.1076
28443W        W43912   2.375  14.385   0.036  0.2554 -0.0071  0.0345
28444W        W43913   2.409   0.026   4.652 -0.0891  0.2433 -0.1093
28445W        W43914  10.645  12.644  11.395 -0.0286 -0.1303  0.1026
28446W        W43915  12.625  10.122   3.690  0.0646  0.4434 -0.0917
28447W        W43916   1.269  18.759  11.422 -0.0758 -0.0387 -0.4399
28448W        W43917   4.971  18.708   1.355  0.3066 -0.0716 -0.1850
28449W        W43918   9.805   2.159  14.129 -0.1016  0.0908 -0.2385
28450W        W43919  15.551   2.303  14.794  0.1529  0.2455 -0.0534
28451W        W43920  14.634   7.754   3.184 -0.0198 -0.1328 -0.3631
28452W        W43921  15.843  14.427  14.192  0.1996 -0.1315 -0.1345
28453W        W43922   6.253  15.841  10.889 -0.0767  0.1087  0.3878
28454W        W43923   4.074   3.815   0.323 -0.3475 -0.1285 -0.0936
28455W        W43924   5.540  16.011   3.372 -0.1324  0.1040  0.2694
28456W        W43925  14.804   5.339   3.631  0.0994 -0.0461 -0.1419
28457W        W43926   6.091  17.428  13.415 -0.0038  0.0059  0.2364
28458W        W43927  15.048  12.655   3.456  0.1460  0.0956  0.1829
28459W        W43928   2.702   2.973   4.710  0.1609  0.3276 -0.1655
28460W        W43929  11.173   6.844  10.384  0.1541  0.0665 -0.1528
28461W        W43930   6.244  12.424   4.373  0.4007  0.0837  0.1275
28462W        W43931  16.082  16.459   0.290  0.1456  0.1797 -0.0709
28463W        W43932   8.605   7.984   2.720  0.0924  0.3959  0.0467
28464W        W43933   9.721   6.739   2.699 -0.1993 -0.4491 -0.0993
28465W        W43934   5.234   3.668   4.440  0.3968  0.0943 -0.2075
28466W        W43935  12.100  11.764  10.997 -0.0765  0.0931  0.3462
28467W        W43936  15.383   0.753  10.825 -0.2033 -0.2192  0.0764
28468W        W43937   9.743   3.461   3.090  0.0369 -0.1117  0.4564
28469W        W43938  12.037   9.247  12.409 -0.0895  0.1322 -0.3972
28470W        W43939   2.546   9.298   0.432  0.3852 -0.1979 -0.1072
28471W        W43940  15.850  10.424   3.484 -0.2866 -0.3315 -0.1960
28472W        W43941  18.549  14.963   4.977 -0.0011 -0.0491  0.2129
28473W        W43942  12.714  18.796   3.805 -0.0256 -0.2771 -0.0826
28474W        W43943   8.809  13.973  11.408 -0.3761 -0.3118 -0.0715
28475W        W43944  14.094  15.981   3.874 -0.0736 -0.2766  0.0304
28476W        W43945   6.029   1.635   1.553 -0.0450  0.0514 -0.0376
28477W        W43946   2.413   8.492  11.822  0.0540 -0.1840  0.2044
28478W        W43947  13.514  16.777  13.966  0.0540  0.2366  0.0780
28479W        W43948   2.880   9.445   0.790  0.0703  0.3617 -0.1884
28480W        W43949  11.811   7.314  14.043  0.0796  0.2886  0.0994
28481W        W43950   9.981   4.433  12.905  0.1815  0.1112 -0.1764
28482W        W43951   2.904   3.529  11.082  0.2251 -0.0199  0.2206
28483W        W43952  11.205  13.368   4.235  0.0353 -0.0025  0.1589
28484W        W43953   3.127  15.745   4.230  0.2220  0.1600 -0.1560
28485W        W43954   5.093   1.980  11.320 -0.2048 -0.2223 -0.1213
28486W        W43955  14.583   2.748   1.161  0.0635  0.2654 -0.2107
28487W        W43956   8.481   2.299  11.019 -0.1285 -0.2274 -0.2528
28488W        W43957   6.889   0.154  14.926 -0.1547 -0.3923  0.2557
28489W        W43958   8.576   3.415  10.846 -0.0466 -0.1359  0.1190
28490W        W43959   5.105  18.308   0.118  0.2352 -0.1697 -0.1342
28491W        W43960   7.711   1.272   2.557  0.0324 -0.0875 -0.0667
28492W        W43961  10.091   9.603   1.719  0.2761 -0.0133 -0.0890
28493W        W43962  17.365  17.775   0.813  0.0474 -0.1240 -0.1118
28494W        W43963   8.317  12.922  11.063  0.1511 -0.2886 -0.3560
28495W        W43964  10.672   3.823   3.560 -0.0329 -0.0815  0.0035
28496W        W43965   1.110  11.228   1.129  0.3310  0.1119  0.1891
28497W        W43966   0.981   7.116  13.263  0.3160 -0.0527  0.1398
28498W        W43967  15.132   1.173   2.417  0.3480 -0.4010 -0.1539
28499W        W43968   6.844   0.611  11.369  0.0467  0.1535  0.0649
28500W        W43969  18.111   7.803  12.510  0.2011  0.1665  0.1399
28501W        W43970  11.553  18.677  15.441  0.0710  0.1666 -0.1547
28502W        W43971   2.554   5.698  12.298 -0.1273 -0.0683 -0.1699
28503W        W43972   9.351   2.745  11.805 -0.0237  0.0308  0.2157
28504W        W43973  17.197  17.791  13.023  0.0569  0.1115  0.1680
28505W        W43974   1.520  18.858  13.101 -0.2423  0.0143  0.3514
28506W        W43975  10.662  17.326  11.752 -0.0408  0.2327  0.0702
28507W        W43976   2.715  10.127  10.764  0.0871  0.0418 -0.0887
28508W        W43977  18.275  13.963  12.317  0.0900 -0.0457 -0.0987
28509W        W43978   0.676  18.077   4.506  0.1056  0.2759  0.0136
28510W        W43979  15.564  10.800   0.111  0.1435 -0.2273  0.1658
28511W        W43980   4.075   3.164  14.601  0.0767  0.0150  0.0538
28512W        W43981   5.552  10.944  14.811  0.1449 -0.0631 -0.0824
28513W        W43982   5.313  17.132   1.387  0.0022  0.3863  0.2161
28514W        W43983  11.709   3.072  13.649  0.2525  0.0095  0.3377
28515W        W43984  18.175   5.023  10.978 -0.3550 -0.1840 -0.0720
28516W        W43985  13.515   3.289   2.167 -0.0485  0.0112 -0.0986
28517W        W43986   8.725  13.368   1.271 -0.2630  0.1133 -0.2210
28518W        W43987  18.774  12.630   1.582 -0.2197  0.1645  0.0717
28519W        W43988   1.592  11.385   2.940 -0.1365  0.1769 -0.0858
28520W        W43989  10.321   0.641  14.485 -0.3115  0.1937  0.0080
28521W        W43990  13.903  13.215  11.993 -0.0068  0.0696  0.0923
28522W        W43991  13.817  14.155   1.832 -0.0846  0.1248  0.2385
28523W        W43992   1.550   1.707   3.170  0.2182  0.0450 -0.1375
28524W        W43993  10.606  15.330   3.976 -0.1658 -0.2285 -0.2665
28525W        W43994  16.334  18.729  14.351  0.1122 -0.0278 -0.2590
28526W        W43995   8.739   6.254  12.102  0.0738 -0.1373  0.2203
28527W        W43996   7.389   3.327  10.346 -0.3135  0.2319  0.4411
28528W        W43997   2.555   0.166   4.182 -0.1510  0.0453 -0.0256
28529W        W43998  10.100   0.426   3.416  0.2250 -0.0966  0.2689
28530W        W43999   5.164  13.717   2.404  0.1157  0.1398 -0.2083
28531W        W44000  14.211  17.137   4.537  0.0282  0.4344  0.2223
28532W        W44001  13.518  10.591  11.569 -0.0639  0.3676  0.1444
28533W        W44002   9.919   9.995   3.522 -0.1956  0.0972  0.1718
28534W        W44003  13.444   1.019  11.855 -0.0553 -0.0038 -0.2015
28535W        W44004  13.600   8.259   3.824  0.0873 -0.4773 -0.2402
28536W        W44005   8.359   0.887   1.725 -0.1885 -0.1844  0.0405
28537W        W44006   1.099   0.641  10.965 -0.1006 -0.1544 -0.2478
28538W        W44007   1.750  18.233   1.674  0.0898 -0.0694 -0.2151
28539W        W44008  14.298  11.230  11.814  0.3787  0.2186  0.1794
28540W        W44009  12.029  16.154  14.461 -0.3554  0.2032  0.0134
28541W        W44010  15.539   6.476  11.295 -0.2742  0.1492  0.1352
28542W        W44011   1.982  17.006   5.371 -0.2081 -0.2564 -0.0527
28543W        W44012  13.363   4.502   0.845  0.0374 -0.2522  0.2083
28544W        W44013  16.978   8.074  13.903 -0.2106  0.1585  0.3522
28545W        W44014  16.929   2.735  14.816 -0.0566  0.1310  0.0853
28546W        W44015   7.221   7.761   3.906  0.0184  0.0945  0.2307
28547W        W44016  13.214   9.431   2.127 -0.2336 -0.0356  0.1317
28548W        W44017  12.047  10.525  11.339  0.0750 -0.0746  0.1885
28549W        W44018   6.866   5.681  12.643  0.0048  0.0881 -0.0876
28550W        W44019   6.629  12.910  13.164  0.0568  0.3141 -0.1520
28551W        W44020  17.663  11.939   4.066 -0.3622 -0.2384  0.1039
28552W        W44021  14.146   0.101  13.858  0.0541  0.0093 -0.0341
28553W        W44022   8.324  14.294  15.368 -0.2476  0.0297  0.2092
28554W        W44023   1.317   7.334   5.570 -0.5181  0.1827  0.0900
28555W        W44024   3.615   4.079   1.115 -0.0910 -0.2965  0.0221
28556W        W44025  11.698   0.403   5.043 -0.0331 -0.3006  0.2742
28557W        W44026   7.936  18.500  15.154  0.0506 -0.1473 -0.0507
28558W        W44027   4.048  10.892  10.849  0.1496  0.2227 -0.1103
28559W        W44028  13.652  14.049  14.139 -0.1121 -0.1075 -0.3710
28560W        W44029   6.112  17.927  11.087  0.2980 -0.1971 -0.1937
28561W        W44030   6.749  13.999  10.756  0.2605  0.2352 -0.0943
28562W        W44031  14.116   0.422   4.238  0.2576 -0.1072 -0.0077
28563W        W44032   0.348   5.842   1.076  0.0323  0.0145  0.2472
28564W        W44033  16.217  12.577  14.216  0.0243  0.1050 -0.0483
28565W        W44034   0.001   8.873  12.353 -0.0029  0.2022  0.1180
28566W        W44035   1.883  12.667   1.176  0.0950 -0.5233 -0.2248
28567W        W44036   0.267  12.540  12.565 -0.1821 -0.4685 -0.2728
28568W        W44037  18.575  11.350  13.285 -0.1172 -0.3045 -0.2031
28569W        W44038  11.692   2.798   4.336 -0.2589 -0.1076 -0.1273
28570W        W44039  12.979  12.905   5.342 -0.1147 -0.1404  0.2459
28571W        W44040   2.164   8.128   3.412  0.1302  0.0243  0.5699
28572W        W44041  11.959  10.696  13.153  0.3079  0.0067 -0.1363
28573W        W44042  10.764   1.788  15.265  0.1145 -0.0420 -0.0903
28574W        W44043  18.723  13.659   9.756 -0.2067  0.1198 -0.1409
28575W        W44044  17.208   6.336   1.919 -0.1096  0.1962  0.0605
28576W        W44045   9.068  16.394   4.267  0.2741 -0.1243 -0.1594
28577W        W44046  18.063  11.567  11.828  0.0657  0.1530 -0.0160
28578W        W44047   5.033  12.552   0.285 -0.2160  0.1096  0.2911
28579W        W44048  12.206   6.632   4.420 -0.3427  0.1656  0.1485
28580W        W44049   0.198   0.972   3.117  0.0756 -0.0734  0.2143
28581W        W44050   5.549  10.985   2.120 -0.1151 -0.3960 -0.0340
28582W        W44051  18.243  14.565  11.593 -0.0917  0.0492  0.1490
28583W        W44052  12.648  11.386  11.634 -0.2628  0.1721  0.0213
28584W        W44053   2.235   5.150  13.069 -0.2426 -0.0375  0.0693
28585W        W44054   5.226  18.094   1.533  0.3562  0.1521 -0.2473
28586W        W44055  11.811   2.029  10.608 -0.0788  0.0845 -0.2546
28587W        W44056   2.820  12.450  14.556  0.0365  0.0694  0.2053
28588W        W44057   0.498  15.933  14.326  0.0475 -0.0969  0.1853
28589W        W44058  17.913  16.243   1.450  0.2284  0.0168  0.2069
28590W        W44059   0.268   5.510  10.689 -0.2289  0.2918  0.1848
28591W        W44060   9.994   6.374   2.978 -0.1766 -0.2277  0.3207
28592W        W44061  16.239  16.535   2.428 -0.2205 -0.3206 -0.0852
28593W        W44062  12.561   4.178  14.449 -0.1463  0.1943 -0.0368
28594W        W44063   5.207   5.986   0.001 -0.1025  0.4041 -0.1404
28595W        W44064  16.268  11.886  13.248 -0.1114  0.0637  0.2285
28596W        W44065  15.083  13.811  11.420 -0.0310 -0.0301  0.0301
28597W        W44066   3.262   8.808   4.878 -0.2214 -0.4729  0.1467
28598W        W44067   5.402   9.185   1.675 -0.1128  0.0264 -0.0925
28599W        W44068   7.823   6.567  14.240  0.3411 -0.1457  0.0252
28600W        W44069   2.860   9.540  14.949 -0.0068  0.1128 -0.0636
28601W        W44070  12.711  11.334   4.538 -0.1244  0.0179  0.0609
28602W        W44071   6.095   9.072  14.659 -0.1385  0.2637  0.1364
28603W        W44072  10.900  15.751   2.249  0.0880 -0.1006 -0.0353
28604W        W44073  16.050  14.602  15.393 -0.1188 -0.3245  0.0827
28605W        W44074   7.877   9.125   0.461 -0.1119 -0.0590 -0.2182
28606W        W44075  18.731  11.170   4.671 -0.0681 -0.1157  0.1643
28607W        W44076   2.443  15.605   1.872  0.2481 -0.0030  0.2431
28608W        W44077  16.748   0.086   4.239  0.2193  0.2732 -0.1070
28609W        W44078   5.743  10.419  13.259  0.1256 -0.0320  0.0428
28610W        W44079  10.797   4.818  10.919 -0.1613 -0.2095 -0.4937
28611W        W44080  16.971   7.029   5.904 -0.1703 -0.1184 -0.2263
28612W        W44081  12.252   0.216  11.247 -0.0343 -0.0292  0.3373
28613W        W44082   2.466   3.356   2.564 -0.2459  0.5195 -0.1148
28614W        W44083   7.096   1.736  14.363 -0.1104  0.0093 -0.2852
28615W        W44084   3.317  12.722  12.536  0.0951  0.2285 -0.3935
28616W        W44085  13.696   1.106  15.121  0.3574  0.2278  0.0560
28617W        W44086   5.445  15.580  14.049  0.0298  0.1351 -0.1438
28618W        W44087  10.537   9.629   4.310 -0.0591 -0.3074  0.1587
28619W        W44088  13.986   6.482   5.276 -0.1139  0.0467 -0.0242
28620W        W44089   8.930  11.120  13.612 -0.2605 -0.0040  0.2447
28621W        W44090  15.042   8.528  11.052 -0.0183  0.2833 -0.2158
28622W        W44091   0.393   5.845   3.813 -0.1279 -0.1063 -0.1277
28623W        W44092  16.729  11.251  15.388 -0.1464  0.2981 -0.0854
28624W        W44093  11.495  14.104  11.405 -0.3045 -0.0861  0.2446
28625W        W44094   9.814  11.825   1.428  0.0477 -0.2812  0.3316
28626W        W44095  12.293   5.889  10.833  0.0793 -0.0806 -0.3061
28627W        W44096   8.808   0.473   1.245 -0.0094  0.1024 -0.0082
28628W        W44097   2.954   4.123   5.251  0.2352  0.0081 -0.4153
28629W        W44098   0.903  10.796   3.404  0.0647 -0.0644 -0.0774
28630W        W44099   2.806  18.213   2.366  0.6049 -0.2251 -0.0357
28631W        W44100   7.850   5.276  10.632  0.0282 -0.1536  0.1953
28632W        W44101   8.661  18.075   5.146 -0.2292 -0.3272  0.0270
28633W        W44102  15.253   5.612   5.224 -0.0466 -0.0625 -0.0815
28634W        W44103   7.531   2.442  13.153  0.1407 -0.2816 -0.0484
28635W        W44104   7.171  14.561  11.340 -0.3709  0.0840  0.3507
28636W        W44105   6.838  12.122   0.433  0.1805 -0.0101  0.1894
28637W        W44106   9.479   7.745   2.731  0.2325 -0.1139 -0.0600
28638W        W44107   2.207   3.474  11.839 -0.1601  0.3308  0.0269
28639W        W44108   2.194  15.922  11.665  0.3452 -0.3378  0.1609
28640W        W44109   0.423   8.790  11.111  0.1745 -0.1930  0.1584
28641W        W44110   9.678  13.871  12.388 -0.0855 -0.3213 -0.2713
28642W        W44111   8.678   6.578  12.752  0.3129  0.1607 -0.0919
28643W        W44112  17.813   1.082   2.865 -0.0239 -0.3072  0.0449
28644W        W44113  11.801   5.155   2.630  0.0738 -0.1503  0.1565
28645W        W44114   2.634  12.955  14.816 -0.3068  0.4786 -0.2896
28646W        W44115   1.046  13.308  10.981  0.0349 -0.0533 -0.2518
28647W        W44116  13.889   7.076   4.389  0.2098  0.2996 -0.1427
28648W        W44117   1.057   4.603  13.337 -0.1017 -0.0425 -0.0136
28649W        W44118  16.386  12.537   1.354  0.0525 -0.1509 -0.2109
28650W        W44119  18.210   5.284  12.887 -0.1952  0.0705 -0.0499
28651W        W44120  11.130   9.326   3.063 -0.0196  0.2430  0.0324
28652W        W44121  13.998   2.343  11.918  0.0020  0.0401 -0.1592
28653W        W44122  11.432   0.953   5.665 -0.0659  0.1888 -0.0603
28654W        W44123   5.950  18.649  14.160 -0.1715 -0.0938  0.2740
28655W        W44124  15.422   1.005   1.248  0.3832  0.3385 -0.1300
28656W        W44125   9.414   5.190  15.468 -0.0534 -0.1295  0.2292
28657W        W44126   1.335   3.282   6.101  0.1825  0.1182 -0.1062
28658W        W44127   5.066   1.289   0.234  0.1832 -0.5526  0.0127
28659W        W44128   6.928  17.564   2.090 -0.2936 -0.4111  0.1980
28660W        W44129   2.330   8.581   4.322  0.2181  0.0023 -0.4513
28661W        W44130   8.220   9.183  14.000 -0.1190 -0.5120  0.1275
28662W        W44131  13.044  14.183   0.257 -0.2123  0.2445  0.0896
28663W        W44132   7.634  11.785   1.455 -0.0551 -0.0711  0.0570
28664W        W44133  13.525   0.855  12.832  0.1263 -0.1410  0.0698
28665W        W44134   2.289  12.700  10.340 -0.0407 -0.0067  0.0201
28666W        W44135   2.015  13.924  12.832 -0.1319  0.3370 -0.0016
28667W        W44136  18.932  16.378   1.576 -0.0911 -0.0911 -0.0152
28668W        W44137  18.269  18.052  12.468  0.2721 -0.1437  0.0360
28669W        W44138   1.360  13.088  13.830 -0.1326  0.2713  0.1268
28670W        W44139  12.614   3.341   5.192 -0.0848  0.1919  0.0149
28671W        W44140  10.505   5.136  11.703 -0.0324 -0.3960 -0.0128
28672W        W44141  10.724  15.130  15.204 -0.1709  0.0974 -0.0814
28673W        W44142   4.806   1.984  14.369 -0.1391 -0.3030 -0.0283
28674W        W44143   6.687   7.727   4.317 -0.0786  0.0520 -0.1321
28675W        W44144  13.842   8.239  13.350  0.0350 -0.1476  0.1633
28676W        W44145  17.723  12.587  10.353 -0.2945  0.0390 -0.0467
28677W        W44146   6.565   3.865   0.561  0.1392  0.3385  0.1547
28678W        W44147  16.996  15.703   0.790 -0.0580 -0.0727  0.0404
28679W        W44148   5.864   4.770   4.901  0.2898  0.0440  0.1367
28680W        W44149   9.833  17.798   4.012  0.0306  0.2706  0.2833
28681W        W44150   0.299   2.294  12.560 -0.0664 -0.1659 -0.0379
28682W        W44151   7.109   2.330  14.955 -0.0423 -0.0748  0.1069
28683W        W44152  12.248   3.080  12.530  0.0525  0.2506  0.3344
28684W        W44153  14.434  11.760   0.765  0.0435 -0.0820 -0.1220
28685W        W44154  10.714   7.593  14.352 -0.2463  0.2565  0.3942
28686W        W44155   5.438  17.585  12.618 -0.0836  0.1743  0.1368
28687W        W44156   2.105   4.586  10.386  0.1150  0.0053 -0.1562
28688W        W44157   6.442   7.360   5.006  0.1392  0.0087  0.1428
28689W        W44158   1.960  12.592   0.127  0.1856 -0.2143 -0.0304
28690W        W44159  17.082  17.714  14.074 -0.2097 -0.0731 -0.1155
28691W        W44160   2.020  17.395  10.628 -0.0426 -0.1146 -0.0739
28692W        W44161  13.977   8.314  12.391 -0.2120  0.0562 -0.3131
28693W        W44162   1.762   6.035  15.494  0.1682 -0.0124  0.0706
28694W        W44163   5.419  10.263   3.882  0.1384  0.1450 -0.0932
28695W        W44164  12.008   2.745   4.718 -0.0784 -0.3590  0.1748
28696W        W44165  16.021   5.001   0.798 -0.2453  0.3607  0.0134
28697W        W44166  18.478   4.016   1.900  0.1693  0.2950  0.1141
28698W        W44167   5.205  18.057   9.625 -0.0661 -0.1981 -0.1467
28699W        W44168  14.793  14.998   0.070  0.2829 -0.0852  0.1988
28700W        W44169  15.669  10.080   4.425  0.0132  0.0560 -0.0089
28701W        W44170  17.797  17.707  11.284  0.0062 -0.0637  0.1875
28702W        W44171   3.663   4.912   4.268 -0.3449  0.0416 -0.3193
28703W        W44172  12.652   2.457   4.138 -0.2454 -0.1034  0.2033
28704W        W44173   5.443   5.873  13.112  0.2287 -0.0933  0.0212
28705W        W44174  11.554  12.883  14.068 -0.0324 -0.2335 -0.2771
28706W        W44175   7.230   3.384  13.046  0.1721 -0.4421 -0.0846
28707W        W44176   7.931  17.505  12.042  0.0063 -0.1436  0.0168
28708W        W44177  13.526  11.407  13.844  0.2332  0.0660 -0.0073
28709W        W44178   5.335  13.049   3.069 -0.0294  0.2207  0.1248
28710W        W44179  17.963  14.345  12.498  0.0527 -0.1826 -0.2693
28711W        W44180  10.387  12.949  12.209  0.1314  0.0212 -0.1358
28712W        W44181   2.591  11.126   5.487 -0.0546 -0.1252  0.3981
28713W        W44182   0.902  18.532  14.183 -0.4205  0.1359  0.2841
28714W        W44183  18.468  12.220  13.311 -0.1888 -0.2250 -0.1056
28715W        W44184  18.615   5.239  13.231  0.1379 -0.2370  0.2216
28716W        W44185   9.767   1.040  13.960 -0.2030 -0.3727 -0.0299
28717W        W44186   2.106   2.351  12.698  0.0446 -0.1210  0.1092
28718W        W44187   0.247   4.413  10.967 -0.1798 -0.1042  0.2923
28719W        W44188   5.917  10.645  11.300  0.1780 -0.0934  0.1240
28720W        W44189  12.004   9.424  12.912  0.2734  0.2853 -0.1456
28721W        W44190  15.748  15.346   1.385 -0.2523 -0.0644  0.0386
28722W        W44191   6.290   7.961   1.487 -0.3346  0.2112 -0.2934
28723W        W44192   6.032  17.064   0.833  0.0811 -0.1505  0.0860
28724W        W44193  10.817   3.740   0.898  0.1583  0.2072  0.2415
28725W        W44194   1.543  18.416  13.950  0.3074 -0.1713  0.3169
28726W        W44195   7.741   4.816   3.302 -0.0944 -0.5194  0.1130
28727W        W44196  11.560  16.162  11.176 -0.2751 -0.2657  0.1062
28728W        W44197   4.468   6.287   5.631  0.2149 -0.2036 -0.0936
28729W        W44198   1.458  10.218  14.240 -0.1110  0.1665  0.0748
28730W        W44199  13.461   0.065   3.826 -0.2914  0.1027  0.1690
28731W        W44200   8.111  13.768   3.111  0.2487  0.4855 -0.0849
28732W        W44201   4.013  14.049  14.057  0.0103 -0.0689  0.0474
28733W        W44202  12.887   2.009  10.360  0.1780 -0.3352  0.0136
28734W        W44203   2.918   3.566   2.313 -0.0818 -0.0504 -0.0507
28735W        W44204  11.283  17.175   3.155  0.0953  0.0270  0.2518
28736W        W44205   7.058   5.174   5.131 -0.0487 -0.3996  0.2759
28737W        W44206  18.376  11.435   4.378  0.0549  0.0350 -0.1782
28738W        W44207  14.479   5.883   3.457  0.0400  0.2024 -0.2084
28739W        W44208  17.170  11.518  12.300  0.0177  0.0727  0.0732
28740W        W44209  16.613  12.889  14.210  0.3913  0.1455  0.0787
28741W        W44210   4.027  13.101  10.025 -0.1185 -0.2132  0.0281
28742W        W44211  15.469  11.782   3.684  0.2635 -0.2704  0.3428
28743W        W44212  11.101  10.294  10.448  0.1386 -0.2695  0.0369
28744W        W44213   1.713   9.465  13.072 -0.0669  0.1701 -0.3021
28745W        W44214   3.752  10.535  11.567 -0.1360 -0.0172 -0.4031
28746W        W44215   0.038  13.290  14.044 -0.3583 -0.1868 -0.0139
28747W        W44216   0.085   4.247   3.967 -0.0734  0.1429 -0.0055
28748W        W44217  15.864   9.843  14.630 -0.0556 -0.2183 -0.0935
28749W        W44218   4.886  11.718   1.689 -0.0354 -0.4790  0.0539
28750W        W44219  14.696  11.242   2.266  0.0312  0.2371  0.0980
28751W        W44220  17.901  17.573   4.360  0.1088  0.0715  0.1374
28752W        W44221  14.847   1.901  12.552 -0.0789  0.3883  0.1041
28753W        W44222  14.350  13.854  13.397  0.0464  0.0860  0.2215
28754W        W44223   7.105  16.575  14.989  0.0771 -0.0706 -0.0045
28755W        W44224  14.067   0.321   2.215  0.0209 -0.2584  0.1082
28756W        W44225   0.087   8.902   0.648  0.0774 -0.1755  0.6516
28757W        W44226  14.698  12.672   1.261 -0.5714 -0.2696 -0.0035
28758W        W44227   8.676  16.677   0.145  0.2188  0.0206  0.0101
28759W        W44228  17.356   2.964   5.314  0.3102 -0.2066  0.2073
28760W        W44229   4.419   5.639   2.876  0.0118 -0.0875 -0.0088
28761W        W44230  15.283  17.372   3.026 -0.3577  0.0988 -0.3837
28762W        W44231   1.908  12.839   2.432 -0.0621  0.2669 -0.1165
28763W        W44232  11.658   2.939   3.871  0.2632 -0.0046  0.3090
28764W        W44233  12.416   2.051   4.334  0.0030  0.1333  0.0214
28765W        W44234  15.922  18.459  13.597  0.1472 -0.2145 -0.0748
28766W        W44235   6.949   3.420   1.507  0.3507 -0.2465 -0.1371
28767W        W44236   2.091   2.514  13.221  0.0226  0.0467 -0.2565
28768W        W44237   8.919   6.987  15.371 -0.1035  0.0372  0.2149
28769W        W44238  18.795  18.126   2.915  0.1390 -0.2897  0.0545
28770W        W44239   7.307  13.673   0.128  0.2020  0.1273  0.1470
28771W        W44240   2.308  12.497  14.654 -0.2887  0.1797  0.2958
28772W        W44241   6.806   3.078   4.148 -0.1252 -0.1750  0.0958
28773W        W44242   4.643   7.925  13.997 -0.0025  0.0585  0.0508
28774W        W44243  14.541  13.428   4.740 -0.0173  0.2279 -0.2445
28775W        W44244   9.658   1.460  14.234 -0.1070 -0.1666  0.0852
28776W        W44245   4.890  17.964   1.980 -0.1142 -0.1820 -0.0618
28777W        W44246   0.741  14.851  11.808 -0.1701  0.0316  0.2828
28778W        W44247  16.418  10.913  13.844  0.0664  0.0226  0.1952
28779W        W44248   8.718   9.739   3.183 -0.0198  0.0249  0.1802
28780W        W44249   6.750   2.852   3.603  0.1267  0.4384  0.0205
28781W        W44250  18.781  18.543   0.219 -0.0886  0.1326  0.0471
28782W        W44251   6.608   1.489  12.601  0.0568 -0.1371  0.2097
28783W        W44252   0.902  12.257   2.784 -0.1856 -0.3944  0.0822
28784W        W44253   1.026   9.192  11.032  0.1218 -0.0623 -0.1800
28785W        W44254  12.065   1.905   2.991 -0.1027 -0.0512 -0.1819
28786W        W44255  14.419   4.957   9.584 -0.1407 -0.0507  0.0863
28787W        W44256   9.675   0.142  11.561 -0.0210  0.0030 -0.0827
28788W        W44257  11.294   0.431   2.560  0.4006 -0.2709 -0.1224
28789W        W44258  16.901  16.554   3.052 -0.0627 -0.3696  0.1016
28790W        W44259   1.298  13.676   1.016 -0.1612  0.2093  0.3708
28791W        W44260  17.236  17.582  11.429 -0.1329  0.0909  0.0002
28792W        W44261  10.028   7.490  10.110  0.1988  0.1706 -0.1136
28793W        W44262  18.672   1.812   4.220 -0.2963  0.2748  0.0657
28794W        W44263   3.706  16.657  13.390 -0.3857  0.0533  0.0465
28795W        W44264  18.107  13.496  14.529  0.0930  0.3630 -0.1750
28796W        W44265  12.667   2.529  14.959  0.0818 -0.1982  0.0317
28797W        W44266  13.022  14.195  15.242  0.0653 -0.1214 -0.2351
28798W        W44267  17.444   4.895  13.262  0.1550 -0.0150 -0.3650
28799W        W44268   2.680  11.626   4.621 -0.1696  0.2302 -0.0650
28800W        W44269   5.302   6.768   3.990 -0.1989 -0.2449 -0.1732
28801W        W44270   0.033  11.970   4.326 -0.3413 -0.1085 -0.1291
28802W        W44271  10.698  14.279   2.113 -0.1304  0.0647 -0.0575
28803W        W44272   1.550   0.292   3.700 -0.1072  0.3928  0.0329
28804W        W44273  17.493   0.772   0.103  0.2192 -0.3176  0.2779
28805W        W44274   8.628  15.703   5.578 -0.1738  0.0980 -0.0698
28806W        W44275   0.338  14.660  11.579  0.0692 -0.4398  0.0809
28807W        W44276   1.713   2.054   1.232  0.1120  0.0728 -0.2091
28808W        W44277   4.472   2.479  10.167 -0.1505  0.4423  0.0561
28809W        W44278   1.234   1.215  12.533  0.1852 -0.0065 -0.2105
28810W        W44279   8.707   5.005  13.104  0.0517  0.1696  0.3891
28811W        W44280   6.877   2.834   2.721  0.0848 -0.0946 -0.0778
28812W        W44281   9.308  12.220  10.597 -0.1513 -0.1387 -0.1099
28813W        W44282  15.321   7.941  12.959  0.0486 -0.0551  0.0579
28814W        W44283  17.665  17.686   0.424 -0.0292 -0.5417  0.0971
28815W        W44284   6.569   2.028   2.459  0.2415  0.0740 -0.3911
28816W        W44285  12.026   9.943  10.127 -0.0889 -0.1345 -0.1245
28817W        W44286   6.917  12.452  14.945  0.0613 -0.0921 -0.1518
28818W        W44287   4.949   1.163   2.773  0.2314  0.2024  0.0840
28819W        W44288  10.074   9.900  14.175 -0.3495  0.0275 -0.1273
28820W        W44289   5.305   4.784  12.939  0.0352  0.0006  0.4966
28821W        W44290  10.392  10.682   2.452 -0.2048 -0.3709 -0.1462
28822W        W44291   1.174   9.676   4.273 -0.0448  0.1043  0.2365
28823W        W44292  13.079   5.248  12.457  0.2690 -0.0628  0.3170
28824W        W44293   9.166   5.686  10.486  0.0188 -0.2693  0.0484
28825W        W44294  10.452   8.590   3.914 -0.1050 -0.0513 -0.5443
28826W        W44295  17.313   8.075   5.031 -0.0375 -0.2221  0.2149
28827W        W44296   5.787   7.864   1.488  0.2599 -0.2110 -0.2540
28828W        W44297   1.506   2.635   4.167  0.1391 -0.1688 -0.0223
28829W        W44298  16.474  13.258   5.856 -0.1534 -0.0114  0.0478
28830W        W44299  14.578  10.360   1.813  0.4250 -0.2854  0.0028
28831W        W44300   9.925  10.101   1.431 -0.3894 -0.0297 -0.0575
28832W        W44301   3.386  18.071   1.515 -0.0747  0.0826  0.1514
28833W        W44302  12.677   1.788  12.313 -0.1005  0.1754 -0.2176
28834W        W44303   7.191  13.116  13.964 -0.2821 -0.1197 -0.2239
28835W        W44304  10.332  18.064   2.046 -0.2925  0.2394  0.2243
28836W        W44305  15.584  10.404   1.122 -0.1921 -0.0457  0.0595
28837W        W44306   9.891  12.513   0.234 -0.4325  0.1700  0.2017
28838W        W44307  11.063   8.955   4.864 -0.0700  0.0160  0.0045
28839W        W44308  17.211  12.015  13.786  0.0488 -0.3715 -0.1650
28840W        W44309   2.563   3.156  14.494 -0.1181 -0.3442  0.0502
28841W        W44310   8.394  11.634   0.223 -0.4952  0.2571 -0.2710
28842W        W44311  13.953   9.345   1.901 -0.0035 -0.0847 -0.2698
28843W        W44312  14.841   9.681   4.421  0.0469  0.2300  0.0710
28844W        W44313  10.095  16.568   4.597  0.0122  0.3601 -0.0811
28845W        W44314  14.743  13.529  14.861  0.3651 -0.2240  0.0516
28846W        W44315   6.360  13.282  12.702 -0.1250 -0.2424 -0.0595
28847W        W44316   5.693  10.040   0.793 -0.2913  0.1854  0.0420
28848W        W44317   9.654  13.022   0.472  0.0165  0.1029 -0.0218
28849W        W44318   1.868  18.615  12.679  0.0117 -0.2186 -0.1728
28850W        W44319   8.589  15.865   2.539  0.0037 -0.4389 -0.3655
28851W        W44320   1.277   2.919   1.611  0.3524  0.1781 -0.3679
28852W        W44321   2.213  13.793   2.877  0.3061  0.0963  0.0406
28853W        W44322  18.637  16.847  14.971 -0.0234  0.2933  0.0280
28854W        W44323  17.405  14.070  15.412  0.0593 -0.2366  0.1037
28855W        W44324  16.440  10.412  14.155  0.2314  0.0326  0.1933
28856W        W44325  17.750  14.671  10.371 -0.0987 -0.2386 -0.1542
28857W        W44326  15.850  18.233   4.817 -0.2615  0.2231  0.1473
28858W        W44327   7.264  14.755   3.431  0.3228  0.0028  0.0927
28859W        W44328  16.545   8.799  11.795  0.2122 -0.1229 -0.3528
28860W        W44329   8.896  15.051  14.181  0.1470 -0.5077  0.0088
28861W        W44330   7.260  12.398   4.135  0.0175  0.1068  0.1120
28862W        W44331  17.097   6.326  11.447 -0.0625 -0.2803  0.2029
28863W        W44332  10.711   6.866   3.522 -0.1172 -0.0607  0.0102
28864W        W44333  15.614   7.250   3.384 -0.0501  0.2589 -0.1298
28865W        W44334   1.767   1.289  11.537 -0.1056  0.2181  0.1362
28866W        W44335   8.919   2.177   5.384 -0.2017  0.0361 -0.3016
28867W        W44336   9.835  18.347   2.463  0.0641  0.0962  0.0873
28868W        W44337  18.062  18.478  13.315 -0.1035  0.1630  0.0167
28869W        W44338  15.611   3.412   2.829  0.0037 -0.0175 -0.0028
28870W        W44339   3.016   9.487   4.336  0.0163  0.1305 -0.1462
28871W        W44340   4.692  12.147  11.339 -0.2067  0.0474  0.0075
28872W        W44341  12.194   0.868   2.769  0.0269 -0.1626  0.0029
28873W        W44342  16.665   6.631  10.117  0.0262  0.0781  0.3026
28874W        W44343   3.299  14.609  13.803 -0.0275 -0.0348 -0.0569
28875W        W44344   3.060   9.037  11.843 -0.3184 -0.0770 -0.0018
28876W        W44345  17.602  15.898   3.448 -0.2074  0.0852 -0.1268
28877W        W44346   2.059   6.569   0.680 -0.0019  0.0216 -0.1739
28878W        W44347   2.526  13.042   0.727  0.3177 -0.1526  0.1787
28879W        W44348  15.995  13.343   9.473 -0.1496  0.3547 -0.2259
28880W        W44349  14.477   9.899   1.658 -0.1748  0.2275 -0.3158
28881W        W44350  11.585   4.989   3.196 -0.1915  0.0129 -0.0503
28882W        W44351  11.299   4.620   1.803  0.2529 -0.0486  0.0355
28883W        W44352   6.189   7.724  15.272  0.0842 -0.1657  0.2306
28884W        W44353  13.717   4.805  10.674  0.2650  0.0840  0.0095
28885W        W44354  12.274  13.878   4.960  0.1273 -0.0779 -0.3745
28886W        W44355   3.879  14.132   1.478 -0.2837  0.2219 -0.2734
28887W        W44356   2.038   5.657   0.262  0.1619  0.1111  0.0899
28888W        W44357  16.283  16.616   4.574  0.0711 -0.1350 -0.2115
28889W        W44358   4.279   9.183  15.022  0.0041  0.1321 -0.0016
28890W        W44359  14.561  11.316   0.904 -0.3866 -0.1194  0.1417
28891W        W44360  13.268   2.265  11.735 -0.0623  0.2504 -0.0356
28892W        W44361  12.002  18.129   0.716  0.0363 -0.3702  0.0246
28893W        W44362   2.532   5.734   0.454 -0.1157  0.4869  0.0415
28894W        W44363   5.391   6.002  12.600  0.1369  0.1062 -0.2324
28895W        W44364  13.004  15.245  13.699 -0.3587  0.2295 -0.2788
28896W        W44365   7.984   1.707   1.848  0.2364 -0.3161  0.0393
28897W        W44366  10.671   8.696   2.421  0.0872 -0.3019  0.1605
28898W        W44367  14.769   0.155   0.082  0.2003 -0.0020 -0.0585
28899W        W44368  13.709   6.603   4.296  0.0131 -0.2492 -0.2730
28900W        W44369  11.644  18.052  14.894  0.0566  0.2207  0.0937
28901W        W44370   8.125  10.590  13.711 -0.2994  0.1106  0.2847
28902W        W44371   7.628   2.063  11.556  0.1034  0.1577  0.0525
28903W        W44372  18.461   9.991  10.860 -0.1520  0.2186 -0.1993
28904W        W44373  13.745   7.323   0.500 -0.2613  0.1746 -0.0610
28905W        W44374  17.697   8.984   0.147  0.0284  0.0554  0.1858
28906W        W44375  16.826  12.870   4.184  0.0565  0.0926 -0.4181
28907W        W44376   6.802   7.850  13.809 -0.1614 -0.1017 -0.0943
28908W        W44377   4.422   7.884  10.891  0.2633 -0.1885 -0.1546
28909W        W44378   9.860   6.898  10.321 -0.1378 -0.2085 -0.0552
28910W        W44379  11.975  11.743  12.346  0.2291 -0.2002 -0.1211
28911W        W44380   1.145  13.079  11.707  0.2182  0.2929 -0.3219
28912W        W44381   5.904   5.495  13.586  0.1568  0.0017 -0.1546
28913W        W44382   2.375   5.911   1.153 -0.1348  0.2634 -0.0901
28914W        W44383  15.710   9.226   1.888 -0.1124  0.2704 -0.1068
28915W        W44384   1.961  16.507  13.572 -0.0479 -0.0159 -0.0677
28916W        W44385   1.815  10.995   4.431 -0.0940 -0.0067  0.1619
28917W        W44386  12.259   3.395   0.781  0.0065 -0.2144 -0.2208
28918W        W44387  11.579   5.133  12.460  0.5160 -0.0607  0.1872
28919W        W44388  11.501  17.370   3.608  0.0934 -0.2178 -0.2222
28920W        W44389  14.258  17.252   2.992  0.1991 -0.0754 -0.2010
28921W        W44390   9.001   7.422  13.221 -0.0387  0.0857 -0.2329
28922W        W44391  13.322  15.896   0.366 -0.0704 -0.1838  0.1185
28923W        W44392  18.131   1.537   4.186  0.1982  0.0781  0.1551
28924W        W44393  15.517   3.008   1.112  0.0340  0.0309 -0.0193
28925W        W44394  16.200  10.207  13.618  0.0257  0.2201 -0.1522
28926W        W44395  17.250   8.790  13.505 -0.0948 -0.0691  0.0981
28927W        W44396  18.044  11.248   2.506 -0.1353  0.1915  0.4093
28928W        W44397   1.772  18.598   0.636  0.2111 -0.3146 -0.2272
28929W        W44398   4.980  14.628  11.450  0.2301  0.0786 -0.0095
28930W        W44399  12.117  13.865   1.186  0.1803 -0.0619 -0.0077
28931W        W44400  12.953  16.342   4.725  0.3412 -0.1127  0.0419
28932W        W44401   7.163  17.062   9.913 -0.2425  0.1063  0.3152
28933W        W44402  17.849  15.074  10.694 -0.2916 -0.2687 -0.0674
28934W        W44403   4.451   9.458   2.526  0.1848  0.2243 -0.0363
28935W        W44404   9.178  15.912   4.431 -0.0957  0.2235  0.0734
28936W        W44405  13.491   2.651  11.780 -0.1791 -0.2220 -0.0009
28937W        W44406  15.992   2.355   0.113  0.0782  0.2491 -0.3331
28938W        W44407   7.285   6.098   2.258 -0.4194 -0.1427  0.0816
28939W        W44408  17.052   7.522   2.743 -0.0105  0.0119  0.0179
28940W        W44409   9.741   9.585   3.133  0.0277  0.1740 -0.0059
28941W        W44410  15.575  12.358   4.565  0.1140 -0.0289 -0.1423
28942W        W44411   5.964  12.268   4.774  0.3296 -0.2379 -0.0806
28943W        W44412   7.988   1.276   4.146 -0.0210  0.1594 -0.0522
28944W        W44413  13.626  13.254  12.539  0.0752  0.0811  0.1957
28945W        W44414  10.432   0.590   4.258  0.0866  0.1338  0.2672
28946W        W44415  18.831   2.837   4.014  0.2978  0.1501  0.2932
28947W        W44416  16.553  10.374   0.185 -0.2038 -0.3224 -0.2501
28948W        W44417  13.330   0.763  14.789  0.2961 -0.0758 -0.0847
28949W        W44418   5.592   8.815  14.726 -0.0015 -0.1659  0.3506
28950W        W44419  13.182  16.094   3.823  0.1996 -0.3078  0.0286
28951W        W44420  14.655   5.138  12.242 -0.2191 -0.0132 -0.1129
28952W        W44421   4.920   4.177  12.733 -0.1305 -0.3792  0.0500
28953W        W44422  17.050   1.681  10.571 -0.0006  0.1409 -0.3105
28954W        W44423  13.585  18.173  13.378 -0.2029  0.0691  0.0209
28955W        W44424   6.258  13.454   1.169 -0.0103 -0.0988  0.1201
28956W        W44425   4.459  18.344   1.315 -0.1851  0.0446 -0.0182
28957W        W44426   5.107   2.313  14.163 -0.1375 -0.0024  0.1408
28958W        W44427   6.896   4.515   1.096 -0.1864  0.1269 -0.0497
28959W        W44428   3.700   0.229   3.330  0.0969  0.0329  0.0598
28960W        W44429   7.120  14.803   5.086  0.2110  0.2433  0.2996
28961W        W44430   8.286   0.310   0.768  0.0999  0.0063  0.0967
28962W        W44431   9.801   0.659   2.434 -0.1248 -0.2326  0.4089
28963W        W44432   0.299  14.126  14.604 -0.1737  0.0448  0.0597
28964W        W44433   2.651  12.857  11.086 -0.1424  0.0914  0.0856
28965W        W44434  17.012   3.103  14.511  0.2540  0.0257  0.2993
28966W        W44435   6.507   9.230   9.945  0.1859  0.2615 -0.2392
28967W        W44436   7.301  14.093  13.275 -0.3166 -0.0855  0.0691
28968W        W44437  15.596  17.331   4.639  0.1779 -0.3347  0.3152
28969W        W44438  14.977   2.263   5.039  0.2412  0.3100 -0.1423
28970W        W44439  13.123   6.859   1.788 -0.0143  0.2123 -0.0416
28971W        W44440  12.367  16.277   0.822  0.0652  0.1043  0.2217
28972W        W44441  14.855   5.107  15.285  0.0600 -0.1522  0.0900
28973W        W44442  12.903   3.862  13.581 -0.1250 -0.1511  0.2090
28974W        W44443  12.498  16.957   4.175  0.3700 -0.1246  0.0522
28975W        W44444   4.126   3.909  10.933 -0.0844  0.0871 -0.1766
28976W        W44445  13.592   8.794   0.352  0.1195  0.0239  0.0450
28977W        W44446  10.558  16.499  14.584  0.3955 -0.1378 -0.0034
28978W        W44447   4.413   7.276   2.023 -0.0421  0.0391 -0.0463
28979W        W44448   4.718  16.814  11.004  0.1424 -0.0880  0.1331
28980W        W44449   2.548   3.020   0.364 -0.1799  0.2709 -0.0552
28981W        W44450  10.450   7.291   0.288 -0.1432 -0.1218 -0.1992
28982W        W44451  13.862  18.317  10.707  0.2585  0.0646 -0.1348
28983W        W44452  10.481   3.004   0.708 -0.0760 -0.1157  0.1469
28984W        W44453  18.848   8.435   1.786 -0.0690 -0.0855  0.2308
28985W        W44454   0.806  18.210   2.644 -0.2411  0.2787  0.0717
28986W        W44455  10.387  13.419   2.302  0.0178  0.2060 -0.0153
28987W        W44456  17.594  11.748  13.699 -0.0874  0.0285 -0.0989
28988W        W44457   3.260   5.180   4.965  0.0837 -0.0059 -0.2410
28989W        W44458  14.727   5.712   4.346 -0.2020 -0.2883  0.4139
28990W        W44459  13.888  15.725  12.062 -0.0107  0.1521  0.2726
28991W        W44460   5.318  16.097   1.658  0.0532 -0.0300 -0.0409
28992W        W44461  15.643   9.076   3.979 -0.0729 -0.0932  0.4190
28993W        W44462   9.924   5.319   9.903  0.1152 -0.0655 -0.1021
28994W        W44463   2.412   1.081   2.226  0.0480  0.2115 -0.1865
28995W        W44464   4.134  15.132   4.811  0.2039  0.2764 -0.1024
28996W        W44465  18.493  11.647  11.596  0.0817 -0.2421  0.0029
28997W        W44466   4.317   1.316   0.993  0.1371  0.5161 -0.1482
28998W        W44467   2.413   0.097   1.277  0.0371 -0.1961 -0.1347
28999W        W44468   6.102   5.772  10.446  0.0702  0.1665 -0.2086
29000W        W44469  10.396   4.730  10.336 -0.3110  0.0372  0.2637
29001W        W44470   3.308  16.859  14.671  0.1542 -0.2418 -0.0472
29002W        W44471  11.457   7.961   5.306  0.1737  0.4146  0.2812
29003W        W44472   2.136   7.117  14.389 -0.0615  0.0723 -0.4688
29004W        W44473   4.779   5.997  13.972  0.1284 -0.0714  0.2648
29005W        W44474  10.720  14.893   1.257  0.1467  0.1174  0.2069
29006W        W44475  17.881  13.308  13.093 -0.0575 -0.1826 -0.0144
29007W        W44476   6.065   5.297   2.853 -0.0894  0.1673  0.1937
29008W        W44477   1.697  13.439  12.852 -0.2501  0.0954 -0.0267
29009W        W44478  10.022  13.620   0.988 -0.1468  0.4544 -0.3060
29010W        W44479  17.027  16.880   2.644 -0.1114  0.0782 -0.2578
29011W        W44480  14.528  13.862   1.512 -0.0860 -0.0891  0.1354
29012W        W44481   8.455   9.056  10.881 -0.0694 -0.1457 -0.2389
29013W        W44482  15.118  15.412  13.478  0.1053  0.3355  0.2188
29014W        W44483   6.245   6.798  11.949 -0.0625  0.3360 -0.3024
29015W        W44484  11.512  12.473  13.769 -0.1514  0.0318  0.2170
29016W        W44485   0.056   8.383   3.779  0.2559 -0.1493 -0.0802
29017W        W44486  10.212   5.350  14.094  0.2833 -0.2242  0.0253
29018W        W44487  18.314  10.702   1.274  0.3852  0.2685 -0.1039
29019W        W44488  11.288   9.423  10.707  0.1603  0.1953 -0.0243
29020W        W44489  16.286  16.130   1.295 -0.0595  0.1212 -0.2246
29021W        W44490   8.336   0.270   1.300 -0.0824  0.3203  0.0890
29022W        W44491   5.865  11.117   3.362  0.1848  0.0871 -0.1454
29023W        W44492   1.719   8.214  11.436  0.3964 -0.1545  0.1016
29024W        W44493  10.073   3.707  11.303 -0.2789 -0.1223 -0.2527
29025W        W44494  14.575  17.708  13.632 -0.3647  0.1921  0.1936
29026W        W44495   6.518  18.728   1.152 -0.3500 -0.2031 -0.1837
29027W        W44496  13.575  10.913   4.387 -0.0311  0.2320 -0.2205
29028W        W44497   6.252   7.094   0.372  0.0018 -0.1213 -0.2787
29029W        W44498   2.866   7.260   0.369 -0.1659  0.2105  0.1978
29030W        W44499   6.721  10.712  12.531 -0.0507 -0.0393  0.1052
29031W        W44500   8.670   5.606  14.364  0.3283 -0.0134 -0.0393
29032W        W44501  16.772   4.779  11.361  0.0289  0.0637  0.0611
29033W        W44502  16.866   8.000  12.499  0.2382  0.0438 -0.2673
29034W        W44503   3.305  11.537  12.170  0.1205  0.0686 -0.1083
29035W        W44504   5.642   7.968   2.319 -0.1821  0.2646 -0.1672
29036W        W44505  10.595   6.094   0.288  0.1957  0.1227  0.0553
29037W        W44506   9.026  12.962   1.246 -0.2370  0.1686  0.0706
29038W        W44507   3.674   5.165  11.920 -0.1614  0.3712  0.0887
29039W        W44508   6.286   8.920  12.805 -0.0195 -0.2846 -0.0519
29040W        W44509   8.222   6.918   3.792 -0.0236 -0.3351 -0.2787
29041W        W44510   3.608   0.675  13.826  0.3133  0.0046  0.1549
29042W        W44511  12.689   1.858   4.844  0.0941 -0.0024  0.1580
29043W        W44512  13.372  12.949   1.662  0.0200  0.3603 -0.0233
29044W        W44513   2.753   7.837   3.260 -0.2757  0.1712 -0.0968
29045W        W44514  12.934  13.403  10.311 -0.1891 -0.0683 -0.1403
29046W        W44515   3.258  10.738   1.058  0.2706  0.1760 -0.1604
29047W        W44516  14.451  18.595  13.423  0.1473 -0.0112 -0.2005
29048W        W44517   4.824   8.272   4.261 -0.0586 -0.2259  0.0816
29049W        W44518  10.804  12.089   5.590  0.3373 -0.0677 -0.0662
29050W        W44519  11.616   0.684  12.156  0.0687 -0.1539 -0.3495
29051W        W44520  11.419  17.184  12.346 -0.2879 -0.1782  0.0707
29052W        W44521   7.712   2.795  12.740  0.1057 -0.0116  0.0653
29053W        W44522  14.702  18.366  12.408 -0.0173 -0.0435  0.0293
29054W        W44523   1.565   4.047  12.926 -0.2843  0.1336 -0.2305
29055W        W44524   9.810   7.866   1.261 -0.0196  0.1784 -0.3061
29056W        W44525  11.976   7.694  11.652  0.2182  0.0451  0.1183
29057W        W44526  16.559   6.992  15.397  0.2869  0.1049  0.5903
29058W        W44527   3.305  12.926  11.586  0.1209 -0.1746 -0.1063
29059W        W44528  12.405  15.372   3.629 -0.0542  0.0952 -0.0021
29060W        W44529  12.633  16.621  11.863  0.2054  0.0233  0.0415
29061W        W44530  11.822   9.618  15.183  0.3268  0.0991  0.0059
29062W        W44531  11.068  14.167   4.587  0.0317 -0.0175 -0.0718
29063W        W44532  12.479   9.288  12.572  0.0509  0.2139  0.2431
29064W        W44533  11.898  16.943  12.182 -0.1935  0.1079 -0.0195
29065W        W44534   6.648   6.655   2.888 -0.2834 -0.0717 -0.2808
29066W        W44535   2.183  13.802   9.345  0.2881 -0.1050 -0.1723
29067W        W44536   2.926  16.605   0.927 -0.4714 -0.1351 -0.1206
29068W        W44537  17.121   2.270   3.002 -0.0056  0.0240  0.1408
29069W        W44538   4.146  11.713   4.257 -0.0400 -0.1990 -0.1479
29070W        W44539   1.106   7.647   3.330 -0.0267  0.0605  0.0563
29071W        W44540  10.207  14.214   2.269  0.3860  0.1709 -0.1387
29072W        W44541   8.462   0.331  15.442  0.0026 -0.0064 -0.1488
29073W        W44542  15.714  10.975   4.227 -0.1891 -0.0397 -0.2291
29074W        W44543  17.435   2.689  12.400  0.1735 -0.0288  0.1318
29075W        W44544  16.616   0.213  14.195 -0.3428  0.1846  0.0575
29076W        W44545   3.250   4.034  10.595  0.1193 -0.2135  0.1673
29077W        W44546   5.534   6.843   1.257  0.2323  0.2112  0.0654
29078W        W44547  17.222  18.692   0.316  0.1634  0.2355  0.1961
29079W        W44548  10.057  10.367   4.152  0.0631  0.2845 -0.0390
29080W        W44549  11.301   0.481   1.543  0.0360 -0.2523  0.1456
29081W        W44550  11.273  13.021   3.856  0.1411 -0.3210  0.2086
29082W        W44551  18.406   2.957  11.359  0.0101  0.0696  0.2831
29083W        W44552  12.904  18.839  13.578 -0.3035  0.0900  0.4158
29084W        W44553   9.210  16.742  11.155 -0.1866 -0.0001 -0.1222
29085W        W44554  12.429  13.360   5.803  0.5411  0.2363 -0.4004
29086W        W44555   3.425   5.938   1.579  0.2149  0.0444  0.1119
29087W        W44556   0.019  10.521  14.629 -0.3981 -0.1146  0.2791
29088W        W44557   2.391   8.994  10.610  0.2189  0.3282 -0.0912
29089W        W44558  15.351  11.698   0.903  0.0540  0.2948 -0.0194
29090W        W44559  14.966  17.233   1.079 -0.0224 -0.1614 -0.0498
29091W        W44560   3.416   8.022  10.900  0.0013 -0.0283  0.0178
29092W        W44561   7.145   6.547   2.505 -0.1720 -0.3466  0.2321
29093W        W44562  15.825  12.008  12.981  0.2453 -0.1973  0.0758
29094W        W44563  12.171  13.881  12.022 -0.2839 -0.0140 -0.0740
29095W        W44564  16.006   1.310  13.401 -0.2332 -0.1892 -0.1927
29096W        W44565  12.965   1.368  15.333  0.2444  0.1310 -0.0254
29097W        W44566   8.239  13.457  11.109  0.0997  0.0721  0.0716
29098W        W44567  12.443  15.247   2.465  0.2085 -0.0542  0.1292
29099W        W44568   7.427   2.162   4.363  0.0046 -0.0745  0.3777
29100W        W44569   1.824  10.537   3.022 -0.0638  0.0179 -0.0275
29101W        W44570   8.167  11.427   9.854  0.2441  0.2874 -0.0051
29102W        W44571  10.643   3.041   3.323  0.1030 -0.0245  0.3568
29103W        W44572   6.662  16.000   1.852 -0.1585  0.1333  0.1244
29104W        W44573   0.075  17.831  12.179  0.1869 -0.0338  0.1653
29105W        W44574   1.542   3.022   0.039 -0.1015 -0.0032 -0.0919
29106W        W44575   7.471  17.870   0.144  0.0439  0.2190  0.0352
29107W        W44576  10.769   8.400   3.295  0.0405 -0.1861 -0.1634
29108W        W44577  17.269   6.764  14.429 -0.2310  0.0262  0.3339
29109W        W44578  18.730   3.941  10.465  0.1015  0.1101 -0.0137
29110W        W44579   8.210   3.769   4.234  0.2318  0.0829 -0.2332
29111W        W44580   9.558   5.753  11.621  0.1020  0.1910  0.1158
29112W        W44581   2.772   0.459  12.475 -0.1675  0.0803 -0.3118
29113W        W44582  15.415   4.514  15.301 -0.0147  0.2721  0.1503
29114W        W44583  10.116  15.441   3.804  0.0967  0.0085 -0.1046
29115W        W44584  15.639   1.121   2.361 -0.3818  0.0736  0.1922
29116W        W44585   5.786   8.378   5.115 -0.1411  0.1934 -0.0176
29117W        W44586   4.694  17.116   4.684 -0.3571  0.0833  0.0435
29118W        W44587  10.390  14.843  13.797 -0.0581  0.3302  0.3556
29119W        W44588  11.954   1.574   2.469  0.0233  0.1500  0.2138
29120W        W44589   5.304  15.288  13.287 -0.2293 -0.0055 -0.0805
29121W        W44590   9.833  11.433   5.507  0.2173  0.1641  0.0906
29122W        W44591   3.559  10.077  14.001  0.0714  0.2903  0.4214
29123W        W44592  13.387  10.597   3.109  0.2810  0.3784 -0.1575
29124W        W44593  11.728   9.154   0.585  0.0700  0.1150  0.1412
29125W        W44594   4.693   1.101   2.112 -0.1110  0.2354  0.0138
29126W        W44595   0.557  11.075   5.273  0.0860  0.2210  0.2586
29127W        W44596   7.726   6.658   4.615  0.0763 -0.3543  0.2477
29128W        W44597   3.718   6.681  13.480  0.3215 -0.2541 -0.0958
29129W        W44598  13.630  12.661   3.782  0.2956 -0.4199  0.2009
29130W        W44599  14.568  13.715  11.716  0.0860 -0.0676 -0.3162
29131W        W44600  11.243   4.451   4.248 -0.3133 -0.2886  0.3956
29132W        W44601  15.676  18.864   2.629 -0.0271  0.2170  0.0285
29133W        W44602   5.970   5.997   4.517  0.1170  0.3252  0.0732
29134W        W44603   8.234  16.329  11.051 -0.1665  0.0845 -0.2562
29135W        W44604   6.576  11.134   4.803  0.0548  0.2146  0.1535
29136W        W44605  12.364   2.555  11.695 -0.1189 -0.0325  0.2217
29137W        W44606  16.207   1.194  12.653 -0.1106 -0.1456  0.1538
29138W        W44607   1.639  14.086   1.222  0.0043  0.0297 -0.1860
29139W        W44608   2.149  14.959   0.343  0.3133 -0.0151  0.1201
29140W        W44609   8.047   1.972  10.154 -0.2483  0.3806  0.0597
29141W        W44610  10.680  14.598  14.695 -0.2225 -0.0197 -0.0673
29142W        W44611  12.349   3.885  10.717 -0.1055  0.0143 -0.1492
29143W        W44612  16.250  16.306  13.903  0.0193 -0.0227  0.0835
29144W        W44613   4.215  12.515   0.724 -0.2499 -0.0146 -0.0074
29145W        W44614   2.010  15.695  13.327  0.0728  0.4773 -0.1796
29146W        W44615  13.379  17.465   0.892 -0.2725 -0.3688  0.2154
29147W        W44616   6.084   3.209  11.294 -0.2178 -0.0163  0.1963
29148W        W44617   6.718  10.178  11.598 -0.0382 -0.2698 -0.0448
29149W        W44618   4.277   1.402  13.290  0.1479  0.0708 -0.8060
29150W        W44619  17.590   9.245   1.750 -0.1253 -0.0431  0.3920
29151W        W44620  12.982   9.477  10.136 -0.0241  0.2639 -0.1199
29152W        W44621   2.867   1.597   4.480  0.1438 -0.4515  0.2701
29153W        W44622  17.122   6.406   5.389 -0.0030  0.0942 -0.4546
29154W        W44623   4.813   2.083  13.860 -0.2104 -0.0383 -0.1547
29155W        W44624  14.385   5.901   3.959 -0.2019 -0.3351 -0.0594
29156W        W44625  11.778   7.803   1.588 -0.1310 -0.1442 -0.3348
29157W        W44626   0.527  15.536   3.749  0.0932  0.3290  0.1959
29158W        W44627   0.916   8.390  14.098  0.0462  0.0808 -0.1007
29159W        W44628   7.106   1.719  12.839  0.1774 -0.0482 -0.1269
29160W        W44629  14.760   8.417   2.012  0.1072 -0.2438  0.4352
29161W        W44630   4.948  14.659   2.267  0.2670 -0.1953 -0.1162
29162W        W44631  18.117  17.482  12.719  0.0932  0.0761  0.1929
29163W        W44632   3.133  14.657   0.885  0.4885  0.1449  0.0106
29164W        W44633   6.955  13.555   0.448 -0.1203  0.1140 -0.3005
29165W        W44634  17.127   2.580   3.408 -0.0946  0.0689  0.1313
29166W        W44635   1.457   3.700   4.711 -0.1614 -0.1513 -0.1867
29167W        W44636  14.811  16.532   4.780  0.1655  0.1996  0.0145
29168W        W44637  16.095  14.622   4.145  0.0736 -0.2847 -0.3265
29169W        W44638   0.737  16.216  12.886  0.2492  0.2599  0.1609
29170W        W44639   2.345  10.654  13.232  0.0214 -0.0626 -0.0197
29171W        W44640   3.340   8.058   1.270 -0.1346 -0.0371  0.4516
29172W        W44641  15.862  16.738   0.617  0.1769 -0.5140  0.3108
29173W        W44642   5.928   7.477   9.980 -0.1174  0.4823  0.1290
29174W        W44643   2.597   3.973   0.055  0.0750  0.1327  0.3590
29175W        W44644  15.115   1.504  15.026 -0.1862 -0.0962 -0.0765
29176W        W44645   5.128   3.211   4.703  0.0248 -0.3809  0.3139
29177W        W44646   3.692   9.983   4.442 -0.2494  0.0680 -0.2804
29178W        W44647   8.928  14.295   4.769 -0.0647 -0.1476 -0.0112
29179W        W44648  12.757  17.328   2.034 -0.1439 -0.0712 -0.0473
29180W        W44649  13.481   8.071   1.398 -0.0373 -0.2609 -0.2965
29181W        W44650  15.306   8.100   4.956 -0.0069 -0.0909 -0.0249
29182W        W44651   6.198   4.830  14.265 -0.3554 -0.0585 -0.1041
29183W        W44652   4.585  18.759  11.087 -0.0524 -0.0121 -0.0286
29184W        W44653  12.537   1.732  13.762 -0.2472  0.2079 -0.1246
29185W        W44654  11.726  17.137   0.577  0.0298  0.1677  0.1922
29186W        W44655   5.053  13.900  11.372  0.1291  0.0932 -0.1947
29187W        W44656   6.615   2.667  11.887 -0.1023  0.3985  0.0825
29188W        W44657   5.639   5.334   2.549  0.1169  0.1858  0.2374
29189W        W44658   4.301  17.578  14.588 -0.0334  0.1481 -0.0236
29190W        W44659  16.250  14.599   3.251 -0.1417 -0.1153 -0.1408
29191W        W44660   4.871   1.536   4.418 -0.0769 -0.1728  0.1464
29192W        W44661  15.486  16.223  11.956  0.4998 -0.1550 -0.1756
29193W        W44662  14.908   0.302  12.837  0.1602  0.2148  0.1699
29194W        W44663   9.292  12.735   9.568  0.2635 -0.2140 -0.3159
29195W        W44664   7.262  12.760   5.212  0.1905 -0.0887 -0.5181
29196W        W44665   2.354   4.575   3.513 -0.1310 -0.1101  0.1000
29197W        W44666  17.936   7.470  13.436  0.1419  0.2214 -0.1018
29198W        W44667   3.700   7.523  15.465  0.2843 -0.0003 -0.0046
29199W        W44668   6.847   0.077  11.309  0.1124 -0.0769 -0.4724
29200W        W44669  13.966   8.192  11.450  0.1068  0.3047  0.0398
29201W        W44670  13.514   8.969   3.601  0.0284  0.1724  0.0620
29202W        W44671   5.256   3.237   5.184 -0.1317  0.0802 -0.1235
29203W        W44672  16.332  10.071   1.869 -0.3406  0.0912 -0.1201
29204W        W44673  15.337   3.079  13.672 -0.4401  0.0436 -0.0233
29205W        W44674  18.890   7.170  13.072 -0.1665 -0.3389 -0.1510
29206W        W44675  11.160  15.454  13.799 -0.1882 -0.4071  0.0982
29207W        W44676   3.348  11.007   3.498  0.3010 -0.0339 -0.3325
29208W        W44677  17.519   2.528   6.209  0.1474 -0.1516  0.0266
29209W        W44678   0.546   4.540  15.092 -0.0130 -0.1660 -0.2500
29210W        W44679   6.009   2.316  13.414 -0.1146 -0.0341  0.1219
29211W        W44680  15.812   5.252   2.971 -0.2229 -0.3410  0.0634
29212W        W44681  18.727   7.206   2.414  0.0924  0.0428  0.0595
29213W        W44682   9.607   4.727  13.062 -0.1594  0.1230 -0.1031
29214W        W44683   3.560   2.853  10.598  0.2830  0.0851 -0.0841
29215W        W44684   0.191  15.886   4.305 -0.2056 -0.1134 -0.2354
29216W        W44685  13.033  18.763  12.856  0.2895 -0.1843 -0.0076
29217W        W44686   8.636   0.687   0.814  0.5421  0.2197  0.2864
29218W        W44687   4.681  15.985  11.856  0.0046  0.5782  0.1595
29219W        W44688   4.724   5.944  10.214  0.1086 -0.2086 -0.2200
29220W        W44689   6.384  14.787  10.975 -0.0288  0.1491 -0.0513
29221W        W44690   1.659  15.179  15.204 -0.0259 -0.1250  0.3977
29222W        W44691   9.491  14.673  12.636 -0.0481  0.2984 -0.1070
29223W        W44692  10.994   9.515   1.861 -0.2396 -0.0381 -0.0795
29224W        W44693   3.893   8.522   1.796 -0.1967  0.0325 -0.0620
29225W        W44694  16.422   0.089   2.703  0.0435  0.1788  0.1507
29226W        W44695   5.102  13.136  11.834  0.0259 -0.2351  0.0185
29227W        W44696   4.347   4.404   5.123 -0.0362 -0.1605  0.0829
29228W        W44697   5.939  13.495  11.993 -0.2578 -0.0456 -0.0096
29229W        W44698   8.960   7.868  10.727  0.1142  0.1596  0.1106
29230W        W44699   7.741  13.290  13.686  0.1369  0.3491 -0.0113
29231W        W44700   8.792   8.414   2.567  0.0625  0.0858  0.4042
29232W        W44701   5.838  15.968   2.765 -0.1589  0.2498  0.2298
29233W        W44702   7.377  16.148   2.452  0.4360  0.0998  0.0783
29234W        W44703   5.994  14.176   2.222  0.1492 -0.2049  0.1625
29235W        W44704   0.167   7.390   3.770 -0.1374  0.2026  0.1511
29236W        W44705  16.498   2.650   3.756  0.1123 -0.2001 -0.1288
29237W        W44706  11.449  11.696  12.228 -0.2729  0.0228  0.2778
29238W        W44707   3.940  10.864   2.213  0.0821 -0.2252  0.3825
29239W        W44708   0.902   8.818   4.659  0.0933 -0.3241 -0.2015
29240W        W44709   3.947  12.037  12.738 -0.0955 -0.2197 -0.2548
29241W        W44710  15.345   1.696   1.070 -0.1727 -0.0135 -0.0668
29242W        W44711  16.904  14.398  13.492  0.0019 -0.1052  0.1214
29243W        W44712   4.772   2.613   1.514  0.0387 -0.3834 -0.0021
29244W        W44713   2.246   5.231  15.224  0.2197  0.0746  0.0333
29245W        W44714   1.681   7.908   3.509 -0.1198 -0.0092  0.2256
29246W        W44715   3.105  13.801   2.181  0.0029  0.0500 -0.0994
29247W        W44716  11.743  11.543   4.698 -0.0412 -0.0179  0.2132
29248W        W44717   1.942  10.788  15.251 -0.1800 -0.0411 -0.4362
29249W        W44718  10.353  13.248   1.750 -0.2687  0.2504 -0.2350
29250W        W44719  12.897  13.268  13.750 -0.1626 -0.4659 -0.1715
29251W        W44720   3.396  11.447  14.522 -0.1405  0.0588  0.1224
29252W        W44721  15.943  16.113  14.777  0.1918  0.0573  0.1222
29253W        W44722  11.671  11.767   4.218 -0.2884 -0.2633  0.2321
29254W        W44723   5.185   9.164   2.983 -0.1797 -0.0146 -0.1259
29255W        W44724  16.532  14.775  13.291  0.0313 -0.1642  0.2512
29256W        W44725  18.939  15.648   0.094  0.1126 -0.2581  0.1448
29257W        W44726   0.802  14.114  10.826 -0.1316 -0.1562  0.3028
29258W        W44727  13.481   6.329   3.244  0.0959  0.1422  0.1850
29259W        W44728   4.159   8.734  12.391  0.2341  0.1901 -0.3311
29260W        W44729   9.970  13.343  11.093  0.0352 -0.1945 -0.0977
29261W        W44730   2.657   3.008  11.314 -0.2025  0.0678 -0.0248
29262W        W44731   3.875   5.539  14.195 -0.2147  0.0795 -0.2206
29263W        W44732  10.417   6.586  13.358 -0.1222  0.3473 -0.0633
29264W        W44733   0.642  17.140  10.690  0.2779 -0.1650 -0.0210
29265W        W44734  12.142  18.638  13.738 -0.0096 -0.0575  0.0608
29266W        W44735  16.038   9.009  11.659  0.1708 -0.0499  0.3809
29267W        W44736  11.287   2.899   0.255 -0.5701 -0.3094 -0.1299
29268W        W44737   4.861   9.066  11.904  0.0625  0.0043 -0.0125
29269W        W44738   0.959  17.388   4.209  0.0341 -0.1186  0.1477
29270W        W44739  17.497  11.761   1.146  0.0991 -0.2530 -0.1186
29271W        W44740  18.630   4.128   4.736  0.2067 -0.2839 -0.4132
29272W        W44741  18.176   3.721   4.080 -0.1939 -0.0303 -0.0006
29273W        W44742   0.353   3.402  10.990 -0.0002 -0.2253 -0.2270
29274W        W44743   7.658  16.005   1.880  0.0768 -0.2451 -0.1569
29275W        W44744   2.521  17.933   3.579 -0.1046 -0.0497  0.3353
29276W        W44745   0.184   7.316  13.667 -0.0701 -0.0101 -0.1689
29277W        W44746  18.753  13.267   4.099 -0.0011 -0.0008 -0.0991
29278W        W44747   5.859  11.397   4.198  0.0224  0.3567 -0.1625
29279W        W44748   4.715  13.342   2.153 -0.0755 -0.3659  0.2454
29280W        W44749  15.669   1.862   0.261  0.1896  0.2351 -0.1203
29281W        W44750   6.015   2.414   5.308 -0.0105  0.1256  0.2282
29282W        W44751  16.615   3.161  14.865  0.0843 -0.0731 -0.0421
29283W        W44752   0.448   1.948   1.384  0.1623  0.0153 -0.2619
29284W        W44753  17.511  12.993  14.077 -0.4641 -0.0972 -0.2862
29285W        W44754  12.042  16.973  11.682  0.0754  0.3267 -0.1328
29286W        W44755   0.802   0.106   0.478  0.1243 -0.1747  0.2152
29287W        W44756  18.093   6.249  14.651 -0.2781 -0.1134 -0.0863
29288W        W44757   6.007   8.543  11.848  0.0937  0.0541 -0.0495
29289W        W44758   7.510   5.750   2.477 -0.2329  0.0765  0.0485
29290W        W44759   2.754   5.913   2.233 -0.1728 -0.0593 -0.1464
29291W        W44760   2.245  11.358   0.567  0.1479 -0.3650 -0.0365
29292W        W44761  15.219   5.125  14.927 -0.1439  0.2496 -0.0514
29293W        W44762   2.275   1.272  11.339 -0.1052 -0.1128  0.3436
29294W        W44763  15.428   4.303   0.686  0.3305  0.0081  0.2630
29295W        W44764   4.692  15.928   4.434 -0.1133  0.3101  0.0890
29296W        W44765  11.996  15.565  12.176 -0.0690 -0.1653 -0.0197
29297W        W44766   1.607   1.226   0.919 -0.2406 -0.2498  0.1467
29298W        W44767   6.608  15.030   0.710  0.0591  0.1329 -0.5519
29299W        W44768   5.393   1.625   4.311 -0.0451  0.0346  0.5609
29300W        W44769   9.889   4.726   3.799 -0.2001  0.0214  0.1427
29301W        W44770   4.589   6.509  15.392  0.1004 -0.2096 -0.0852
29302W        W44771  13.056  16.429   1.772  0.2898  0.3031  0.0327
29303W        W44772   7.649   9.708  11.729 -0.0977 -0.1427 -0.2471
29304W        W44773  18.085   5.714  13.405  0.1964  0.1614  0.3997
29305W        W44774   0.125   8.058   1.561  0.0726  0.2884  0.0340
29306W        W44775  13.245  17.024   0.669 -0.0408 -0.0590 -0.0675
29307W        W44776   0.441  17.656  11.882  0.1262  0.0881  0.3822
29308W        W44777  13.852   6.808  12.680  0.3060  0.1393 -0.3382
29309W        W44778   9.653   4.456   3.324  0.5964  0.4841 -0.1357
29310W        W44779  18.753   3.935  15.228 -0.3392  0.0154 -0.0587
29311W        W44780  17.719   0.005   5.867 -0.2130 -0.2867  0.1296
29312W        W44781  14.996   2.625   0.324 -0.0649 -0.1174  0.2094
29313W        W44782   4.354  15.430  14.276  0.1010 -0.0092  0.1540
29314W        W44783   9.004   1.960   3.099  0.1746  0.1319 -0.6751
29315W        W44784   9.139   7.876   1.836  0.3774  0.1084  0.3077
29316W        W44785   8.544   6.977  11.453  0.2425  0.2450  0.3075
29317W        W44786  14.628   2.383  12.415 -0.1748 -0.0847 -0.0772
29318W        W44787  12.562  14.839  11.744 -0.1678  0.1149 -0.0603
29319W        W44788   8.608  10.993   2.487  0.1149 -0.4862  0.0261
29320W        W44789  10.086   1.304   5.052 -0.0583  0.1065  0.0967
29321W        W44790  17.147  17.112   3.630 -0.0271 -0.2404 -0.2629
29322W        W44791   9.313   0.553  15.479 -0.0159  0.1625  0.1292
29323W        W44792   4.584  12.873  13.581 -0.0170  0.3013 -0.1763
29324W        W44793   6.627   9.624   3.172  0.0817  0.1443 -0.0401
29325W        W44794   0.150   7.504  14.149 -0.0624  0.0202  0.1730
29326W        W44795   0.344  16.525   9.940  0.0515 -0.1449  0.2489
29327W        W44796  15.591  14.302   5.069 -0.1359  0.2632 -0.0089
29328W        W44797   6.070  14.166   4.432 -0.2998 -0.3794  0.2193
29329W        W44798   2.650   7.804  10.600  0.4130  0.2678  0.0173
29330W        W44799   1.138   5.458  14.536 -0.2056 -0.0520 -0.1048
29331W        W44800  13.583   9.065   1.151 -0.1125 -0.2807  0.1718
29332W        W44801  16.775   3.771  13.507  0.1320  0.0405 -0.1788
29333W        W44802   8.906   2.487  15.347  0.1610 -0.2607  0.0205
29334W        W44803   8.745  17.822   4.014 -0.0047 -0.2565 -0.2528
29335W        W44804  15.005   0.967  12.975  0.0146 -0.2612  0.0752
29336W        W44805   6.609  14.431  12.115 -0.0617  0.2144  0.0353
29337W        W44806  13.408   8.965   9.994 -0.0382  0.1994 -0.2081
29338W        W44807   4.711  13.214   3.132 -0.0423 -0.1223 -0.2457
29339W        W44808   1.134   1.886  14.816  0.0635  0.2153  0.1414
29340W        W44809  18.084  11.983   3.107 -0.0759  0.0097  0.0753
29341W        W44810   3.842  14.517  14.879 -0.1078  0.0940 -0.0856
29342W        W44811  16.673   5.649  14.377  0.0837  0.0007 -0.0641
29343W        W44812  18.802  16.214   0.512 -0.2118 -0.1709 -0.0561
29344W        W44813   1.069   7.912  12.991 -0.1021 -0.1445  0.2321
29345W        W44814   3.869  16.796   0.337 -0.1397  0.1986 -0.1066
29346W        W44815  13.063   1.445   4.372 -0.0640  0.0818  0.1769
29347W        W44816  17.614   4.013   0.277 -0.1816 -0.0246  0.4670
29348W        W44817  15.849  11.225  15.490 -0.1742 -0.1136 -0.0815
29349W        W44818   3.267  14.323  11.984  0.0367 -0.0400  0.3800
29350W        W44819   6.287  17.976  12.261  0.0044  0.2883 -0.0476
29351W        W44820  15.538   0.156   0.654  0.0939 -0.1339 -0.0771
29352W        W44821  13.080  11.357  11.156 -0.1144 -0.1062 -0.4826
29353W        W44822   8.518  11.089   0.444  0.0796 -0.1149  0.3469
29354W        W44823  11.421   2.017   2.594 -0.0845 -0.1379 -0.2053
29355W        W44824  13.283  12.583  12.539  0.4713 -0.0643  0.0776
29356W        W44825  16.747   3.317  12.476 -0.2673 -0.1648  0.0622
29357W        W44826  12.647   7.944   3.612  0.0742 -0.1758 -0.1936
29358W        W44827   2.231  10.451  14.113 -0.2240  0.1186 -0.1634
29359W        W44828  15.698  15.147   2.217 -0.2104 -0.3368 -0.3062
29360W        W44829   8.507  10.040   1.937  0.1078 -0.0069 -0.2211
29361W        W44830  18.570   2.795  10.904  0.0914  0.5048 -0.1454
29362W        W44831  12.101   1.193  14.234 -0.2829  0.1231  0.2732
29363W        W44832  15.509   7.206  15.210 -0.2470 -0.0518 -0.4790
29364W        W44833   1.056   6.033  11.620 -0.0266 -0.1775  0.2214
29365W        W44834   2.093  16.358  12.867 -0.1556 -0.2364  0.0853
29366W        W44835   4.127   8.302  10.821 -0.1141  0.0265  0.3925
29367W        W44836   3.228  18.205  13.747 -0.1954 -0.1466 -0.0936
29368W        W44837  10.353  16.041   0.117  0.3525  0.2226  0.0731
29369W        W44838  12.090  13.488   1.829 -0.0184 -0.1050 -0.1876
29370W        W44839  14.883  10.236   4.967 -0.1350 -0.1501  0.0506
29371W        W44840   2.635  15.943  11.467 -0.0535  0.0143  0.1829
29372W        W44841   1.260   5.107  13.871  0.1098  0.5521  0.0700
29373W        W44842  12.186   7.828   2.982 -0.0592  0.3114 -0.2195
29374W        W44843   8.594   1.760  12.267  0.1140  0.2005 -0.0159
29375W        W44844   6.860  12.627   0.099  0.0116  0.0426 -0.0602
29376W        W44845  11.708   3.916   3.853 -0.0704 -0.0510  0.3347
29377W        W44846  15.597  15.963  10.164 -0.2448 -0.1939 -0.0590
29378W        W44847   9.600  10.696   4.431 -0.0753  0.2720  0.1735
29379W        W44848   4.315   5.700  12.298  0.0592  0.1265  0.4824
29380W        W44849  17.934   9.259  10.863 -0.1850 -0.0256  0.0537
29381W        W44850  16.158   8.693   0.870  0.2537 -0.2062 -0.3452
29382W        W44851   4.675   8.184  11.332  0.0576 -0.0913 -0.1452
29383W        W44852   7.256  16.161  14.162  0.0985  0.3222 -0.1250
29384W        W44853   5.052   0.415   3.355 -0.1843 -0.1410  0.0836
29385W        W44854   2.829   5.300   4.087  0.3233  0.1670 -0.2724
29386W        W44855   9.626  15.185  11.944  0.1021 -0.3520 -0.0578
29387W        W44856  11.876  14.025  14.348 -0.0014 -0.3563 -0.4475
29388W        W44857   5.535  15.250  10.972  0.0841 -0.0813 -0.0658
29389W        W44858   2.291   2.647   0.060 -0.2703  0.2220 -0.3129
29390W        W44859  12.020   0.387  14.666  0.1336 -0.0133  0.0253
29391W        W44860   3.428   2.280   2.855 -0.0833 -0.0638  0.0224
29392W        W44861  16.369  17.889   0.033  0.0411  0.2828  0.0091
29393W        W44862  10.496   0.358   3.744  0.1300  0.1096  0.0234
29394W        W44863   7.248   0.833  12.788 -0.1661  0.3987  0.3424
29395W        W44864   3.160   2.069  11.227  0.1140 -0.0475  0.0474
29396W        W44865  18.815  13.765   1.101 -0.0579  0.0663 -0.2797
29397W        W44866   8.890  12.962  13.098 -0.0121  0.0920  0.0241
29398W        W44867   8.283  15.273  12.450  0.1968 -0.1631 -0.1107
29399W        W44868  17.191  16.272  11.564 -0.0565  0.1220 -0.0550
29400W        W44869   4.793   9.322   1.543  0.2670 -0.0299 -0.0007
29401W        W44870   3.458   0.945   2.824  0.0359  0.3565  0.1627
29402W        W44871  12.839  18.165   1.382  0.1538  0.4838  0.3360
29403W        W44872  13.879   8.728  12.634 -0.0795  0.0866 -0.0690
29404W        W44873   9.312   5.479  11.977  0.2229 -0.1142  0.2597
29405W        W44874  13.358   8.092   2.268  0.0546 -0.1240 -0.0659
29406W        W44875   4.760   0.335  14.140 -0.0761  0.3251 -0.0411
29407W        W44876   4.020  13.223   3.234 -0.1627  0.0301  0.0078
29408W        W44877  17.388  18.829  12.173  0.1867 -0.2094  0.0449
29409W        W44878   8.335   9.537   0.846 -0.1013  0.2032 -0.1012
29410W        W44879  14.941   1.584  12.138  0.0777  0.0583 -0.0196
29411W        W44880  16.456   1.088  13.685  0.1555  0.0576  0.0165
29412W        W44881   4.732  13.265   4.742 -0.0611  0.2430 -0.2973
29413W        W44882  16.328  18.516  10.950 -0.0471  0.2815 -0.0568
29414W        W44883  12.066   4.845  14.610 -0.2119 -0.0789  0.1785
29415W        W44884   2.293   3.880   4.793 -0.1168  0.1730  0.1458
29416W        W44885  16.240   4.543  10.547  0.1633 -0.0384 -0.1888
29417W        W44886   3.949   3.109  10.658 -0.1730  0.1009  0.1456
29418W        W44887  14.415  18.814  14.481  0.2749 -0.0628  0.0473
29419W        W44888   6.492  14.044   4.174 -0.2799 -0.1425  0.3219
29420W        W44889  14.319   0.415   5.741 -0.0050  0.2728  0.1307
29421W        W44890   1.803   8.168   4.345 -0.0287  0.0338 -0.1798
29422W        W44891   0.015  10.767  15.125 -0.0665  0.0350  0.1671
29423W        W44892   8.780   2.973   5.116  0.1108  0.2380 -0.1527
29424W        W44893  10.613  17.620  12.644 -0.2518 -0.1412  0.0008
29425W        W44894  17.870   7.155  10.958 -0.2953 -0.4095  0.2683
29426W        W44895  15.974   0.263   1.376 -0.0309  0.1981  0.0070
29427W        W44896   9.214  16.073  14.422  0.2058  0.0421 -0.0980
29428W        W44897  14.026   3.738  12.554  0.2731  0.0719  0.0561
29429W        W44898  13.548   2.107  15.420  0.0293 -0.3871  0.2017
29430W        W44899   4.383  13.382   3.487 -0.3078  0.0364 -0.0684
29431W        W44900  10.009   9.145  15.439 -0.0264  0.0188 -0.0210
29432W        W44901  13.043   9.856  13.799 -0.0875 -0.1874  0.2296
29433W        W44902  11.752   2.250   2.934  0.3153  0.0107  0.0854
29434W        W44903   4.360  18.127  13.897 -0.1853 -0.2158 -0.1958
29435W        W44904   8.866   4.108   1.768  0.2104  0.0405  0.0387
29436W        W44905   9.276  13.170  10.314  0.2565 -0.3178  0.1628
29437W        W44906   9.015   8.958  12.019 -0.3940 -0.0620 -0.0221
29438W        W44907  18.547  10.589  10.288 -0.2146  0.4094 -0.2760
29439W        W44908   1.756   7.886  14.096 -0.1640 -0.3672  0.1183
29440W        W44909  10.249  10.495   2.053  0.0052 -0.0740 -0.2794
29441W        W44910  18.265  15.754  13.355 -0.0682 -0.1649  0.3658
29442W        W44911   1.051   2.266   4.255 -0.0211  0.2643 -0.3215
29443W        W44912  14.772   9.870   5.840  0.3469 -0.1765  0.3457
29444W        W44913  11.691  18.512   2.547 -0.1264  0.1463 -0.0791
29445W        W44914  14.869   0.522  14.619 -0.2492  0.1876 -0.0455
29446W        W44915   4.414   1.727   1.238 -0.2116 -0.2186 -0.0846
29447W        W44916  11.241  14.636   3.923 -0.0943 -0.0795 -0.3182
29448W        W44917  13.009   8.912   3.424  0.0506 -0.1475  0.1356
29449W        W44918   9.248   2.178  10.593 -0.1976 -0.1267  0.3151
29450W        W44919  16.646  12.892  11.351  0.1480 -0.0889 -0.0651
29451W        W44920  14.694   5.937   2.394 -0.0535 -0.1286  0.3962
29452W        W44921  15.811  13.271  10.907 -0.5054  0.3659 -0.4463
29453W        W44922  11.102   5.579  10.982  0.0433  0.0072 -0.3386
29454W        W44923   7.588  10.312   1.804  0.0009  0.1243 -0.0766
29455W        W44924  15.581  11.818   4.753 -0.0002  0.1206 -0.4487
29456W        W44925   7.047   4.432   4.954 -0.0610 -0.1577 -0.0446
29457W        W44926  11.032  10.976   4.214 -0.3354  0.1442 -0.0049
29458W        W44927  11.497  17.666   4.629  0.0090 -0.3179 -0.0508
29459W        W44928  18.320  16.722   4.938 -0.3024 -0.1387 -0.1628
29460W        W44929   5.214   9.054   4.820  0.1814 -0.1383 -0.0181
29461W        W44930   7.974   2.472   5.269 -0.0655 -0.0577  0.0375
29462W        W44931  15.123  17.744  13.589  0.1882 -0.0216 -0.3291
29463W        W44932   8.252  12.020   4.181 -0.0664  0.1324 -0.3825
29464W        W44933  13.172   5.943  14.584 -0.1174 -0.0205 -0.0073
29465W        W44934   7.548  15.850   5.033 -0.0219  0.1506  0.2017
29466W        W44935   5.745  13.908  12.159  0.1591 -0.4503  0.2848
29467W        W44936   6.706  13.436  13.150 -0.2448 -0.0549 -0.1395
29468W        W44937   4.281   2.236   2.780 -0.2614 -0.2304 -0.1264
29469W        W44938  10.782   4.425  15.500 -0.2187  0.2685 -0.2204
29470W        W44939  11.233   7.084  13.274 -0.2433 -0.2895 -0.0255
29471W        W44940  16.948  12.494   1.737  0.0192  0.1267  0.0226
29472W        W44941  10.220   9.125   0.982  0.2118  0.1714  0.0156
29473W        W44942  17.309  18.847   5.618  0.2382  0.1402 -0.1782
29474W        W44943  16.126   9.176  11.194  0.3039  0.1306  0.0613
29475W        W44944   1.494  18.698   1.669 -0.3042 -0.2045 -0.0734
29476W        W44945   7.766  11.254   4.980  0.2809  0.1919 -0.2348
29477W        W44946   4.770   7.010   2.288 -0.1260 -0.0942 -0.1270
29478W        W44947  18.926   4.402   0.061 -0.4656 -0.3510  0.0683
29479W        W44948  12.309  14.841  13.006 -0.0928  0.0384 -0.1066
29480W        W44949  17.193  13.914  12.064  0.2415  0.0988  0.1702
29481W        W44950  10.409  13.583   3.952 -0.1027  0.0291 -0.2695
29482W        W44951  14.858  13.500   1.539  0.1389  0.3622 -0.2043
29483W        W44952   5.326  18.406   4.482  0.0705 -0.1234 -0.1264
29484W        W44953   8.657   5.840  12.610  0.3831 -0.4554 -0.0055
29485W        W44954   2.415  14.216  12.982  0.2481 -0.0027  0.2737
29486W        W44955  11.541   3.995  11.680 -0.1291 -0.0749 -0.2669
29487W        W44956  13.969  15.047   3.654  0.2987  0.1434  0.1571
29488W        W44957   6.440   7.308   9.058  0.0424  0.1926 -0.0848
29489W        W44958   4.531  15.419   4.435  0.0871  0.1715  0.1522
29490W        W44959   9.915  14.360   1.000  0.3222 -0.1379 -0.0873
29491W        W44960  14.997  15.461   5.043 -0.1222 -0.2433 -0.1221
29492W        W44961  18.767  17.589  11.096  0.2137 -0.0656  0.0738
29493W        W44962  11.677  12.357  14.765 -0.0283 -0.3384 -0.3626
29494W        W44963  18.903   3.019   1.086 -0.1837  0.1433 -0.1232
29495W        W44964  18.511   6.372  10.488  0.1303 -0.2444  0.1002
29496W        W44965   0.018   0.179  10.121  0.3378  0.3198 -0.0713
29497W        W44966  15.847  15.734   4.501 -0.2311  0.0694  0.2338
29498W        W44967   0.229  10.097   4.409 -0.1226 -0.0398  0.0627
29499W        W44968   1.254  16.206  14.702 -0.1604  0.1166 -0.0485
29500W        W44969   0.308   5.392   4.629 -0.0019  0.1356 -0.0331
29501W        W44970  11.016   0.957   2.854 -0.1226  0.0211  0.1895
29502W        W44971  12.622  18.895   2.267  0.0627 -0.0124 -0.0764
29503W        W44972   1.017  15.324  11.119  0.1418  0.0610 -0.0605
29504W        W44973   5.733   9.670   1.794  0.0547  0.0362 -0.3238
29505W        W44974   7.637  18.355   4.360 -0.2497  0.1951  0.0367
29506W        W44975  17.573  16.148   1.970  0.4462  0.0124  0.1583
29507W        W44976   7.061   1.414  13.392  0.3297 -0.0949  0.2690
29508W        W44977  16.602   2.057  12.633  0.1330  0.2960  0.3023
29509W        W44978  16.038   0.207  14.223  0.1653 -0.1616 -0.0363
29510W        W44979  11.266   5.457  13.351 -0.2215  0.0355 -0.2657
29511W        W44980   3.822   9.809   3.070  0.0488 -0.1626 -0.1377
29512W        W44981  14.002   7.910   4.530  0.2613  0.3030 -0.2216
29513W        W44982   7.134  16.097  11.307  0.2217 -0.1665 -0.3385
29514W        W44983  16.335   0.051  15.201 -0.2841  0.0914  0.3360
29515W        W44984  18.091   9.857  13.017  0.2446 -0.3244 -0.2058
29516W        W44985   6.273   9.661   1.932 -0.2077 -0.0139 -0.0048
29517W        W44986   8.774   9.187   4.397 -0.0360  0.0985 -0.0890
29518W        W44987   8.724  15.437   3.702 -0.2854  0.2916 -0.5885
29519W        W44988  10.664  15.268   2.846  0.0280 -0.0055 -0.0556
29520W        W44989  15.379   8.234  14.684 -0.1340  0.0998 -0.4233
29521W        W44990  11.281  14.555   2.713 -0.2539  0.0082 -0.0043
29522W        W44991  18.533   9.739   3.280  0.0393  0.4666  0.0293
29523W        W44992   6.732  18.110  14.254  0.1109 -0.1586 -0.0115
29524W        W44993  11.694   6.020  12.173  0.0813 -0.0353 -0.2255
29525W        W44994  15.339   3.832   2.723  0.0284 -0.0512  0.1320
29526W        W44995   2.691   1.053  10.511 -0.0520  0.2628  0.1084
29527W        W44996   8.237   8.722   4.092  0.0050 -0.4392  0.1251
29528W        W44997   4.340   3.169  11.031  0.2797  0.1100 -0.0476
29529W        W44998  15.569   3.447  13.957  0.4218 -0.0324 -0.2039
29530W        W44999  14.599  12.267  11.906  0.0827 -0.0376  0.0150
29531W        W45000  17.309   4.906  14.589  0.1010 -0.1410  0.1817
29532W        W45001   8.748  17.360   3.909 -0.0148  0.2049 -0.0155
29533W        W45002   7.758  16.024  15.451  0.0949  0.2473 -0.0910
29534W        W45003  10.927  11.218   4.592  0.2346 -0.3797 -0.1947
29535W        W45004  17.120   8.719  11.755  0.2043  0.2656 -0.2770
29536W        W45005   6.193   3.296   3.557 -0.0049  0.0991  0.1067
29537W        W45006   3.579  13.644  10.391  0.2430 -0.0631 -0.1934
29538W        W45007  11.892   3.296  12.133 -0.0113  0.3952  0.0091
29539W        W45008  10.273   5.950  10.827 -0.2827  0.5884 -0.0825
29540W        W45009   9.694   0.783   4.087  0.2874 -0.1410  0.0156
29541W        W45010   4.496  12.399  12.176  0.1489  0.1171  0.0893
29542W        W45011   7.943   5.287   4.557  0.2044  0.3185 -0.3556
29543W        W45012   3.535   7.609   1.025  0.3082 -0.0376 -0.1038
29544W        W45013  15.992   1.827  13.462  0.2661  0.0507 -0.1835
29545W        W45014  13.433   3.510  11.705  0.2574  0.2117 -0.0788
29546W        W45015  14.444  18.255   0.245  0.0034  0.1608 -0.2590
29547W        W45016   0.501  15.347  10.929  0.0861 -0.0728 -0.1248
29548W        W45017  12.819   7.519   2.596  0.5772  0.1453 -0.2183
29549W        W45018  16.643   2.314   3.354 -0.0769  0.0954  0.1175
29550W        W45019   1.008  18.408  11.239  0.1688 -0.2104  0.0928
29551W        W45020   0.508   5.993   4.710 -0.1473  0.0562  0.3051
29552W        W45021   3.665   0.599   6.099  0.1249  0.1912 -0.0277
29553W        W45022  15.298  18.701  12.270  0.0910  0.2660 -0.0677
29554W        W45023   9.571   8.819  13.973  0.1874  0.0277  0.1856
29555W        W45024   6.757   2.469  13.845  0.0843  0.2378  0.0539
29556W        W45025  17.983   2.687  12.584  0.3353 -0.2229  0.1938
29557W        W45026  11.107   5.594   0.405  0.2303 -0.0647 -0.0720
29558W        W45027   3.579   1.551  11.546 -0.2914  0.1055  0.1482
29559W        W45028   5.280   8.735  12.004 -0.2198 -0.0599  0.0369
29560W        W45029   8.715   4.066  12.720 -0.0672 -0.2216  0.0725
29561W        W45030  15.534  18.198  10.860 -0.0128  0.0393  0.1290
29562W        W45031  18.236  17.130  15.201  0.0596  0.2578 -0.1350
29563W        W45032  16.343   7.770   3.852  0.3320 -0.0302  0.3965
29564W        W45033  14.531   2.410  11.907  0.1867  0.0384  0.1375
29565W        W45034   9.662   2.615  14.471  0.0811  0.1145 -0.0666
29566W        W45035  17.441  14.244  12.612  0.0428 -0.0654 -0.0366
29567W        W45036  17.428  12.058   1.935  0.0259  0.0246  0.2358
29568W        W45037  13.451   2.814   1.920 -0.2250  0.2086 -0.1983
29569W        W45038   7.231  16.130  11.781  0.0485  0.0806  0.1572
29570W        W45039   5.490   4.921   1.838 -0.1642 -0.2394 -0.3949
29571W        W45040  15.841  14.001   1.136  0.2963  0.3687 -0.1395
29572W        W45041   0.330  11.468  12.593  0.1351  0.0328 -0.1579
29573W        W45042  16.345   2.547  11.436  0.1179  0.1193  0.3669
29574W        W45043   9.100   5.517   1.891  0.2494  0.2187 -0.2218
29575W        W45044  10.184  16.529   1.714  0.0105  0.0745 -0.0594
29576W        W45045   1.906  13.345  11.605 -0.0128  0.1439  0.0132
29577W        W45046  12.462  10.110   2.598  0.1247  0.2441 -0.0954
29578W        W45047   1.930  18.582   5.259  0.2808  0.1649  0.1104
29579W        W45048   0.110  14.915   4.936 -0.0073 -0.0328 -0.1238
29580W        W45049  14.269  16.888   1.678 -0.0486 -0.0123  0.1839
29581W        W45050   1.886  10.713  11.929 -0.3769  0.2119  0.0898
29582W        W45051   4.327  18.607   4.519 -0.1463  0.2446  0.0767
29583W        W45052   1.023   2.174  11.004  0.2944  0.1293  0.2049
29584W        W45053   4.574  17.198   3.637  0.0683 -0.1170  0.2791
29585W        W45054  12.038  13.360  11.546  0.1292 -0.1389 -0.1780
29586W        W45055   7.382  17.165  12.832 -0.1448 -0.2695  0.3136
29587W        W45056   8.810  18.903   2.960  0.2165  0.4083  0.1164
29588W        W45057  12.804   0.387  13.203  0.0902  0.1993  0.1289
29589W        W45058  18.075  10.172  12.185 -0.1319  0.2533  0.0318
29590W        W45059  12.303   8.785   2.242  0.2346 -0.1087 -0.0177
29591W        W45060   6.593   6.244   1.722  0.0762  0.1194  0.0343
29592W        W45061  15.414  15.838  13.210  0.1352 -0.0644 -0.0477
29593W        W45062   0.441  15.834  12.493 -0.4872 -0.0185 -0.1074
29594W        W45063  10.543  14.476  11.824 -0.1411  0.2475  0.2756
29595W        W45064   9.509  17.986  11.528 -0.1421 -0.2316  0.4985
29596W        W45065  15.671   2.151   5.256 -0.2114 -0.0345  0.1519
29597W        W45066  12.170   9.079  10.480 -0.1747 -0.1046  0.0368
29598W        W45067   8.580  10.975  13.937 -0.0713  0.3566  0.2227
29599W        W45068   3.809  18.808  12.488 -0.0513 -0.0025 -0.0797
29600W        W45069  17.276   3.994   1.647  0.0466  0.1020  0.1575
29601W        W45070  13.252  12.745   2.919  0.2583  0.3554  0.0947
29602W        W45071   5.932   2.774  11.457 -0.1382  0.0688  0.4292
29603W        W45072   7.109   0.613  10.879  0.1686 -0.2982  0.1573
29604W        W45073  17.746   6.153  10.718 -0.0098 -0.0882 -0.0622
29605W        W45074   7.717  10.940   3.253  0.2332  0.1676  0.0563
29606W        W45075   2.944   4.822   5.717 -0.1113 -0.4519  0.1704
29607W        W45076   5.379  17.988  10.082  0.2238  0.1967 -0.0837
29608W        W45077  15.805   1.055  12.986 -0.0080 -0.1070  0.1154
29609W        W45078  15.359   9.742   4.203  0.0728 -0.1830  0.1581
29610W        W45079  14.724   7.231  14.758  0.0856 -0.0646  0.0232
29611W        W45080  11.321   3.937   4.160  0.0701 -0.1876 -0.0537
29612W        W45081   7.585   6.415   5.061 -0.2038 -0.0464  0.1041
29613W        W45082  11.653  12.599   3.844  0.0916  0.3829 -0.0464
29614W        W45083  16.446   7.925  14.792 -0.3188 -0.3073  0.0355
29615W        W45084  14.950   6.422   1.911 -0.1414  0.3532  0.0214
29616W        W45085  11.025   0.006   3.098 -0.0039 -0.0300  0.1340
29617W        W45086   6.209   4.011  10.863 -0.3624 -0.1736 -0.1365
29618W        W45087   2.516  15.661   3.563  0.3528  0.2399  0.2332
29619W        W45088   3.524  14.501   4.924  0.1800  0.2861  0.0456
29620W        W45089   2.393  16.303   1.565 -0.1547  0.0696 -0.3405
29621W        W45090   3.639  11.077   1.768  0.2125  0.2219  0.2486
29622W        W45091   5.384  10.077   4.800 -0.1660  0.0742  0.2396
29623W        W45092  17.440  13.276   5.782 -0.1511  0.2366 -0.0944
29624W        W45093   4.603   1.255   4.848  0.1861  0.1908  0.1996
29625W        W45094  12.619  12.927   3.977  0.0600  0.3333  0.0147
29626W        W45095   0.985  15.592   1.812  0.1223 -0.1593 -0.1742
29627W        W45096  12.633   2.293   5.236 -0.1811 -0.2066  0.1138
29628W        W45097   5.535  13.779  12.990  0.0847 -0.2463 -0.0772
29629W        W45098  17.968  12.429   9.866  0.0043 -0.0260 -0.0365
29630W        W45099   8.076   8.342  14.661  0.4747  0.1239  0.2282
29631W        W45100  13.831  13.646  15.407 -0.1968  0.1126  0.1351
29632W        W45101  17.425  18.177   1.691 -0.0086 -0.1517 -0.0411
29633W        W45102   2.673  14.828   1.653 -0.0606 -0.0930  0.0201
29634W        W45103  12.619  15.529   4.600  0.0827 -0.1071  0.0923
29635W        W45104   4.402   4.333  13.338  0.1274  0.1259 -0.0288
29636W        W45105  16.237  17.744  11.337  0.2588 -0.1216  0.1440
29637W        W45106  10.424  16.832  11.997  0.1097 -0.1816 -0.0592
29638W        W45107  16.185   6.391   2.144 -0.1758  0.3511  0.1862
29639W        W45108   4.178   9.700   1.523  0.4181  0.1690  0.0639
29640W        W45109  18.782   8.987   3.895 -0.0366 -0.2670 -0.2021
29641W        W45110   0.211   3.542   3.198  0.1154  0.3277 -0.1240
29642W        W45111   2.368   8.614  13.033 -0.1898 -0.0493 -0.0733
29643W        W45112  15.435   8.943   3.398 -0.0431  0.1395 -0.5388
29644W        W45113   4.928   4.518  11.122 -0.4444  0.0580 -0.1068
29645W        W45114   4.577  18.306   2.652 -0.1321  0.1238 -0.1596
29646W        W45115  12.456  16.841  10.746 -0.0888  0.1455  0.3139
29647W        W45116  16.638  13.952   0.605 -0.0322 -0.3816  0.1325
29648W        W45117   1.319  14.631  13.754  0.1556 -0.0217 -0.2711
29649W        W45118   0.781   0.515   0.104 -0.2343  0.0746 -0.0794
29650W        W45119  10.355   1.813  10.375  0.0291 -0.1948  0.1362
29651W        W45120  16.123   0.664   1.621 -0.0084 -0.0933  0.0424
29652W        W45121  11.049  17.113  14.003  0.0894  0.1482 -0.0532
29653W        W45122  14.105   4.878   5.040  0.1476  0.1737  0.0375
29654W        W45123   2.008  16.125   0.167 -0.0830 -0.0313  0.1701
29655W        W45124   9.669   7.407  10.974 -0.1438  0.2322  0.0616
29656W        W45125  11.601  12.022  12.840 -0.1587  0.2170  0.2311
29657W        W45126  13.306   0.545  12.032 -0.0056 -0.1686  0.1757
29658W        W45127   9.097   5.817  14.432  0.0697  0.2329  0.1455
29659W        W45128  13.292   0.837  13.920 -0.0901 -0.0086  0.1741
29660W        W45129  14.862   4.131  11.403  0.3359  0.2739  0.2070
29661W        W45130   6.819  10.435  15.455  0.2030 -0.1807  0.0763
29662W        W45131   4.518   3.906   0.262 -0.1945  0.1743  0.0235
29663W        W45132   0.376  14.570  12.562  0.0695 -0.0118  0.0991
29664W        W45133  15.102  13.098  14.125  0.2887 -0.2366  0.0629
29665W        W45134   4.104  14.341  13.452 -0.2821  0.4862  0.1734
29666W        W45135  15.182  15.706   1.663 -0.0838 -0.0447  0.2426
29667W        W45136   3.908  17.267  14.555 -0.1550 -0.0667 -0.1820
29668W        W45137  12.032  14.284   2.538 -0.0667 -0.0886  0.2461
29669W        W45138   4.728   3.664   4.051  0.1325  0.1695 -0.2252
29670W        W45139   7.093  12.597  11.693  0.2148  0.0145  0.0751
29671W        W45140  13.814  14.254   2.360  0.1443  0.1774  0.0682
29672W        W45141   4.754  15.935   4.935  0.0519 -0.1779 -0.2638
29673W        W45142   4.775  14.913   1.104 -0.0738 -0.1057 -0.1615
29674W        W45143   8.836  10.388   1.840 -0.0607  0.0130 -0.2872
29675W        W45144   0.105  14.636  13.022 -0.1252  0.3923  0.0249
29676W        W45145  11.354  13.752   0.563 -0.1535  0.1840 -0.0047
29677W        W45146   2.787   7.795  11.183  0.2193 -0.0121 -0.1868
29678W        W45147   9.365   6.899   3.219  0.3097 -0.0710 -0.0618
29679W        W45148  17.187   0.734   4.341  0.1926 -0.2329 -0.0800
29680W        W45149   0.566  12.276   0.279  0.4119 -0.0849  0.1205
29681W        W45150   5.975   9.429  13.730 -0.0600 -0.0864 -0.3273
29682W        W45151   0.189  18.424  13.515 -0.5332 -0.0878 -0.3786
29683W        W45152   9.430  15.960   2.454 -0.0660 -0.0215 -0.0340
29684W        W45153  17.252   2.563  11.933 -0.0708  0.1494  0.2974
29685W        W45154   4.631   6.466  13.721  0.3063  0.0191  0.1807
29686W        W45155   1.625   1.242  13.664 -0.0770 -0.2008  0.3736
29687W        W45156  14.922  14.945  13.386 -0.2558  0.0025  0.2413
29688W        W45157  16.955   7.463   9.284 -0.0260 -0.2122 -0.1429
29689W        W45158   8.552   1.569   0.567  0.2694 -0.5302 -0.1399
29690W        W45159  18.176   6.963  12.296  0.0809  0.0922 -0.0920
29691W        W45160   8.940  18.935   3.479  0.3615 -0.0784 -0.0455
29692W        W45161  16.678   0.629   4.114  0.1712  0.1542  0.1296
29693W        W45162  13.709   2.429   4.238  0.1692 -0.4394  0.0460
29694W        W45163   3.857   2.808   3.183 -0.0855 -0.2605 -0.5258
29695W        W45164  13.520   7.690   3.747 -0.3631 -0.0389 -0.1179
29696W        W45165   4.690  10.383   2.462  0.0050 -0.4301 -0.1228
29697W        W45166   3.980  14.469   0.639  0.1547  0.0690  0.2299
29698W        W45167  17.011  17.227   0.130  0.3521 -0.0759  0.0991
29699W        W45168   9.838   9.505  14.844 -0.0668 -0.0359  0.1891
29700W        W45169   4.449   1.673   2.907 -0.0086  0.1505  0.1093
29701W        W45170  16.827   2.346  10.603  0.1457 -0.0646 -0.0290
29702W        W45171  17.220   9.128   3.328  0.2466  0.3298  0.1866
29703W        W45172   7.201  13.942   1.770 -0.2395 -0.1425  0.2346
29704W        W45173   3.323  12.878   3.232  0.2180  0.1694 -0.1763
29705W        W45174   2.479  12.141  14.418  0.2550 -0.2910  0.2588
29706W        W45175  14.983   9.563  15.030  0.1555 -0.0174  0.2240
29707W        W45176   1.255  11.481   0.509 -0.1602  0.2251 -0.1652
29708W        W45177   7.672   0.817   4.189  0.2360  0.0744  0.0587
29709W        W45178   7.641  14.130   3.742 -0.0087 -0.5494 -0.0250
29710W        W45179  16.351  14.671  11.254  0.0527 -0.0464  0.0867
29711W        W45180   7.848   7.841   2.691  0.0202 -0.3678  0.2665
29712W        W45181  13.738   7.064  14.577 -0.0383  0.3083 -0.0850
29713W        W45182   4.913  15.975   1.296  0.0538 -0.0324 -0.1120
29714W        W45183  11.784  11.927   0.657 -0.1012  0.0567 -0.0307
29715W        W45184   4.049   5.929   2.450  0.2788 -0.5071  0.3070
29716W        W45185  18.753   0.402  13.231  0.4795  0.0967  0.2157
29717W        W45186   2.222   0.479   4.571  0.0003  0.2664  0.0075
29718W        W45187   0.293  14.254   3.242  0.2990  0.4058  0.1659
29719W        W45188  18.568  11.184  11.412 -0.0967  0.4817 -0.0744
29720W        W45189  14.401   0.572  14.545  0.0899 -0.1814 -0.1686
29721W        W45190  18.681  13.734   1.591  0.1269  0.1352 -0.0615
29722W        W45191   1.069  11.480   5.401 -0.2071  0.1714  0.4058
29723W        W45192  17.215   3.145  12.248 -0.0212 -0.1148  0.1616
29724W        W45193   6.025  11.073   1.370 -0.2412  0.3769  0.1736
29725W        W45194   6.012  14.929  14.524 -0.2270  0.0732 -0.2532
29726W        W45195  18.203   3.087  10.721 -0.0372 -0.3300  0.2372
29727W        W45196  12.156   1.191  15.157 -0.2774 -0.0418 -0.1719
29728W        W45197  17.077  12.121  14.407 -0.0307  0.0801 -0.0770
29729W        W45198  11.286  13.821  13.366 -0.0931  0.0732  0.3649
29730W        W45199   4.104   5.470   1.018  0.0510  0.0441  0.0384
29731W        W45200   0.356   7.151  12.622 -0.2115 -0.4052 -0.2350
29732W        W45201  14.359   5.308  12.599 -0.1498 -0.0642 -0.0355
29733W        W45202   2.278  13.816   4.711 -0.3421  0.0505  0.3317
29734W        W45203  11.566  17.077  11.429 -0.0070  0.1537 -0.1330
29735W        W45204   8.658   1.251  12.434 -0.0225  0.2412 -0.2663
29736W        W45205   6.228   6.092  12.484 -0.1963 -0.3022  0.0734
29737W        W45206  15.581   0.685   0.122 -0.3175 -0.3553 -0.4450
29738W        W45207  14.895   8.700   1.644  0.0933 -0.3609 -0.0920
29739W        W45208   8.109  11.258  11.386 -0.1984  0.0577  0.2578
29740W        W45209   6.779  16.689   2.315  0.1505 -0.0140 -0.1158
29741W        W45210  16.874   4.615   3.445 -0.0719  0.2195  0.0861
29742W        W45211   5.806   5.850   0.779 -0.1827 -0.2154 -0.3265
29743W        W45212   3.976   8.329  13.749 -0.3170 -0.1456 -0.2429
29744W        W45213  12.636  13.503   4.904 -0.0278  0.1810 -0.0957
29745W        W45214  17.922   7.733   2.977 -0.3623 -0.2457  0.0564
29746W        W45215   5.047   0.023   3.653 -0.0800  0.2534 -0.2282
29747W        W45216   7.865   6.084  14.265 -0.0968  0.3296 -0.0142
29748W        W45217  13.260  14.447   1.811  0.1460 -0.0019  0.0454
29749W        W45218  11.210  17.965  13.012 -0.3102  0.1430 -0.1873
29750W        W45219   6.058   1.644  14.519 -0.2040 -0.0408  0.2623
29751W        W45220  18.350  14.994  14.079 -0.2362 -0.0344  0.1700
29752W        W45221   8.923   6.477  10.858  0.1375 -0.4451 -0.0138
29753W        W45222   2.447  11.208  12.403 -0.0150 -0.0296 -0.0616
29754W        W45223   6.047  15.503  11.754 -0.2758 -0.0082  0.0745
29755W        W45224  12.779   9.086   2.117 -0.0548  0.0657  0.3265
29756W        W45225  11.959   0.449  12.517 -0.2274  0.0753 -0.0272
29757W        W45226   2.588   8.607   2.193 -0.2914 -0.1550  0.3006
29758W        W45227   3.165  10.344   2.698  0.3598  0.2529  0.0824
29759W        W45228  13.003  11.021   4.264  0.2891 -0.2574  0.1002
29760W        W45229  17.640  11.610  12.135  0.0251 -0.2562  0.1528
29761W        W45230   0.771   8.518  11.593 -0.0015  0.1355 -0.1113
29762W        W45231  15.934   4.316   4.274  0.1108  0.1596 -0.1210
29763W        W45232  11.129   7.598   9.950 -0.0124  0.0158  0.5263
29764W        W45233   3.689  18.913  14.857  0.0774  0.2986  0.1444
29765W        W45234   6.608   6.445  12.221  0.1476  0.2216 -0.1006
29766W        W45235  14.867  13.939   0.192 -0.0515 -0.0338  0.3311
29767W        W45236   1.293   4.291   1.835 -0.1378  0.1476  0.3618
29768W        W45237   9.382   3.638   1.231 -0.1845 -0.0542  0.2084
29769W        W45238  11.882  14.017  12.802  0.2584  0.1954  0.0854
29770W        W45239   5.639   7.452  12.649 -0.0773  0.2496  0.1010
29771W        W45240  14.320   1.117   2.708  0.2257  0.2030  0.3199
29772W        W45241   6.095   3.385   0.715 -0.1042 -0.2074  0.2848
29773W        W45242  15.059   4.462  10.439 -0.4673  0.0377  0.1032
29774W        W45243   7.403  11.196  10.377  0.5461 -0.3309  0.0282
29775W        W45244  16.471   0.458   0.080 -0.0444  0.3909  0.0271
29776W        W45245   8.078  16.418  11.530 -0.0928  0.0480  0.2107
29777W        W45246  10.949   4.691  14.041 -0.1702 -0.0047 -0.0080
29778W        W45247   2.299  16.934  15.425 -0.0713  0.1361 -0.0923
29779W        W45248  13.214  12.111   1.150 -0.1238  0.1808  0.0206
29780W        W45249   4.441  13.996   2.728 -0.1160 -0.1106  0.0045
29781W        W45250   3.648   9.549  12.487  0.0000 -0.0355 -0.1806
29782W        W45251   6.558  12.149   5.553 -0.1382 -0.0285 -0.2595
29783W        W45252   0.801   5.104   3.477 -0.0283  0.0474 -0.2967
29784W        W45253   0.506   9.826  11.478  0.1080 -0.1030 -0.1911
29785W        W45254   8.771   1.452  11.906  0.2392 -0.3079  0.0321
29786W        W45255   7.744  13.020  14.122 -0.0894  0.2882 -0.0091
29787W        W45256   5.478  12.580  10.418  0.4157  0.1537 -0.2598
29788W        W45257  11.143   5.579   3.858 -0.0264 -0.1955 -0.0855
29789W        W45258  17.324   4.851   4.596 -0.0286 -0.3052  0.0783
29790W        W45259  11.026   0.332   0.095 -0.1687  0.1061  0.3490
29791W        W45260  17.249  13.218  13.604  0.1407  0.0053  0.1357
29792W        W45261  10.137  16.292  14.389  0.0002  0.1038  0.2212
29793W        W45262  17.280   0.324   5.356  0.1005 -0.1062  0.2889
29794W        W45263  11.658  16.085   1.660  0.0425  0.0106  0.0423
29795W        W45264  12.527   8.381  14.815  0.0017 -0.1960  0.0584
29796W        W45265   4.381  13.108  14.482  0.1705  0.0682 -0.0059
29797W        W45266  11.963  15.094   1.551  0.1881  0.0747 -0.1663
29798W        W45267   8.224  10.754  12.447  0.1867  0.0303 -0.0938
29799W        W45268  11.821   3.473   1.529 -0.2361  0.2618  0.3511
29800W        W45269   2.971  11.819  15.246  0.1821  0.0699 -0.0862
29801W        W45270  14.894  12.539   4.964  0.0023  0.1543 -0.0861
29802W        W45271   8.276  18.162  14.023  0.0784 -0.1660 -0.0368
29803W        W45272   3.417  17.768   3.909 -0.0542  0.1457 -0.0082
29804W        W45273  11.669  13.188  10.006 -0.3706  0.0081  0.0421
29805W        W45274  13.130  16.694  12.443  0.3486  0.0359  0.3191
29806W        W45275  11.448  15.257   4.077  0.2855  0.1534  0.1137
29807W        W45276  18.530   8.750   1.601  0.0209 -0.0684 -0.1501
29808W        W45277   7.840  11.743   5.218  0.1211 -0.0544  0.0471
29809W        W45278   2.386   4.472  14.345 -0.1018 -0.1706  0.1396
29810W        W45279  13.279  12.481   2.003  0.0563  0.2572 -0.1704
29811W        W45280   8.386  10.497   4.238  0.0511 -0.2162  0.0598
29812W        W45281  12.059  18.884   1.387 -0.5841  0.0535  0.1356
29813W        W45282   9.202   7.759  12.169  0.4649 -0.1657 -0.1290
29814W        W45283   8.446   4.579  11.528 -0.3502 -0.1314  0.0792
29815W        W45284  18.598   7.549   1.558 -0.0078  0.1957 -0.0407
29816W        W45285   6.056   6.171   4.953  0.0528  0.0123 -0.1216
29817W        W45286   3.278   3.428   4.138 -0.2000  0.3120 -0.0946
29818W        W45287  14.076  11.273   3.252 -0.0675  0.3161 -0.4643
29819W        W45288  12.777   7.595  12.054 -0.1820  0.0090  0.5659
29820W        W45289  10.223  12.926  15.236  0.1302 -0.1065  0.0632
29821W        W45290  17.180   8.976  13.964  0.2098 -0.1002  0.2778
29822W        W45291   2.671   3.060   1.730 -0.0177 -0.2855  0.0087
29823W        W45292   6.696   2.893   5.074 -0.0570  0.1034  0.3655
29824W        W45293   5.332   0.888   2.030 -0.1730 -0.0095  0.1158
29825W        W45294   4.495   5.476  11.075 -0.2345  0.1426 -0.0927
29826W        W45295   2.796   2.420  12.193  0.0423 -0.0222 -0.2157
29827W        W45296   5.690  12.388   3.525  0.3267 -0.2041  0.1748
29828W        W45297  16.543  16.404  11.136  0.2061 -0.4004 -0.0781
29829W        W45298  16.751  13.528  11.871 -0.2705 -0.0715  0.1534
29830W        W45299   9.521   3.963  15.131  0.1017  0.1563 -0.0303
29831W        W45300  15.960  11.816  11.379 -0.3313  0.0883  0.1150
29832W        W45301  10.915  12.581   2.335 -0.1633  0.2438  0.0736
29833W        W45302   0.725   5.979  13.990  0.0111 -0.2785 -0.1418
29834W        W45303  16.990  15.721   1.437  0.2534 -0.1743  0.1020
29835W        W45304  10.685  10.159   0.042  0.1064  0.4675 -0.1063
29836W        W45305  14.507   8.218  14.790 -0.1958 -0.2496  0.0657
29837W        W45306  12.809  18.205  10.702  0.0232  0.1206 -0.4593
29838W        W45307   3.914   0.619   4.731 -0.0289  0.1163 -0.3340
29839W        W45308   9.713  11.996   4.648  0.0127 -0.2892  0.1451
29840W        W45309   1.537  11.772  11.559  0.0948 -0.1182  0.3145
29841W        W45310   2.626  15.575   1.203  0.1385 -0.4270  0.3405
29842W        W45311   2.984   9.440   4.872 -0.3035 -0.2753  0.2091
29843W        W45312  16.757   7.846   4.669 -0.0380  0.1542 -0.0599
29844W        W45313   5.319   4.044   1.606  0.0239 -0.0161 -0.1910
29845W        W45314   4.027  12.037  14.756  0.1046 -0.1667 -0.4523
29846W        W45315  10.710  15.440  13.720 -0.0435 -0.2792 -0.1258
29847W        W45316  10.002   3.160  11.962  0.0294  0.1293  0.0423
29848W        W45317   5.517  10.557   0.965 -0.2065  0.0056 -0.1129
29849W        W45318  12.073   6.118   1.022  0.2587  0.1738  0.1775
29850W        W45319  14.481  10.615   1.326  0.0993 -0.1852 -0.0376
29851W        W45320   0.798   9.177  14.897 -0.2596  0.0639 -0.0448
29852W        W45321  16.167   6.939   4.731 -0.0660 -0.3086  0.0407
29853W        W45322   5.595   5.135   0.126  0.1010 -0.0971 -0.0390
29854W        W45323  13.545  10.723  12.956  0.0074  0.2697  0.0128
29855W        W45324   0.798   3.539   2.535  0.0440 -0.2989  0.1070
29856W        W45325  13.247   9.787  10.866 -0.3258 -0.2226 -0.3342
29857W        W45326  17.995  12.055   1.757 -0.2552  0.0759 -0.0240
29858W        W45327  11.913   3.645  10.863 -0.0873  0.0219 -0.1028
29859W        W45328   9.312  16.977  15.006  0.0483 -0.1800  0.1806
29860W        W45329   7.464   6.849  14.716  0.1041  0.0772  0.0378
29861W        W45330   9.713  10.165  12.931 -0.1898 -0.1788  0.0303
29862W        W45331  16.539  12.130   3.346 -0.0236 -0.2061  0.1351
29863W        W45332  14.223   6.758  13.083  0.0590 -0.0183  0.1619
29864W        W45333   1.855   6.092   0.478  0.0045  0.0932 -0.1080
29865W        W45334  12.836   8.202  11.754  0.0309  0.0141 -0.2040
29866W        W45335  13.536   2.551  12.712  0.0753  0.3424 -0.0826
29867W        W45336  15.431  13.456  15.075  0.1570 -0.1758  0.0102
29868W        W45337  12.981  10.584  13.190  0.1137 -0.0530  0.1326
29869W        W45338   5.727   4.949  10.546 -0.1735  0.1469  0.0211
29870W        W45339   8.032   7.412  15.209 -0.2264  0.1947 -0.0313
29871W        W45340   7.748   9.398  13.765 -0.2895  0.5650  0.4483
29872W        W45341  10.944  15.930  13.983 -0.0838  0.1894 -0.2541
29873W        W45342   6.982  16.896   5.983  0.1499  0.0983  0.2868
29874W        W45343  17.136   7.705   0.323 -0.1248 -0.0291  0.0315
29875W        W45344   0.160   3.384  14.012  0.1448  0.4061  0.0977
29876W        W45345  12.425   2.339  14.543 -0.2770  0.0140  0.0116
29877W        W45346   7.662  12.401  12.557  0.2114  0.2810 -0.1078
29878W        W45347  15.282  13.603  13.102  0.5138 -0.2228 -0.1852
29879W        W45348  10.022   1.208   4.195  0.2444 -0.0134 -0.3510
29880W        W45349   1.390  14.684   0.051 -0.0345 -0.0917 -0.4391
29881W        W45350   6.066   4.636   3.880 -0.1160 -0.4468 -0.0529
29882W        W45351  11.141   1.729  14.311  0.1890  0.2868  0.0515
29883W        W45352   0.011   7.091   5.372 -0.0956 -0.1596 -0.4446
29884W        W45353  16.793   0.110  15.184 -0.1461 -0.2390  0.0006
29885W        W45354   3.497  11.909  12.841  0.0412 -0.2796 -0.1739
29886W        W45355   3.070  11.394  13.162  0.1026 -0.0753 -0.1826
29887W        W45356   2.357   9.050   2.692  0.1586 -0.2109  0.2217
29888W        W45357  16.580   7.077   1.761 -0.0429 -0.2025 -0.0725
29889W        W45358   8.559   7.358   3.824  0.2483  0.0906 -0.1691
29890W        W45359  15.462   7.446  12.804  0.0407 -0.0608  0.1660
29891W        W45360  16.053  12.028   4.471 -0.1728 -0.2745 -0.2162
29892W        W45361   5.268   3.859  12.830 -0.0187  0.1514  0.2042
29893W        W45362   7.907  13.207   1.350 -0.0019  0.1822 -0.3006
29894W        W45363  15.906  17.160  14.582  0.3103  0.2443 -0.3161
29895W        W45364   0.622  14.946  13.580 -0.1538 -0.4233  0.2920
29896W        W45365   1.562  18.351  12.945 -0.3085  0.3955 -0.1557
29897W        W45366  16.600   1.309   9.736  0.0761 -0.0025  0.2064
29898W        W45367  16.518  16.191  10.043  0.0709 -0.1351  0.2721
29899W        W45368   8.288   7.757  13.633  0.4874  0.1310 -0.0993
29900W        W45369   6.012   3.421   4.573 -0.3045 -0.1616 -0.1277
29901W        W45370   7.207   3.514   1.932  0.1428  0.0251 -0.1820
29902W        W45371   2.939  11.091  15.361  0.0785  0.0198 -0.0371
29903W        W45372   3.332  10.762  11.579 -0.2973  0.0097  0.2640
29904W        W45373   5.992   9.393  10.708  0.2162 -0.0949  0.3185
29905W        W45374  15.130   1.236   0.891  0.0590  0.0660  0.4031
29906W        W45375  15.394   6.599   5.189 -0.0579  0.1886 -0.0959
29907W        W45376   3.306   8.766  14.085 -0.1293 -0.0951  0.2315
29908W        W45377   2.956   7.557  12.571  0.1613 -0.0542 -0.1973
29909W        W45378   2.040  18.209  12.914  0.2496  0.1721  0.1330
29910W        W45379   1.378  11.363  15.050  0.1290 -0.2352 -0.3525
29911W        W45380  16.470   6.260  11.443 -0.1473  0.3281  0.0689
29912W        W45381  16.183  17.071   2.607  0.0004 -0.0928 -0.1183
29913W        W45382   8.000  14.022  13.013 -0.0950  0.0997 -0.0003
29914W        W45383  14.125   8.720   3.113 -0.0993 -0.3825  0.0137
29915W        W45384  14.137   9.162   4.671 -0.2235 -0.1452 -0.0271
29916W        W45385  16.211  13.018   1.293  0.0474 -0.1917  0.1294
29917W        W45386  17.068   6.099   3.378  0.0110  0.2528  0.3991
29918W        W45387  16.553  17.106   1.836  0.2187 -0.2384 -0.2077
29919W        W45388   7.407  17.387  15.290  0.0728 -0.0261  0.0372
29920W        W45389   6.040   1.152  11.979 -0.3537  0.2163  0.2118
29921W        W45390   0.332   3.429  13.058  0.1301  0.0188  0.1700
29922W        W45391   2.537  11.425  10.065  0.0327  0.6314  0.2567
29923W        W45392  16.722   5.252  10.933 -0.0803  0.1244 -0.0800
29924W        W45393   2.535   2.872   2.707 -0.1525 -0.2120  0.2235
29925W        W45394  14.189  12.414   1.343 -0.0815 -0.0134  0.0080
29926W        W45395   0.575  10.521   5.278  0.0407 -0.1970 -0.3005
29927W        W45396   8.128   4.575  12.298  0.0548 -0.0345 -0.4171
29928W        W45397   7.219   8.184   2.410  0.0368  0.1110  0.2592
29929W        W45398  14.728  11.883  13.979 -0.1281  0.3187  0.3410
29930W        W45399  18.041  12.243  13.014  0.1587 -0.1738  0.2833
29931W        W45400  11.412  18.830  11.896 -0.2519 -0.1594 -0.1782
29932W        W45401  14.496   4.567   4.637  0.1192 -0.0683  0.1755
29933W        W45402   4.270  14.248   4.724 -0.0309  0.3972  0.0069
29934W        W45403   7.653   0.694  13.461  0.5637  0.1006  0.1153
29935W        W45404  14.515   7.336  15.244  0.1629  0.1079  0.0767
29936W        W45405   2.963   5.566   3.243 -0.1506  0.0920 -0.0530
29937W        W45406  15.170   9.633  13.676  0.2357  0.0285 -0.0426
29938W        W45407   5.504  15.691  12.506 -0.4361  0.0840  0.0420
29939W        W45408   4.366  18.365  13.337  0.0500  0.1743  0.1563
29940W        W45409   0.082   2.888   0.034  0.0248 -0.0505 -0.4350
29941W        W45410  15.060  12.575  11.827 -0.1333 -0.2100 -0.1412
29942W        W45411  12.478   5.412  10.091 -0.0001 -0.1608 -0.0675
29943W        W45412  13.702  17.573  11.825 -0.0741 -0.2002 -0.3523
29944W        W45413   0.886  13.916   2.284  0.2110 -0.1516  0.0237
29945W        W45414   7.938   3.017   0.269  0.3094  0.1869 -0.1510
29946W        W45415   0.840   3.500  11.589 -0.0506 -0.0448  0.0718
29947W        W45416   4.919  10.219  15.474 -0.2224 -0.0368  0.0088
29948W        W45417  18.430   4.470   2.889 -0.0194  0.2211 -0.3945
29949W        W45418  11.223   8.232   1.335  0.0792  0.1679  0.3078
29950W        W45419   5.523  14.101   0.211 -0.1637 -0.2771  0.1847
29951W        W45420  15.119  17.282  14.369 -0.2354  0.0402  0.0300
29952W        W45421  10.132   8.928   4.103 -0.1455  0.0397  0.2238
29953W        W45422  16.781   2.477  11.103  0.2013 -0.1507  0.2072
29954W        W45423   2.138  16.132  15.135  0.5842 -0.0382  0.3649
29955W        W45424   5.011  12.105  12.882 -0.2176  0.1680  0.1488
29956W        W45425  11.227   3.859  14.750 -0.3020  0.0418 -0.1785
29957W        W45426  15.082  16.394   0.271  0.0715 -0.1651 -0.0857
29958W        W45427  15.314  12.789  13.754  0.4440  0.0493 -0.0209
29959W        W45428   2.507   4.325   4.954  0.3444 -0.0356 -0.1866
29960W        W45429  18.927   3.185  11.361  0.0108  0.2473 -0.1575
29961W        W45430  10.903   8.271  13.505  0.1217 -0.1804  0.0889
29962W        W45431  10.937  11.090   2.844 -0.1098 -0.0640  0.1715
29963W        W45432   8.614  14.029   3.389  0.2222  0.2984  0.1720
29964W        W45433   5.810  15.206  15.011  0.5352  0.1404 -0.1244
29965W        W45434   8.669   0.002   1.524 -0.4328  0.0625 -0.1568
29966W        W45435   5.588   6.559   1.969  0.3823 -0.0427  0.0430
29967W        W45436   2.815  17.480   5.546 -0.1770 -0.0633  0.6280
29968W        W45437  13.052  13.130   0.169  0.0336  0.0932 -0.3583
29969W        W45438   7.295   1.665   4.209 -0.4844  0.0359  0.2095
29970W        W45439  15.044   8.797   4.497  0.0991 -0.2865 -0.3717
29971W        W45440   3.032   7.112  13.676  0.0278 -0.1581  0.3862
29972W        W45441  13.397   5.741  11.146  0.0286 -0.0575 -0.1762
29973W        W45442  14.643  13.236  12.441  0.0200 -0.4710  0.0942
29974W        W45443   4.297  17.679  15.337 -0.0612 -0.0310 -0.3117
29975W        W45444   7.651  12.923  12.412 -0.0067 -0.1926  0.0794
29976W        W45445  10.420   5.955  12.523  0.1816 -0.2214  0.2405
29977W        W45446   5.008   1.582   3.572 -0.2628  0.0151 -0.0136
29978W        W45447   7.115   8.314  12.583 -0.1180 -0.4908  0.0253
29979W        W45448   2.814  17.165   1.100  0.1581  0.2931 -0.2467
29980W        W45449   8.486   0.944  12.897  0.0990  0.1155  0.2974
29981W        W45450  10.427   4.820   2.437 -0.0205 -0.5684  0.2249
29982W        W45451   8.333   3.578   2.963  0.2034 -0.2825  0.1155
29983W        W45452  10.198   5.232  10.517 -0.3350  0.1131 -0.0842
29984W        W45453   8.539  14.376   1.599 -0.1156  0.2116 -0.3822
29985W        W45454   2.552   8.419   1.697 -0.1514  0.1981 -0.2832
29986W        W45455  15.538   9.834  12.846  0.0056 -0.2293 -0.3481
29987W        W45456  17.824   4.852  14.504 -0.0032  0.2343 -0.2735
29988W        W45457   3.338  18.126  15.236  0.1910  0.0896 -0.0812
29989W        W45458   1.608  13.483   1.808 -0.2197  0.2296  0.0106
29990W        W45459  13.124   4.535   1.726 -0.0903  0.0334  0.0332
29991W        W45460  10.449  11.417   2.961 -0.0921  0.0114 -0.0922
29992W        W45461  13.762   1.391  11.967  0.1366  0.3620  0.3077
29993W        W45462  17.823  13.125  13.608  0.0419  0.5605  0.0689
29994W        W45463  13.421   5.793   2.374  0.1716 -0.0945 -0.0032
29995W        W45464   8.032  13.418   9.835  0.1397 -0.1230  0.3338
29996W        W45465   3.017   2.227   5.773  0.1030 -0.1389 -0.0433
29997W        W45466   3.890  17.126  11.622 -0.0925  0.1186  0.0760
29998W        W45467   0.330  17.572  13.546  0.0310 -0.0613 -0.3455
29999W        W45468   1.776   8.569   5.031  0.2428  0.0322  0.0148
30000W        W45469   8.489   2.821  13.523 -0.2715  0.1346  0.1544
30001W        W45470  14.125  17.080   4.002  0.1826 -0.1305  0.0530
30002W        W45471   7.882   6.957   3.215  0.2705  0.0282  0.0173
30003W        W45472  17.169   9.800  15.213 -0.2115  0.1670  0.0682
30004W        W45473   8.795  11.207  11.425  0.3174  0.0535  0.1787
30005W        W45474  13.010  13.681   2.159 -0.0694 -0.4180  0.1869
30006W        W45475  16.226   9.696  12.313 -0.0593 -0.1235 -0.1027
30007W        W45476   8.414   3.868   1.835  0.0495 -0.2780 -0.1201
30008W        W45477  12.128   8.227  14.517  0.0199 -0.3894 -0.1930
30009W        W45478   3.773   5.917   2.006 -0.0369 -0.0668 -0.2336
30010W        W45479  14.419   8.876  15.427  0.2035 -0.0147  0.0185
30011W        W45480  10.592  13.576   4.718 -0.2077 -0.1442 -0.1436
30012W        W45481   5.852  18.176   3.106  0.1022 -0.2315  0.3268
30013W        W45482   1.570   4.683  15.331 -0.0087 -0.1855 -0.0122
30014W        W45483  15.436  12.519  14.776  0.3067 -0.2289  0.2018
30015W        W45484  13.400  18.016  14.302  0.1740  0.0504  0.0476
30016W        W45485  18.000  11.390   0.252  0.5597 -0.0291 -0.0768
30017W        W45486  17.215  10.876   9.954  0.1215 -0.0840 -0.0984
30018W        W45487  15.348   4.954  13.042 -0.0337 -0.0469 -0.2194
30019W        W45488   5.369   2.344   4.725  0.2131 -0.3859  0.2149
30020W        W45489  13.062  14.064   3.725  0.2201  0.1549  0.4142
30021W        W45490   5.553  16.460  13.829  0.0661 -0.0106  0.2685
30022W        W45491  16.438  11.253   5.886  0.0022  0.0736 -0.2450
30023W        W45492   4.896  11.127  14.095 -0.2583 -0.0526  0.1128
30024W        W45493   7.852   9.609  14.614 -0.1211  0.2412 -0.2926
30025W        W45494   9.981   3.039  12.463  0.1154  0.2024 -0.1867
30026W        W45495  17.747  17.165   1.770 -0.0285  0.2897 -0.0746
30027W        W45496  11.747  10.141  12.286 -0.0067  0.1562  0.3471
30028W        W45497   3.673   8.692   3.029 -0.1589  0.0016 -0.0374
30029W        W45498  14.888   1.862  15.394 -0.1261  0.2544  0.1268
30030W        W45499   3.044  12.923   3.679  0.2023 -0.0517  0.1554
30031W        W45500   4.707  12.647   4.778  0.1602  0.3739 -0.1137
30032W        W45501  10.633   4.396   1.061  0.1980  0.1728  0.1257
30033W        W45502  17.856  10.956   4.941  0.3587  0.0665 -0.1310
30034W        W45503   3.244  13.597   0.942  0.0301  0.0609 -0.1979
30035W        W45504  11.316   8.229   1.917 -0.0817 -0.1488 -0.0210
30036W        W45505   7.233  11.732   0.348  0.2291 -0.0247  0.0118
30037W        W45506  18.602  16.860   2.902  0.0858 -0.0297  0.1034
30038W        W45507   2.211   6.466  12.880 -0.0826 -0.1072 -0.2602
30039W        W45508   2.788  10.898  13.116 -0.0190  0.1079  0.0909
30040W        W45509   0.197   8.231  14.861  0.2963  0.0365 -0.0377
30041W        W45510  12.499  13.942   1.468  0.0805 -0.0161 -0.0918
30042W        W45511   5.803   9.189   0.440 -0.2635 -0.3290  0.1858
30043W        W45512  17.886  13.491   5.787  0.1921  0.1003 -0.0571
30044W        W45513   0.903  16.317  14.312 -0.0880  0.1013 -0.2570
30045W        W45514  15.444  18.361  15.415  0.0762  0.1007  0.0096
30046W        W45515  15.347  14.219   3.126  0.0729  0.1251 -0.3633
30047W        W45516  12.228  15.963   1.890 -0.0844 -0.4125  0.3361
30048W        W45517   1.371  15.254   3.670 -0.2990  0.2602 -0.0855
30049W        W45518   4.630   9.765  11.417 -0.0174  0.2337 -0.0741
30050W        W45519   4.808   3.728   3.535  0.0330 -0.2540  0.0126
30051W        W45520  14.958   9.742  11.167 -0.1445 -0.1164  0.0620
30052W        W45521   6.044  16.163   1.919 -0.2938 -0.4264 -0.1528
30053W        W45522   9.586  13.311   0.936 -0.5310 -0.1501 -0.0115
30054W        W45523   9.186  12.917   4.961 -0.1727  0.2028 -0.0517
30055W        W45524  15.293  13.281   1.621  0.2703 -0.2761 -0.3236
30056W        W45525  10.113   6.421  14.860  0.3411  0.0586  0.0106
30057W        W45526  13.658  14.833  13.013 -0.0521  0.1764  0.1454
30058W        W45527  12.889   8.531  13.564 -0.1689 -0.2148  0.3766
30059W        W45528  17.534  11.647   9.578 -0.2078  0.0116  0.3999
30060W        W45529  12.386  13.964  12.878 -0.1319 -0.3005 -0.1280
30061W        W45530   8.524   8.670  11.863  0.0790  0.1269  0.1912
30062W        W45531   0.686   1.649   2.861  0.1919  0.1658 -0.1791
30063W        W45532  13.129  14.651   4.584 -0.1210  0.1187  0.0127
30064W        W45533  14.252   2.848  11.134 -0.0877 -0.1919  0.1014
30065W        W45534   0.924  15.219  13.895  0.1153 -0.1702  0.0824
30066W        W45535   0.188  10.937  14.312  0.0767  0.0683  0.1437
30067W        W45536  11.270  18.520   3.640  0.1156 -0.4908  0.0593
30068W        W45537   8.388  18.811   5.618  0.0336 -0.0627  0.0610
30069W        W45538  12.483   4.056  13.946  0.1930  0.0512 -0.1527
30070W        W45539  15.305  11.506   5.061 -0.2247  0.0510 -0.1260
30071W        W45540   0.441  18.633   1.555  0.1024  0.3354  0.0046
30072W        W45541  15.091  12.538  13.384 -0.0049 -0.0844  0.0140
30073W        W45542   7.658   2.989  13.358 -0.3283 -0.3376 -0.0740
30074W        W45543   4.195   2.107   3.517 -0.0538 -0.3784 -0.1591
30075W        W45544   7.956   7.386  14.019 -0.0948 -0.3014  0.0150
30076W        W45545   4.555  10.892   3.752  0.0447  0.1228 -0.1629
30077W        W45546  10.608  16.926  11.441 -0.2376 -0.2687  0.2144
30078W        W45547  18.749  10.035   4.793  0.1366 -0.1622 -0.4521
30079W        W45548   9.496   3.064   2.120  0.2356 -0.1065  0.0027
30080W        W45549   4.273  15.764  12.200 -0.1600 -0.0308 -0.1661
30081W        W45550   7.746   8.287   1.590  0.2759  0.3227  0.1247
30082W        W45551   0.619  12.775   4.442  0.1926  0.0662  0.0906
30083W        W45552   2.967  10.404   0.753  0.0688  0.2037  0.0677
30084W        W45553  12.217   4.045   5.258 -0.0778 -0.6355  0.0358
30085W        W45554   6.730   5.806   3.933 -0.2126  0.0849 -0.2921
30086W        W45555   1.976   5.014  10.615 -0.3554 -0.3704  0.4238
30087W        W45556  14.984   1.973   1.492 -0.0634  0.0309 -0.2034
30088W        W45557   4.879  17.742   0.974  0.2262  0.2292 -0.2519
30089W        W45558  11.485   7.894  11.075 -0.5038 -0.5343 -0.2055
30090W        W45559  17.339  15.931  10.557 -0.0629  0.1108  0.1234
30091W        W45560  18.290   7.004   2.327  0.0811 -0.0666  0.0626
30092W        W45561  14.497  16.787  13.822 -0.0224 -0.3633  0.3070
30093W        W45562   3.338   3.030  13.808 -0.0460 -0.1414  0.0965
30094W        W45563   5.628  11.863   0.914  0.3746  0.0221  0.0992
30095W        W45564   2.828  16.312  14.355 -0.0357 -0.1005 -0.0681
30096W        W45565  14.848   5.376   0.644 -0.0778 -0.0812  0.0845
30097W        W45566   1.097  17.378  14.102  0.4096  0.1757 -0.0327
30098W        W45567  14.650   5.250   4.550 -0.0032 -0.1501 -0.0323
30099W        W45568  11.982  16.886   1.311 -0.3034  0.2831 -0.2523
30100W        W45569   4.429   8.423   1.836 -0.1589  0.1052 -0.2431
30101W        W45570  13.549   2.383  13.673 -0.1150  0.1110 -0.2575
30102W        W45571   4.367   1.521   2.223  0.5086 -0.2867  0.1953
30103W        W45572   9.117  16.320  13.843  0.2520 -0.0046 -0.0087
30104W        W45573   2.945  14.484  12.961  0.0066  0.1481 -0.0662
30105W        W45574   7.937  14.657  15.424 -0.1911  0.2409 -0.4895
30106W        W45575  14.492   6.031  13.645  0.0736  0.1253  0.3254
30107W        W45576  14.538  10.248  13.038 -0.0911  0.1575  0.0770
30108W        W45577   1.645   8.552  11.776 -0.0626  0.0141  0.3768
30109W        W45578   8.522   2.304   0.765 -0.1401 -0.0175 -0.2764
30110W        W45579   6.826  15.233   1.169  0.2704  0.2620  0.0956
30111W        W45580   2.024  15.331  15.508 -0.0775 -0.0703  0.0313
30112W        W45581  16.578  14.048  14.833 -0.3211 -0.2342 -0.2018
30113W        W45582   8.434   3.283  14.407  0.1227  0.1666 -0.2636
30114W        W45583  13.634   0.855   0.066 -0.2796 -0.1852  0.1809
30115W        W45584   1.565  16.625  11.723  0.1284 -0.0237  0.0604
30116W        W45585   2.197   2.101  13.552  0.0003  0.1131 -0.1287
30117W        W45586   3.409  16.423  13.009  0.1044 -0.0787  0.2231
30118W        W45587   0.578   3.471  14.175  0.1063  0.4975 -0.1413
30119W        W45588   5.277   6.421   1.166  0.1295 -0.1988  0.3134
30120W        W45589  15.792  15.777  11.913  0.0783  0.2909 -0.1669
30121W        W45590   8.391   1.785   9.761 -0.3430  0.1101  0.1926
30122W        W45591   5.252  18.801   0.932  0.2488  0.0841  0.1566
30123W        W45592   7.641   8.138   3.053 -0.1108 -0.0416  0.1445
30124W        W45593  12.169  15.867   4.845 -0.0241 -0.2799 -0.0661
30125W        W45594   1.194  16.441   1.333  0.4009  0.0325 -0.1169
30126W        W45595   0.689  15.489  13.519 -0.0195  0.0253  0.0074
30127W        W45596  18.376  11.374  13.839 -0.3925 -0.2092 -0.2998
30128W        W45597  15.179   5.945  14.780 -0.0623  0.2123  0.2199
30129W        W45598   2.103  14.162   3.398  0.4684  0.2045 -0.0990
30130W        W45599  15.858   0.619   4.954  0.0554  0.2113 -0.1614
30131W        W45600   5.644  17.800  11.256  0.0139 -0.2462 -0.0368
30132W        W45601  17.905  13.788  13.111  0.0055  0.2108 -0.3369
30133W        W45602   4.950  16.913  12.162  0.1382 -0.0859  0.1063
30134W        W45603  12.708   2.411   0.948  0.1566 -0.0927 -0.0074
30135W        W45604   6.315  14.778  11.803  0.3283 -0.2505 -0.1355
30136W        W45605   5.688  10.918  12.435  0.2158  0.0645 -0.1557
30137W        W45606   7.220   1.029   5.755  0.1789  0.0491 -0.3536
30138W        W45607   9.927   7.785   2.444 -0.2689 -0.2418  0.1090
30139W        W45608   6.855  13.855  13.441 -0.1074  0.0508 -0.1053
30140W        W45609   4.336   2.630   1.215 -0.0686  0.3032  0.2949
30141W        W45610  12.508   5.658  11.477  0.1101  0.0095  0.0999
30142W        W45611   3.272   6.699   3.573 -0.2177 -0.2206 -0.2306
30143W        W45612   6.359  15.118   0.023  0.2215 -0.0748 -0.0072
30144W        W45613   8.237  17.671   2.538  0.0202 -0.2803 -0.2316
30145W        W45614   7.013   4.817  10.734 -0.2188  0.2028  0.0662
30146W        W45615   9.398   3.969   0.834  0.1649 -0.6139 -0.1127
30147W        W45616   5.879   9.865  12.647  0.2856  0.1497 -0.2447
30148W        W45617   1.069  18.611  13.007 -0.1960 -0.1285  0.1489
30149W        W45618   5.650   2.084  10.492  0.0774  0.1878 -0.0077
30150W        W45619  12.102   6.876   1.589 -0.0438  0.2309 -0.0381
30151W        W45620   8.331  14.778  15.135  0.0254  0.3573 -0.1090
30152W        W45621  14.021   7.340  14.270  0.3836  0.3078  0.1226
30153W        W45622  11.315  18.330  12.694 -0.1948  0.2308  0.0706
30154W        W45623  16.590   5.778   0.605  0.0261  0.0527  0.1200
30155W        W45624   3.734   0.592   1.754 -0.1289 -0.2041  0.0296
30156W        W45625  12.522   9.408  11.212  0.1359 -0.2764  0.1646
30157W        W45626   9.225   1.799  10.328 -0.1992  0.3244  0.0300
30158W        W45627  13.865   5.793  14.960 -0.0211  0.2649  0.4003
30159W        W45628  14.618  14.008  12.968 -0.0021  0.0799 -0.0559
30160W        W45629  14.808  11.855   2.836 -0.3546  0.2070 -0.2619
30161W        W45630   4.358  14.798   5.031  0.2145  0.1419 -0.0393
30162W        W45631   4.277   1.935  12.323 -0.2036  0.2044  0.1920
30163W        W45632  10.797  18.496  14.086  0.0259  0.0555 -0.3055
30164W        W45633   9.158  18.015  14.196  0.1110 -0.0311  0.1841
30165W        W45634  18.301   1.266   2.520 -0.0665  0.3758  0.0026
30166W        W45635  14.250  13.233   4.032  0.2282 -0.1397 -0.2289
30167W        W45636  16.190   5.179   4.347 -0.2590 -0.2857 -0.1430
30168W        W45637  18.038   6.814  12.733  0.0528 -0.0815 -0.1457
30169W        W45638  10.965   5.907  14.992  0.4584 -0.2857  0.4871
30170W        W45639   1.852   4.285  15.334 -0.0908  0.2845 -0.1556
30171W        W45640   1.803   3.522   3.264  0.1667  0.0053 -0.0411
30172W        W45641  17.080   4.411  14.105  0.3869 -0.1139  0.0512
30173W        W45642  12.696   2.579  13.214 -0.4111  0.2209  0.0383
30174W        W45643  17.349  10.620   4.093 -0.2447  0.1556 -0.1016
30175W        W45644  16.014   0.653  12.592  0.1945 -0.0841  0.2781
30176W        W45645  11.671  11.825  13.955  0.1352 -0.3199 -0.1306
30177W        W45646   6.267  12.813   4.071 -0.1066 -0.1549 -0.3181
30178W        W45647   2.299  13.814   1.875  0.2085  0.1706 -0.1035
30179W        W45648   4.678   4.021   5.114  0.1192 -0.3316 -0.4394
30180W        W45649   4.032   5.258   1.498 -0.1147 -0.0911 -0.0570
30181W        W45650   1.492   1.081   1.978  0.0972  0.2040 -0.1938
30182W        W45651  17.615   6.574   2.618 -0.1244  0.0930 -0.0468
30183W        W45652   1.602   0.755   0.121 -0.0005 -0.6014  0.1054
30184W        W45653  18.489  15.642   1.282 -0.0419  0.0192 -0.2299
30185W        W45654  17.421   1.358  13.728 -0.0510 -0.0552 -0.0323
30186W        W45655  10.067  18.467   3.319 -0.0067 -0.3745 -0.1562
30187W        W45656   9.013   4.566   9.244 -0.3311 -0.1839  0.4535
30188W        W45657   5.302   3.528  15.185 -0.4678  0.2279 -0.0810
30189W        W45658  12.918   8.722   1.181  0.0380 -0.2598 -0.2929
30190W        W45659   5.853  12.092   1.368  0.0076 -0.1040 -0.0212
30191W        W45660   9.733  12.993  13.979  0.1553  0.0053  0.2492
30192W        W45661   5.710  10.264  10.925 -0.0076  0.0645 -0.2000
30193W        W45662  14.288   0.467  13.142 -0.1732  0.0492  0.0267
30194W        W45663   3.742   8.189  10.489  0.2235 -0.0420 -0.4414
30195W        W45664   7.393   1.381  15.274  0.1457 -0.2569 -0.1048
30196W        W45665   0.835   6.983  14.502  0.1488 -0.3597 -0.0499
30197W        W45666   8.613   7.265   2.194 -0.2174 -0.1857 -0.1730
30198W        W45667  11.276   8.367   4.988  0.1090 -0.0907  0.0542
30199W        W45668   2.767   8.280  14.326 -0.1837 -0.2510 -0.0734
30200W        W45669   4.548   0.573   2.302  0.1752 -0.1222  0.2612
30201W        W45670   8.259  15.687   6.262 -0.0543  0.2603 -0.0178
30202W        W45671  10.373  11.533   2.207 -0.1140  0.0369  0.0864
30203W        W45672  14.512   1.957  13.738  0.3003  0.1223  0.0238
30204W        W45673   4.428   5.580  14.954  0.3033  0.1286  0.3962
30205W        W45674   0.915   8.538  13.125  0.1259 -0.0009 -0.3526
30206W        W45675  10.319  18.715   1.241 -0.0715 -0.2052  0.1346
30207W        W45676  16.373  16.568  14.888 -0.0150 -0.1529 -0.1697
30208W        W45677   6.214  18.041   0.909 -0.0562  0.1620  0.3438
30209W        W45678  13.486  15.622   3.069 -0.2114  0.0899 -0.1881
30210W        W45679   0.240  15.577  13.371 -0.0645 -0.2852  0.1119
30211W        W45680   2.801  11.238  12.742  0.1406 -0.0209 -0.2779
30212W        W45681   1.629   8.172  13.488 -0.1646  0.0342 -0.0518
30213W        W45682   1.934   2.691  12.323  0.0839  0.3324  0.0073
30214W        W45683  16.908  15.825  12.912 -0.3093  0.1211 -0.3605
30215W        W45684   8.551  16.137  12.889 -0.2491 -0.1138  0.0775
30216W        W45685  10.581   6.958  13.613 -0.0215 -0.0235 -0.0104
30217W        W45686  18.205  15.204   1.240  0.3471 -0.0066 -0.0789
30218W        W45687   0.157   4.087  13.956 -0.2951 -0.0224 -0.1801
30219W        W45688  16.215   8.034  13.562  0.2594 -0.1094  0.1384
30220W        W45689  18.538   4.755   4.827 -0.3253 -0.0504  0.1920
30221W        W45690  12.938  14.188  12.609  0.4059 -0.0250 -0.1687
30222W        W45691   0.351   3.164   2.303 -0.1766  0.2930  0.3854
30223W        W45692   8.067   5.493   3.797 -0.3037  0.3093 -0.2819
30224W        W45693   2.704   6.079  15.421 -0.0878  0.0380  0.0165
30225W        W45694   4.629   7.947   0.155 -0.5320 -0.0424  0.1655
30226W        W45695   4.307  15.786  11.125 -0.2997 -0.3723 -0.2299
30227W        W45696   5.000  12.579  14.747 -0.0505 -0.3352 -0.1506
30228W        W45697   8.307   8.913   1.701  0.1294  0.0580 -0.3979
30229W        W45698  10.157  18.890   3.667  0.2077 -0.3158  0.1667
30230W        W45699   7.937  13.737  11.454  0.2226  0.4112 -0.1201
30231W        W45700   7.749   3.766  12.710  0.2476  0.1801  0.0061
30232W        W45701  16.065  17.641  10.810  0.0109  0.1273 -0.2471
30233W        W45702  12.363   0.354   5.782  0.1118 -0.1860 -0.0466
30234W        W45703  12.197   4.438  14.086 -0.3144  0.3021  0.1303
30235W        W45704   0.771  13.711   1.659  0.2108  0.2987 -0.0135
30236W        W45705   9.794   8.416   3.166 -0.0485  0.1038  0.0071
30237W        W45706   1.558   4.542   3.835  0.3558  0.0598 -0.1154
30238W        W45707  11.403   3.955   1.623  0.2219 -0.0128  0.0451
30239W        W45708  16.378   3.059  14.317 -0.2611 -0.3379  0.0981
30240W        W45709  11.131   3.452   2.352 -0.1056  0.0706 -0.3807
30241W        W45710   5.573   4.257   0.637  0.0264 -0.2138 -0.3704
30242W        W45711  13.568   9.654   4.282 -0.2643  0.1910  0.2374
30243W        W45712  16.660   0.616   0.580  0.0017 -0.0163 -0.3180
30244W        W45713   3.922   7.717   1.326  0.0082 -0.2745 -0.0616
30245W        W45714   9.448   2.800   4.196 -0.1080  0.1021  0.2048
30246W        W45715   2.528   3.622  15.218  0.0215  0.1859  0.1221
30247W        W45716   2.264  13.549   4.178 -0.0228  0.2061 -0.0656
30248W        W45717  16.992   1.142  11.370 -0.0975  0.1734  0.0512
30249W        W45718  15.912  13.995   2.586 -0.0250 -0.0816 -0.0674
30250W        W45719   8.169  18.180   1.047  0.2328  0.0517  0.2844
30251W        W45720   2.015  17.366   4.653  0.0088 -0.0401 -0.2020
30252W        W45721  16.542  11.475  14.924  0.1361 -0.2372 -0.2343
30253W        W45722  15.917  18.723   4.914  0.0047  0.1727  0.0565
30254W        W45723  11.231  13.475  11.954 -0.0854  0.1423 -0.0222
30255W        W45724   1.877   3.209  14.532  0.1875 -0.0098 -0.1353
30256W        W45725  11.061   1.679   3.482  0.1384 -0.2205  0.2156
30257W        W45726  16.914   1.278  10.826  0.0827 -0.0156  0.0167
30258W        W45727  17.732  14.964  14.356 -0.1498  0.2665  0.1383
30259W        W45728  17.785  17.253  14.391 -0.4896  0.1119 -0.2326
30260W        W45729   4.074  17.097   3.661 -0.0820  0.2431 -0.0468
30261W        W45730   5.457   6.050   4.865  0.1613 -0.2159  0.2014
30262W        W45731  12.727  16.894  14.436  0.0946 -0.0665  0.1993
30263W        W45732   9.751  10.198  13.928 -0.0222  0.1044  0.1737
30264W        W45733   0.159  10.237  13.643  0.0011  0.0414  0.0639
30265W        W45734   3.342  11.697   1.342 -0.1129  0.0911 -0.1926
30266W        W45735  17.252  14.322   3.005  0.2620 -0.2013  0.1816
30267W        W45736   0.264  17.548   4.968  0.1311 -0.1330  0.2592
30268W        W45737   0.299  11.257   1.450  0.0876  0.3353 -0.0167
30269W        W45738   4.842   9.184  13.041 -0.3075 -0.0775  0.0643
30270W        W45739  13.650  15.444   4.594  0.1331 -0.2908  0.1109
30271W        W45740   2.478   2.214   0.490  0.0769 -0.1381  0.0098
30272W        W45741  14.919   8.324  11.567  0.0622  0.0177  0.2317
30273W        W45742  15.894   6.361   0.682 -0.1838  0.0068 -0.2972
30274W        W45743  14.318   9.498  13.699  0.1561  0.5424  0.4224
30275W        W45744  18.890  11.940  13.190 -0.2024  0.0190  0.3714
30276W        W45745  12.688   9.489   4.704  0.2349  0.2863  0.0466
30277W        W45746   9.817   2.764   3.883 -0.1553 -0.0622  0.2091
30278W        W45747   2.538   3.154   5.300  0.2725  0.1047  0.0955
30279W        W45748  17.645   0.894   4.776 -0.1163  0.2482 -0.2692
30280W        W45749   7.937  18.181   4.962  0.0273  0.3800 -0.0129
30281W        W45750   6.915  11.705   2.736 -0.2524  0.3460 -0.1173
30282W        W45751  12.152   2.076   0.666 -0.2049  0.1214 -0.0668
30283W        W45752  13.556   2.827  14.428 -0.3787 -0.0562  0.0269
30284W        W45753   3.110  16.249  13.634  0.2043 -0.3791 -0.0519
30285W        W45754   0.574  12.252  11.707 -0.3654  0.2614  0.0911
30286W        W45755  17.194  14.504   2.176 -0.0886 -0.0742 -0.0132
30287W        W45756  16.276   9.600   0.380  0.0465  0.1447 -0.2090
30288W        W45757   1.471   3.529  12.868 -0.0339 -0.0720 -0.1202
30289W        W45758  16.665   6.205  13.735 -0.0023 -0.0753 -0.2293
30290W        W45759  12.306  11.566   1.869  0.1326  0.1919 -0.0116
30291W        W45760  15.934  18.218  15.420  0.0862 -0.0700 -0.1287
30292W        W45761  15.167  15.036  14.727  0.2068 -0.1925 -0.4553
30293W        W45762  17.635   8.913   2.188  0.2022 -0.0275 -0.0132
30294W        W45763   1.759   4.851  13.838  0.2496 -0.0051  0.1470
30295W        W45764  18.078  11.333   3.086  0.0188 -0.1291 -0.0143
30296W        W45765   9.068   9.198   1.421  0.0479 -0.0219  0.2738
30297W        W45766   6.522   7.242   4.479  0.2516  0.5202  0.2598
30298W        W45767  11.561  11.470  14.284 -0.2633  0.0534 -0.1265
30299W        W45768  10.887  15.617   3.199 -0.2250 -0.3767 -0.2417
30300W        W45769  17.468   6.672  12.230  0.0682 -0.2208  0.2140
30301W        W45770   7.297  16.830   4.583 -0.1260 -0.1825 -0.3644
30302W        W45771  16.333  15.518   4.570 -0.2765 -0.1140 -0.0566
30303W        W45772  10.364  11.122  13.596 -0.0932 -0.2104 -0.0403
30304W        W45773  16.952   8.145   0.361 -0.0015 -0.4036  0.1742
30305W        W45774  17.125   9.201  11.351 -0.0615 -0.0946 -0.1288
30306W        W45775   8.945  12.627  10.532  0.2010  0.0356  0.1458
30307W        W45776   6.772  14.583  14.503 -0.1921  0.0479  0.3836
30308W        W45777   4.443  17.034   1.428 -0.2872 -0.2701 -0.1023
30309W        W45778   7.845  14.234  14.038 -0.1192 -0.0467 -0.1649
30310W        W45779  13.069  13.222   2.898 -0.4687 -0.1984 -0.1427
30311W        W45780  15.235   7.893   0.329  0.0899  0.2664  0.0499
30312W        W45781   1.203  14.628   4.973  0.0385  0.1631 -0.0852
30313W        W45782  16.703  16.240   1.592 -0.1597 -0.0819 -0.2207
30314W        W45783   4.232  13.588  10.696 -0.0230 -0.1284  0.1331
30315W        W45784  18.472  16.365   5.511 -0.2717  0.1546  0.0462
30316W        W45785   2.703   3.522   0.289 -0.0348  0.0364  0.2127
30317W        W45786   9.818  17.937   2.036 -0.1438 -0.0698 -0.0532
30318W        W45787   1.305   2.041  12.075 -0.1354  0.1273 -0.1305
30319W        W45788  11.646   4.544  13.407  0.1798 -0.0139  0.1923
30320W        W45789  11.701   3.111   2.834 -0.0167 -0.0250  0.2542
30321W        W45790  16.599  10.876  11.056 -0.3733 -0.0555 -0.1294
30322W        W45791  13.146  10.849  14.651  0.2316  0.1572  0.0492
30323W        W45792  13.867  18.065   2.996 -0.4336 -0.4005 -0.3528
30324W        W45793   3.022   5.363   0.613 -0.1912  0.6097  0.0606
30325W        W45794  11.507   6.897   9.523 -0.3862 -0.1037 -0.0804
30326W        W45795   1.124   0.274   3.402 -0.3537 -0.2068  0.2105
30327W        W45796  11.926   1.093  10.867 -0.1236 -0.0387  0.1017
30328W        W45797   1.644  14.217   4.325 -0.2306  0.3520  0.0905
30329W        W45798   1.106  14.730  12.991 -0.1653  0.0729 -0.0054
30330W        W45799   0.339  10.280  12.283  0.3092 -0.0586 -0.1113
30331W        W45800   7.651   8.049  14.453 -0.1945  0.0069  0.0880
30332W        W45801   8.056  12.331   0.983  0.2799 -0.3428 -0.1325
30333W        W45802   7.892  16.373   3.144  0.1260 -0.3223  0.1026
30334W        W45803  16.498   3.242   4.572  0.0363 -0.3318 -0.0686
30335W        W45804   8.840   7.741  13.643 -0.1506  0.0735 -0.0148
30336W        W45805  16.754  13.809   0.132 -0.1684 -0.0761  0.1838
30337W        W45806   0.880   7.856   4.515  0.4430 -0.1678 -0.0148
30338W        W45807  11.081  16.925  12.669  0.1123 -0.1540 -0.1074
30339W        W45808  16.926   0.795   3.733 -0.0422 -0.0626  0.1138
30340W        W45809  18.128   6.657  11.845 -0.4060  0.0529  0.2740
30341W        W45810   6.467   6.849   4.861 -0.0806 -0.1008  0.1039
30342W        W45811  13.917   2.826   0.192 -0.2710  0.0073  0.1561
30343W        W45812   6.168   3.745   0.175  0.1624  0.0008  0.2379
30344W        W45813   5.858  12.810  12.234 -0.0513 -0.1836 -0.1259
30345W        W45814   5.749   4.702   0.295 -0.2095  0.2776  0.2788
30346W        W45815  10.633   7.037   1.410 -0.0247  0.1181 -0.1879
30347W        W45816  17.371   6.424  10.639 -0.2826 -0.2229 -0.2260
30348W        W45817  17.953  10.161  14.807  0.1011  0.0497 -0.1176
30349W        W45818  15.410  18.431  14.448 -0.4137 -0.0360  0.0916
30350W        W45819   9.862  14.998   0.570 -0.0776  0.0105  0.0423
30351W        W45820  13.073  18.243   0.318 -0.2770 -0.0808 -0.0688
30352W        W45821   7.222  11.339  11.141  0.0253 -0.0982 -0.1361
30353W        W45822  12.178  14.289   5.240  0.2203  0.0833  0.0251
30354W        W45823  11.941   2.843  11.594  0.2681 -0.1404  0.1858
30355W        W45824  17.887   1.014  11.320 -0.0804 -0.3955  0.3602
30356W        W45825   1.169  12.418  14.447  0.3319 -0.0586  0.2226
30357W        W45826  18.574  12.997  14.081  0.1429 -0.1077  0.0871
30358W        W45827   1.581   0.220   3.161 -0.3245 -0.1797 -0.0932
30359W        W45828  16.952  17.329   4.619 -0.1265 -0.1340 -0.0387
30360W        W45829   8.938   4.252  15.253  0.1411  0.3535 -0.0388
30361W        W45830   3.617   1.845  10.054  0.0318  0.1065  0.0169
30362W        W45831   7.626  10.844   3.958  0.0337  0.1530 -0.1539
30363W        W45832  15.121  17.247  13.297 -0.0281  0.2552  0.4944
30364W        W45833  11.620   6.512  12.971  0.1804 -0.0560 -0.2877
30365W        W45834   3.837   2.043  15.408  0.2526 -0.2068  0.2298
30366W        W45835   9.269  12.003   4.957  0.0220  0.2007 -0.0321
30367W        W45836  17.037   7.972  10.988  0.2353 -0.2597 -0.0843
30368W        W45837   7.944  13.880  14.696 -0.1410 -0.2349  0.0736
30369W        W45838  18.688  10.709  12.790  0.0005 -0.0781  0.0995
30370W        W45839  17.132  12.354   3.356 -0.2965 -0.1588 -0.1566
30371W        W45840  10.078   3.467  13.847  0.0755 -0.1319 -0.0895
30372W        W45841  10.059  15.727  11.478  0.0627 -0.0001  0.0600
30373W        W45842   7.099   5.492   4.124 -0.1321  0.2426  0.1657
30374W        W45843   9.921   0.627  13.173  0.0011 -0.3796 -0.2454
30375W        W45844   1.538   3.098   3.132  0.2096 -0.0817  0.0842
30376W        W45845   7.574   4.889   1.036 -0.0023  0.0740 -0.0306
30377W        W45846   5.042   0.077   2.362  0.3923 -0.0760 -0.1128
30378W        W45847   2.413  12.744   3.777 -0.2901  0.1195  0.1111
30379W        W45848   4.059  16.819   1.738 -0.2120  0.0214 -0.1075
30380W        W45849   6.707  13.420  11.385  0.1383 -0.0006 -0.1061
30381W        W45850  11.593   9.444   3.346 -0.0384 -0.0247 -0.1010
30382W        W45851   2.989  16.653  11.156 -0.0856  0.1279  0.2559
30383W        W45852   0.136  13.973   3.649 -0.0961 -0.0806  0.0900
30384W        W45853   4.265   2.132  13.680 -0.5129  0.0484 -0.0793
30385W        W45854   9.755   1.408  11.147  0.2278 -0.1436  0.1234
30386W        W45855   1.355  12.065   4.805  0.0718 -0.0849  0.4097
30387W        W45856   0.058   0.328  11.568 -0.0705 -0.0227  0.4943
30388W        W45857   4.157   1.735  11.871  0.1528 -0.1791 -0.0389
30389W        W45858  16.534   0.464  11.127  0.1998  0.3007  0.4222
30390W        W45859   8.562  17.647   1.543  0.1107 -0.0313  0.0318
30391W        W45860   9.064   6.979   1.477 -0.0608  0.2933  0.0335
30392W        W45861  18.663  17.904   4.264 -0.2230  0.0863  0.0770
30393W        W45862  12.217  17.960  14.339 -0.1839  0.0144  0.4373
30394W        W45863  17.826  10.889   2.183  0.1555  0.0170  0.2679
30395W        W45864  16.409  15.065   2.765 -0.1312 -0.1890  0.0858
30396W        W45865   9.068   7.644   0.529 -0.3759 -0.3707  0.0063
30397W        W45866   6.271   8.688   5.177 -0.1029 -0.0980  0.0259
30398W        W45867   9.530  16.316   5.786 -0.2936  0.1460  0.0235
30399W        W45868   9.726   1.507   0.987  0.1043  0.0170 -0.0399
30400W        W45869  11.993  12.435  12.041 -0.1313 -0.0039 -0.1507
30401W        W45870  16.014  13.120   2.052  0.0481 -0.3077  0.3782
30402W        W45871   5.381   0.887   1.265 -0.0410 -0.1971  0.1819
30403W        W45872   3.135  13.291   4.589 -0.0704  0.2692 -0.2124
30404W        W45873  17.422   4.401  10.820 -0.2117 -0.2003 -0.1266
30405W        W45874  13.606   4.698   5.912 -0.0299 -0.0458 -0.2400
30406W        W45875  16.585   7.429  10.326  0.1787 -0.5278 -0.1214
30407W        W45876   2.828   3.224  12.506 -0.0423 -0.0701 -0.0825
30408W        W45877   6.157  10.257   4.567 -0.1375 -0.3120  0.1363
30409W        W45878   3.111   1.288  11.602 -0.0545 -0.1717 -0.0458
30410W        W45879   9.844  13.071  12.204 -0.1037  0.2591 -0.2165
30411W        W45880   4.343  13.782   1.269  0.1806  0.0873  0.2733
30412W        W45881   1.731   1.811  12.776 -0.4050 -0.0170  0.0958
30413W        W45882  13.309   1.295  12.711  0.1797 -0.0487  0.1327
30414W        W45883   9.748  13.435   4.468  0.1779 -0.1703  0.7024
30415W        W45884   5.252   4.888   3.174 -0.1502 -0.3043 -0.0366
30416W        W45885  14.684  18.637   2.651 -0.1642  0.2015 -0.1221
30417W        W45886   6.327  18.331   1.340 -0.1506 -0.2444 -0.0642
30418W        W45887  17.640   1.600   2.985  0.1451 -0.3540  0.1852
30419W        W45888  15.586   4.066  11.646 -0.1262  0.0054 -0.1019
30420W        W45889  12.173  13.182  12.490  0.4471 -0.0675 -0.4495
30421W        W45890   6.722   0.826  12.992  0.0654  0.0429 -0.2600
30422W        W45891  10.161   8.279   1.169  0.0908 -0.2424  0.3860
30423W        W45892  11.855  12.790   3.395  0.3572  0.0432 -0.1154
30424W        W45893   5.310   3.137   0.587  0.3397 -0.1029 -0.0211
30425W        W45894   1.645  16.096  11.736 -0.2567  0.0286 -0.1420
30426W        W45895   6.092  17.350   5.096 -0.1122  0.2674 -0.1852
30427W        W45896  15.265  10.761   0.508 -0.6132  0.2343  0.0783
30428W        W45897  10.798   5.531  13.944 -0.0791 -0.1464  0.2735
30429W        W45898  14.914  18.085   0.611 -0.2584 -0.0826  0.0508
30430W        W45899   4.394  14.290   0.496  0.1187 -0.2134  0.0851
30431W        W45900   2.495  14.513   4.258  0.2675 -0.2457 -0.0923
30432W        W45901   4.113   0.561   0.707  0.2085  0.2620  0.3326
30433W        W45902  12.095  14.634   1.617 -0.1305 -0.0509 -0.2232
30434W        W45903   3.311   3.511  14.913  0.0251 -0.0296 -0.1944
30435W        W45904  14.829  12.310   2.159 -0.0240 -0.1206  0.0416
30436W        W45905   1.628  16.540   3.474  0.2760 -0.0454 -0.1083
30437W        W45906  18.079   4.954  10.361 -0.3316 -0.2521  0.1576
30438W        W45907   0.049   9.952  13.070  0.0935 -0.0283  0.1039
30439W        W45908  13.965  17.027   1.240 -0.0521  0.2652 -0.3307
30440W        W45909   5.861   3.162  11.811  0.2509  0.4015 -0.0578
30441W        W45910  16.817  15.991  14.379  0.1359  0.2765 -0.3510
30442W        W45911  16.244  10.675   3.059  0.3476  0.1869 -0.1789
30443W        W45912  12.595   3.600  13.848  0.0524 -0.0649 -0.2414
30444W        W45913   5.838  18.220   5.594 -0.1890  0.0943  0.1250
30445W        W45914  12.859   8.706   4.273  0.1548 -0.1266 -0.1019
30446W        W45915   9.487   5.187  13.266 -0.0034  0.2109  0.0034
30447W        W45916  17.745   4.902  12.450 -0.0867  0.2452  0.4334
30448W        W45917  10.827   0.007  13.779 -0.2150 -0.1142 -0.2245
30449W        W45918   1.661  17.173  11.697 -0.0928 -0.1641  0.2204
30450W        W45919   5.974  12.439   3.059 -0.1465 -0.2540  0.1360
30451W        W45920  10.048   3.206  10.454  0.0951  0.0663  0.1717
30452W        W45921   2.074   7.130  11.119 -0.0624  0.0641  0.0008
30453W        W45922   8.069  15.127   0.910 -0.1571  0.2901 -0.0128
30454W        W45923   6.168   1.149   1.690  0.1696 -0.1986 -0.2461
30455W        W45924   3.457  15.163   0.046 -0.0270  0.2555 -0.0006
30456W        W45925   3.748   8.302   1.271  0.4623  0.0260 -0.0085
30457W        W45926   4.511  13.934  11.575 -0.0606 -0.1347 -0.1445
30458W        W45927   7.272   1.186   0.242 -0.3864 -0.1640 -0.1443
30459W        W45928  12.453  16.786  14.055 -0.1886 -0.0685 -0.0523
30460W        W45929  18.227  15.162   0.685  0.0175  0.0446  0.0472
30461W        W45930  17.551  15.765   4.484  0.0550  0.0021 -0.0971
30462W        W45931   1.827  12.191   5.798 -0.0098 -0.3375  0.0467
30463W        W45932   2.482   9.858  11.510 -0.0976 -0.2733  0.3443
30464W        W45933  18.236  18.068   3.193 -0.3239 -0.0482 -0.1050
30465W        W45934  10.560   9.546  12.442 -0.1469 -0.1595 -0.1344
30466W        W45935  11.181   0.284  12.053  0.2269  0.0915 -0.0343
30467W        W45936  18.675   2.109   0.891 -0.2385  0.0966  0.3761
30468W        W45937  13.455   5.443  11.561  0.0059 -0.2566  0.1407
30469W        W45938   9.069   2.066  14.830  0.0690 -0.2575 -0.1267
30470W        W45939   6.245   8.435  12.817  0.1087  0.0197  0.2905
30471W        W45940  17.411   6.153   4.384 -0.1320 -0.1378 -0.1362
30472W        W45941   3.417  11.059   0.015 -0.0091 -0.1080  0.2841
30473W        W45942   8.788   4.978  11.708  0.1737 -0.0196  0.2641
30474W        W45943  17.932   0.930   3.411  0.3653  0.0366  0.0583
30475W        W45944   2.105  12.253  10.086  0.2481 -0.1033 -0.1442
30476W        W45945   6.824   0.123   1.637 -0.2916  0.2045 -0.1846
30477W        W45946   0.665  13.956  11.316 -0.0004  0.1449 -0.4728
30478W        W45947   4.405  16.260   4.648  0.2052  0.0395  0.1467
30479W        W45948  14.850  12.422   2.977  0.0775  0.2236  0.0983
30480W        W45949   4.507   5.232   0.738 -0.0092 -0.0074  0.0459
30481W        W45950   7.321   3.902  12.958 -0.1186  0.1177  0.1144
30482W        W45951  14.387   7.600  13.553 -0.1884  0.0752  0.0590
30483W        W45952   9.841  12.452   1.103 -0.1087  0.3906  0.1194
30484W        W45953   4.013  16.018  13.604 -0.2353  0.1225 -0.0766
30485W        W45954   5.160   2.310  13.508  0.0656  0.1187 -0.2822
30486W        W45955  12.363   2.570  12.778  0.0238 -0.1931 -0.0470
30487W        W45956   7.772   0.068   3.545  0.3618 -0.1082  0.3728
30488W        W45957   0.355  16.999   0.307 -0.1834  0.4335  0.3728
30489W        W45958   9.459  13.773  13.552 -0.1391 -0.0397 -0.2273
30490W        W45959  11.817  10.773   2.986  0.0936 -0.0812  0.1486
30491W        W45960   9.501  11.293  14.958 -0.3779 -0.0409  0.1895
30492W        W45961  17.103  18.228  10.460  0.2226 -0.1039 -0.0769
30493W        W45962   3.824  16.856  10.594 -0.0621 -0.0694  0.0255
30494W        W45963   8.436  13.243   0.906 -0.1862 -0.1912  0.0642
30495W        W45964   7.745   7.816  13.855 -0.2000  0.0904 -0.1935
30496W        W45965   0.746   5.435  10.472 -0.0315  0.0841  0.1012
30497W        W45966  12.732  11.948   5.289  0.0211  0.0055 -0.0886
30498W        W45967   0.496   0.982  10.028 -0.2823  0.2384  0.0195
30499W        W45968   0.392   9.260   1.668 -0.0081 -0.1156 -0.2425
30500W        W45969   2.272  10.213  13.655 -0.1121 -0.1566  0.2544
30501W        W45970  18.816  17.484   4.502 -0.2300 -0.3963  0.3038
30502W        W45971   9.886   1.786  13.657 -0.1601 -0.0112  0.1199
30503W        W45972  11.851   7.569   4.929  0.5367 -0.0510 -0.2332
30504W        W45973   5.165  11.347   1.460  0.1888 -0.0814  0.1266
30505W        W45974   2.053  11.051   1.959  0.0951 -0.0087 -0.1591
30506W        W45975  12.411   3.940  10.193  0.3195 -0.0262 -0.3820
30507W        W45976   0.136   6.595   2.669  0.1651 -0.1970  0.0667
30508W        W45977  13.036  16.378  12.045 -0.4271  0.0354  0.3812
30509W        W45978   9.728   3.422  10.010 -0.2307 -0.1375 -0.0083
30510W        W45979  14.617   4.204   2.486 -0.0352  0.4147 -0.0580
30511W        W45980  14.104  18.337  13.650 -0.4019  0.3592  0.3576
30512W        W45981  11.084   1.723  14.838  0.1333  0.2797 -0.3274
30513W        W45982   9.916   6.083  15.228 -0.0788  0.1731  0.0418
30514W        W45983  12.545  12.516  14.258 -0.0055 -0.0224  0.1788
30515W        W45984   1.312   4.330  11.556 -0.1190 -0.0195  0.1464
30516W        W45985   7.854   7.644   0.603  0.3122  0.1342  0.1626
30517W        W45986   8.358  11.981   5.070  0.0778  0.0759 -0.2777
30518W        W45987  18.504  18.736  14.982 -0.2125  0.4050 -0.1012
30519W        W45988   8.872  12.500   0.438  0.4664 -0.0837  0.0206
30520W        W45989   2.720  18.099  12.289  0.0179 -0.0534  0.0346
30521W        W45990   6.983   7.532   3.005  0.3224 -0.2130  0.1562
30522W        W45991   1.791   0.434  12.545 -0.0856  0.5992 -0.0632
30523W        W45992   6.019   9.432   4.045 -0.0647 -0.0821 -0.0026
30524W        W45993  11.460  15.517  12.944 -0.0198 -0.3126  0.2413
30525W        W45994   7.285  17.529   4.586  0.1578  0.0895  0.1725
30526W        W45995   4.981  14.795   2.829 -0.0899  0.0566 -0.0827
30527W        W45996  15.522  15.333   4.348 -0.0767 -0.0571 -0.3278
30528W        W45997  10.417   3.921   2.708 -0.1785  0.0353 -0.0201
30529W        W45998  10.966   8.771  11.103  0.1988  0.0189 -0.1690
30530W        W45999  17.488   5.643  10.774 -0.0711 -0.1905  0.1776
30531W        W46000  13.157   5.258  15.272  0.1773 -0.2400 -0.4657
30532W        W46001  10.066  17.208   3.675 -0.1635  0.0381  0.1360
30533W        W46002   6.063   4.966   0.626 -0.0701  0.1054 -0.0015
30534W        W46003  10.140  11.680   2.696 -0.1365  0.3851  0.0508
30535W        W46004  13.186   8.508   0.827 -0.1687 -0.0090  0.0437
30536W        W46005   0.954   4.200   4.517 -0.0461  0.2857 -0.0822
30537W        W46006  12.986   5.747  12.986 -0.2472  0.1389 -0.1766
30538W        W46007   0.675   0.416   4.139  0.1721 -0.1593  0.1708
30539W        W46008  14.406   0.514   0.529 -0.0804 -0.0770 -0.3352
30540W        W46009   6.497  10.444  12.905 -0.2547  0.0004 -0.2069
30541W        W46010  14.793   0.950   0.497 -0.0105 -0.2309  0.2145
30542W        W46011   3.918   2.308  14.909 -0.2844  0.6227 -0.0471
30543W        W46012   4.693  13.031   4.337 -0.1384 -0.0424  0.3210
30544W        W46013   4.733  13.856   3.974 -0.2238 -0.0432 -0.0693
30545W        W46014   6.205  16.540   3.966  0.2864  0.0810 -0.3009
30546W        W46015   0.976  13.326   0.664  0.3390  0.0138  0.0327
30547W        W46016  11.200   9.755   9.666  0.2331  0.1316 -0.4291
30548W        W46017  11.243   6.303  12.664 -0.3339  0.0529 -0.0319
30549W        W46018  13.246   8.692  12.027 -0.0551 -0.1430 -0.2022
30550W        W46019  16.427   6.689  10.644  0.0909  0.1578  0.1859
30551W        W46020   4.590  14.595   0.117 -0.3535  0.0608  0.1166
30552W        W46021  16.718  18.139  12.110 -0.1682  0.0470 -0.2139
30553W        W46022   4.364   3.868  14.527 -0.0862  0.1465 -0.2594
30554W        W46023   4.864  16.707  12.651  0.3818 -0.0207 -0.3200
30555W        W46024   1.689  11.891   0.405 -0.1885 -0.1734  0.0772
30556W        W46025  15.692  12.364  12.639  0.0297 -0.2414 -0.2448
30557W        W46026  17.892  13.808  15.141  0.1552  0.3331 -0.2721
30558W        W46027  16.162  16.617   1.270  0.0975 -0.1203  0.0578
30559W        W46028  10.258  11.026   2.111  0.2684  0.1163 -0.1845
30560W        W46029   8.526   9.562  14.131 -0.2048 -0.0090 -0.2387
30561W        W46030   4.011  11.611   3.081 -0.1230 -0.1020  0.0033
30562W        W46031  15.050   1.468  11.652  0.3684  0.0510  0.0036
30563W        W46032  16.147   1.380   4.985 -0.0159  0.2344  0.1105
30564W        W46033  17.675   5.680  12.038 -0.1079  0.2180 -0.2428
30565W        W46034   5.472   8.231   2.860 -0.0525 -0.0927  0.0799
30566W        W46035   2.649   6.468   4.882  0.2341  0.1418  0.0058
30567W        W46036   3.929  18.528  13.407  0.1456  0.1165  0.0182
30568W        W46037  11.630   8.519  11.682  0.0722 -0.0167  0.1315
30569W        W46038  18.375   9.290   3.705  0.0066  0.2637  0.2794
30570W        W46039   8.112  12.460  13.332 -0.0599 -0.0695 -0.0593
30571W        W46040   9.148   1.984   4.900  0.0728 -0.3947  0.0997
30572W        W46041  18.114  10.963  15.505  0.0276 -0.1053  0.0287
30573W        W46042   4.846  17.885   0.394 -0.1628  0.0162 -0.3914
30574W        W46043  13.740  16.256  11.800  0.3201 -0.2266 -0.0259
30575W        W46044   1.851   7.549  14.510 -0.2331 -0.0686  0.0570
30576W        W46045  13.500  18.437  12.934 -0.2761  0.3204  0.0082
30577W        W46046  15.992  11.343   1.342  0.0375  0.0703 -0.1918
30578W        W46047  12.933  14.676   6.051 -0.2505 -0.1953 -0.2871
30579W        W46048  16.080  16.760  14.272 -0.1079  0.1413 -0.0675
30580W        W46049  11.845  11.177  13.375  0.0602 -0.1896  0.1634
30581W        W46050   1.427  10.312  13.578  0.0926  0.0379 -0.1175
30582W        W46051   8.629  17.355  12.468 -0.0481 -0.2921 -0.1792
30583W        W46052  18.139  16.500   2.994  0.0164 -0.2960  0.0543
30584W        W46053   8.226   5.326  12.984 -0.1442 -0.2472 -0.0719
30585W        W46054   9.478  18.793   4.037 -0.2258  0.0448  0.1000
30586W        W46055   7.840   5.417   2.253  0.0466 -0.0751 -0.3279
30587W        W46056  13.130   3.807   1.307  0.1069  0.1304  0.4146
30588W        W46057  13.984   5.374  14.708 -0.1319 -0.1779  0.0080
30589W        W46058   2.211   6.335   2.299 -0.3475 -0.1291  0.2223
30590W        W46059   4.762   2.488  14.472 -0.0551  0.4735  0.2076
30591W        W46060  10.464  10.312  11.679  0.2319 -0.0270 -0.0330
30592W        W46061  15.634  16.146  10.942 -0.4576 -0.0854 -0.2098
30593W        W46062   0.431   5.870  13.060  0.2596  0.1808  0.2136
30594W        W46063   6.068   3.836  15.026 -0.3396 -0.0333  0.2139
30595W        W46064  15.051   8.502  12.309  0.0700  0.3445  0.0097
30596W        W46065   2.468   4.150  14.758 -0.2855 -0.1007  0.0074
30597W        W46066  12.862   7.497  11.010  0.1801  0.0360  0.0488
30598W        W46067   4.994   7.813   0.591 -0.1586 -0.0859 -0.1241
30599W        W46068   3.606   1.615   0.298 -0.0931  0.2820 -0.2854
30600W        W46069  12.683  16.578   2.427  0.2037 -0.1663 -0.0258
30601W        W46070   7.106  10.582   5.473  0.3001 -0.1512  0.1220
30602W        W46071   5.623  15.989  11.526 -0.1470 -0.1849  0.0148
30603W        W46072   9.178  17.159   4.093  0.1639 -0.1629 -0.0199
30604W        W46073   2.793  12.907   2.698 -0.0131  0.2817 -0.0846
30605W        W46074  16.641  11.734   2.135 -0.3981 -0.1658 -0.1778
30606W        W46075  18.837  16.172  12.637 -0.3178  0.0451  0.3237
30607W        W46076   7.828  18.885   0.996 -0.0489 -0.0615  0.1218
30608W        W46077   8.428  17.802   3.092 -0.2035 -0.0540  0.0114
30609W        W46078  12.420  10.955   3.174  0.1502  0.0685 -0.1867
30610W        W46079  13.306  15.010  11.912  0.1299  0.0153  0.5899
30611W        W46080   8.416   7.153   2.656 -0.0711 -0.1458  0.1337
30612W        W46081   6.260  13.864  11.380  0.1334  0.3617 -0.1727
30613W        W46082  10.505   1.666   1.506 -0.2225  0.2327 -0.2634
30614W        W46083   4.730  11.190  14.800 -0.0701  0.2113  0.0781
30615W        W46084   5.326   1.568   2.771  0.1850 -0.1672 -0.4604
30616W        W46085  18.873   7.125   1.688 -0.0025 -0.0877 -0.0121
30617W        W46086  12.696  15.327   0.017 -0.1723 -0.5511  0.3776
30618W        W46087   3.663  10.001   5.021  0.1318 -0.2053 -0.0652
30619W        W46088  14.492  14.166   4.578  0.1737  0.3042 -0.0721
30620W        W46089   7.242   2.583   5.855  0.3155  0.0944 -0.0097
30621W        W46090  18.397   2.441   4.682  0.2840  0.2161  0.1622
30622W        W46091  11.796   5.858  10.887 -0.1225  0.3929 -0.2061
30623W        W46092  11.002  14.982   3.220 -0.0253  0.4528 -0.3848
30624W        W46093   8.390  12.036  11.578 -0.1193 -0.4261 -0.1132
30625W        W46094  11.332   0.239  10.942  0.1899 -0.1460  0.0381
30626W        W46095  18.289  13.840   0.436  0.3283 -0.2281  0.0574
30627W        W46096  14.722  11.238  13.297 -0.0342 -0.1296 -0.1883
30628W        W46097   9.285   8.465   0.657 -0.3402 -0.0993  0.1372
30629W        W46098  18.719   4.217  14.302 -0.0063  0.0758  0.1274
30630W        W46099  18.746  17.149  14.513 -0.1607  0.1142 -0.2191
30631W        W46100   7.776  14.924  14.700  0.0392 -0.2889 -0.1074
30632W        W46101   8.375   0.838   1.191 -0.0239 -0.2293 -0.0660
30633W        W46102   1.756  12.081  14.335  0.1376  0.2602 -0.2509
30634W        W46103  12.892   6.528   4.924  0.1616  0.1434  0.0451
30635W        W46104  16.602   6.894   0.354 -0.1933  0.3076 -0.2414
30636W        W46105  15.323   1.852   1.816  0.0042  0.2442 -0.0077
30637W        W46106  11.286   9.265  12.316  0.0934 -0.1410 -0.2283
30638W        W46107  11.404   2.443  11.268  0.2967  0.0455  0.1114
30639W        W46108  18.895   5.358  15.228  0.1542 -0.1262  0.0543
30640W        W46109   4.103  10.635  11.272  0.1922 -0.1862  0.1810
30641W        W46110  13.598  15.941   3.649  0.1000 -0.0648 -0.1216
30642W        W46111   6.061   5.811  11.942  0.0917 -0.1322  0.1710
30643W        W46112   1.441   0.672   5.699 -0.0853  0.0791  0.2008
30644W        W46113  15.781   8.443  10.494 -0.1465 -0.1975 -0.1584
30645W        W46114  15.303  12.251   2.096 -0.2378  0.1410 -0.0384
30646W        W46115  12.736  11.187   0.180 -0.2196 -0.3034 -0.2088
30647W        W46116   0.329  17.600  15.109  0.1485 -0.0295 -0.3343
30648W        W46117   3.786  14.238   4.535  0.1679 -0.1185  0.0214
30649W        W46118   4.693   7.203   1.297  0.1701  0.1350  0.0997
30650W        W46119  11.283   6.834   4.856 -0.4100  0.0135  0.3024
30651W        W46120   0.495   4.360  14.613  0.1890 -0.1325 -0.0025
30652W        W46121  16.618  17.467   5.598 -0.1239 -0.4121  0.2749
30653W        W46122   9.409   6.303   4.397 -0.0688  0.3449 -0.0239
30654W        W46123  15.969  12.579  12.164  0.2570  0.0495  0.1668
30655W        W46124   1.741   2.593   5.601  0.2546  0.0289  0.1748
30656W        W46125  18.538   3.280  13.159 -0.1352  0.3582 -0.0290
30657W        W46126   0.069   8.842  14.083  0.2652 -0.2135  0.2999
30658W        W46127   9.936  16.768  11.445 -0.0194 -0.1880 -0.1644
30659W        W46128  13.519  12.436  15.025 -0.0442  0.0807 -0.5412
30660W        W46129  13.321  12.399   3.408  0.2502 -0.0886  0.5272
30661W        W46130  18.591   6.929   3.121 -0.1091 -0.0929  0.3076
30662W        W46131   4.846  18.336   1.685  0.0900 -0.1739 -0.4283
30663W        W46132  12.295  13.864   4.090  0.3037 -0.2493  0.1400
30664W        W46133   6.058  14.719   4.600 -0.2347 -0.2888 -0.0557
30665W        W46134   1.568   0.375  14.903 -0.3138  0.0229 -0.1453
30666W        W46135   2.153   1.846  12.522 -0.0772 -0.3457  0.3934
30667W        W46136  15.420   2.653   4.932 -0.2127  0.1782  0.1736
30668W        W46137   2.937   2.047   3.563  0.4694 -0.0671 -0.0654
30669W        W46138  18.120  17.190  13.154 -0.0995 -0.3963  0.3344
30670W        W46139  11.717  13.456   2.155 -0.2589  0.3504  0.1370
30671W        W46140   2.043  16.681   2.910  0.1418  0.0875 -0.3203
30672W        W46141  15.903  18.481   2.382  0.1463 -0.2171  0.1498
30673W        W46142  18.727   4.414  10.281  0.2162 -0.0500 -0.2242
30674W        W46143  11.354   7.709   0.672  0.3363 -0.5088  0.4688
30675W        W46144   9.841  10.495   3.515  0.0205 -0.1698  0.1102
30676W        W46145   2.072  16.073  13.794  0.0584  0.0755  0.0243
30677W        W46146   8.816  17.003   2.932  0.0841 -0.2015  0.0086
30678W        W46147  14.241   4.221   2.151 -0.0353  0.0052 -0.1506
30679W        W46148   8.951   3.492   5.174 -0.0847  0.0184  0.0509
30680W        W46149  13.416   2.655  10.128 -0.0749  0.1020  0.2968
30681W        W46150   3.194  10.345  10.841  0.4237  0.0657 -0.0615
30682W        W46151  18.237  13.662  12.758 -0.3457  0.2085  0.0064
30683W        W46152   6.327  10.356  11.959  0.5151 -0.3173  0.1740
30684W        W46153  18.541   7.208   4.081  0.1113  0.0936  0.2614
30685W        W46154   7.219  11.305   1.939  0.0745 -0.0063  0.0341
30686W        W46155  15.885   8.731   4.305  0.1059 -0.2650 -0.1232
30687W        W46156   9.315   5.433   1.125 -0.1078 -0.3460 -0.1365
30688W        W46157   8.577   4.243   3.602 -0.4404  0.1300  0.3249
30689W        W46158  17.648   6.715   0.142 -0.1852  0.0021 -0.0126
30690W        W46159  18.125   3.869   4.546 -0.2068 -0.2248 -0.0990
30691W        W46160  10.874  17.405  10.292 -0.0484 -0.3393 -0.2289
30692W        W46161   6.065   5.897  14.336  0.1177 -0.1745 -0.3224
30693W        W46162  13.149   0.642   2.409 -0.0172 -0.0980 -0.1862
30694W        W46163   0.212  17.023   4.674  0.1635  0.0504 -0.1100
30695W        W46164   1.747   5.812  14.231 -0.0748 -0.0016 -0.1726
30696W        W46165  17.696   3.354  13.603  0.1307  0.2301 -0.3167
30697W        W46166  15.707  14.660  12.808  0.2529 -0.1099 -0.1716
30698W        W46167  14.494  16.476   5.285 -0.1671  0.0486  0.3084
30699W        W46168   0.791   6.252   0.273 -0.0723  0.1179 -0.3051
30700W        W46169   3.641  16.866  11.961 -0.0995 -0.0540 -0.0921
30701W        W46170   7.970  18.355  14.452  0.3660 -0.0972 -0.3089
30702W        W46171  11.369   7.097  11.968 -0.1803  0.0003 -0.0269
30703W        W46172   2.324   8.007  10.977 -0.0929 -0.0687 -0.3725
30704W        W46173   8.098  18.848   1.523 -0.0781 -0.0887 -0.2952
30705W        W46174  13.614   2.868  12.326 -0.1263  0.2098  0.0443
30706W        W46175  17.973   2.983   2.174  0.1549 -0.1701  0.0696
30707W        W46176   9.323   6.688   5.066 -0.0743  0.0825 -0.1633
30708W        W46177  15.216   0.268  10.853  0.0616 -0.0212  0.0412
30709W        W46178  11.741   2.405   2.078 -0.1685 -0.2992  0.0363
30710W        W46179   3.478  16.463   3.727  0.7578  0.2596 -0.1129
30711W        W46180   9.663  16.383   0.732  0.3132 -0.2795 -0.0516
30712W        W46181  12.563  14.385  14.609  0.1212 -0.0584  0.3377
30713W        W46182   0.966   3.612  13.850 -0.3109  0.0505  0.1034
30714W        W46183   1.762  15.094  12.430  0.0896  0.0547 -0.2166
30715W        W46184   3.028   4.147   0.222  0.4989 -0.0709  0.0954
30716W        W46185  14.929   0.988   3.354 -0.1622  0.2866  0.0825
30717W        W46186  14.361  10.567   3.207 -0.1504  0.1162  0.2888
30718W        W46187  11.230  18.178   4.635 -0.1211 -0.1238 -0.2072
30719W        W46188   9.918  12.167   2.817  0.2418 -0.0949 -0.0063
30720W        W46189   5.261  16.377   3.808  0.2760 -0.1217 -0.3880
30721W        W46190  13.048  16.076  11.222  0.0047 -0.2854 -0.2990
30722W        W46191  14.955  16.703   4.317  0.3110  0.2186  0.0002
30723W        W46192   0.011  13.617   4.575  0.4586 -0.5126 -0.0084
30724W        W46193  13.895   1.726  12.304 -0.1357  0.1126 -0.3444
30725W        W46194   8.951  13.873  14.801 -0.0140  0.1883 -0.3979
30726W        W46195   7.892  13.596   3.592 -0.0280  0.2487  0.1270
30727W        W46196   0.865  15.166   3.734 -0.1393 -0.1637 -0.0328
30728W        W46197  16.064  11.164   5.406 -0.3828  0.0911 -0.0824
30729W        W46198  15.949  17.885   0.433 -0.3605 -0.0081 -0.1355
30730W        W46199  12.236   0.967   3.428  0.3305 -0.3231  0.1499
30731W        W46200   2.510  16.139   2.669 -0.0791 -0.1977  0.1014
30732W        W46201   4.258   0.791  12.888 -0.1025 -0.0558  0.0063
30733W        W46202   8.671  13.045   3.989  0.3785  0.0597  0.1172
30734W        W46203   8.936   3.866   3.626  0.1006 -0.1182 -0.0104
30735W        W46204  14.890   8.903  12.796 -0.1476 -0.2411  0.4034
30736W        W46205   8.544   1.044   0.195  0.3106 -0.2736  0.1488
30737W        W46206  16.389  13.758   5.215  0.2256 -0.3085  0.0342
30738W        W46207  17.283   4.895   0.281 -0.1589 -0.3386  0.1481
30739W        W46208   3.831   2.812   0.983 -0.1854 -0.0441 -0.1901
30740W        W46209  14.146   5.937  11.887  0.0072  0.0782  0.3364
30741W        W46210   9.905   7.750   3.140  0.2808 -0.3091  0.1342
30742W        W46211  16.708  12.327  12.528  0.3217  0.1046  0.1539
30743W        W46212   1.956  16.880  12.002  0.0911  0.0984 -0.0916
30744W        W46213  14.998  15.175   1.545  0.2042  0.1634  0.1987
30745W        W46214   0.912  12.848   5.203 -0.1294  0.0016 -0.3177
30746W        W46215  13.918  18.612   3.036  0.2017 -0.0187  0.1470
30747W        W46216   5.275   4.522   3.517  0.0750 -0.2135 -0.0629
30748W        W46217  14.380   0.709  11.302  0.0930  0.1783  0.3428
30749W        W46218  18.354  13.462  10.162  0.2320  0.0650  0.3690
30750W        W46219  13.092   1.316  11.610 -0.2883 -0.0399  0.1345
30751W        W46220  10.882   2.775  14.823 -0.1133  0.2923  0.0384
30752W        W46221   4.203   7.462   0.243 -0.0600 -0.3650  0.0077
30753W        W46222   5.760  11.906  10.665 -0.1969 -0.1603  0.0566
30754W        W46223   1.488   5.597   1.957  0.0587  0.1071  0.0555
30755W        W46224  13.687   7.264  12.471 -0.1580  0.1940 -0.1361
30756W        W46225   3.790   0.922  14.799  0.1012  0.0844  0.0029
30757W        W46226   3.297  15.841  11.444 -0.1900  0.2124 -0.0929
30758W        W46227   6.947  12.169  11.444 -0.1452  0.0632 -0.0892
30759W        W46228   7.538  18.451  13.982 -0.2087  0.0994 -0.1423
30760W        W46229  12.351  12.905   4.485 -0.2490 -0.1371  0.2182
30761W        W46230   0.161   6.448  13.816 -0.1900  0.1248  0.0950
30762W        W46231  13.329  17.072   2.627 -0.1629  0.3543 -0.1814
30763W        W46232   6.439   7.917   1.997 -0.0421 -0.1830 -0.2107
30764W        W46233   1.768  15.885  11.203  0.2640  0.0292  0.2966
30765W        W46234  12.512   4.242   4.924 -0.1176 -0.3932 -0.2212
30766W        W46235  14.304  18.797  10.788  0.2400 -0.1105 -0.1448
30767W        W46236  15.708   9.365   3.211 -0.0212 -0.1216 -0.1361
30768W        W46237   8.439  17.661   4.924 -0.0709  0.1182 -0.0874
30769W        W46238  17.430   2.851   3.678 -0.0751 -0.1710 -0.1951
30770W        W46239   5.371  11.362   0.887  0.0915  0.1386 -0.0231
30771W        W46240   6.675  13.521   4.914  0.0682  0.0747 -0.1197
30772W        W46241   2.385   9.725   2.381  0.3100 -0.0782 -0.3381
30773W        W46242  17.294   6.906   5.446 -0.3611 -0.1704  0.0198
30774W        W46243  14.499   8.834  14.378  0.0072  0.2737  0.0558
30775W        W46244  14.483   5.343  10.442  0.2670  0.0839 -0.2228
30776W        W46245   7.005   0.974   1.737 -0.0686 -0.1395  0.1837
30777W        W46246   0.504   5.252  12.040 -0.2132 -0.2464  0.2758
30778W        W46247   0.051  16.592  11.289 -0.1246  0.1164  0.2021
30779W        W46248   8.808  10.402  12.443 -0.3211  0.0655 -0.1311
30780W        W46249  13.393  16.428  10.444 -0.2911 -0.2544 -0.1311
30781W        W46250   4.267   2.831   4.150 -0.1410  0.0118  0.1198
30782W        W46251   4.730   6.179  14.560 -0.0134  0.0726  0.0530
30783W        W46252  13.441   2.820   1.238  0.0343 -0.1395 -0.4244
30784W        W46253  14.281  15.869   1.458 -0.2449 -0.0471  0.0995
30785W        W46254  11.981   7.238   0.390  0.2005 -0.3856 -0.0005
30786W        W46255   4.827  18.513   4.461 -0.4246 -0.2849  0.2496
30787W        W46256   3.554   5.006   3.782  0.3580 -0.0738  0.0328
30788W        W46257  16.259   9.104   0.441  0.2637  0.0186 -0.2682
30789W        W46258   4.720  16.679  15.082 -0.3008  0.0882 -0.0790
30790W        W46259   6.259   9.136  15.210 -0.3793  0.1517 -0.2887
30791W        W46260  12.396   4.102  14.969  0.1816  0.0252  0.0655
30792W        W46261   1.334   1.134  11.175 -0.0261 -0.0433 -0.0013
30793W        W46262  17.378   3.593  12.058  0.1490 -0.0415  0.0520
30794W        W46263   2.247  16.137  10.169 -0.1849  0.3218 -0.0368
30795W        W46264  12.869   5.617   4.963 -0.2062 -0.0356 -0.4485
30796W        W46265  10.306   4.154  14.347  0.5250  0.1531 -0.1760
30797W        W46266  10.684  16.618  14.045  0.2665  0.0848 -0.0339
30798W        W46267   4.476  14.329   5.311 -0.1592  0.2669 -0.0323
30799W        W46268  12.913   6.433  13.652 -0.0356  0.2036  0.2091
30800W        W46269   0.307  11.547   4.069 -0.0725  0.1539 -0.3194
30801W        W46270  17.275  17.606   3.579  0.1819 -0.0788  0.2894
30802W        W46271  12.117  12.316   5.931 -0.1206  0.0342  0.2696
30803W        W46272   7.081   5.498   3.133  0.3648  0.1947  0.0798
30804W        W46273   0.526   4.657   3.292 -0.1489  0.1628 -0.0249
30805W        W46274   8.717  14.983  10.130  0.0912  0.1727  0.1636
30806W        W46275   0.673   4.951   5.325  0.1343  0.3594  0.0009
30807W        W46276   8.449   7.256  15.372  0.0792 -0.1779 -0.1956
30808W        W46277   3.514   3.849  13.977 -0.1550  0.5563 -0.0102
30809W        W46278  16.485   3.641   3.193 -0.0771 -0.1905 -0.1340
30810W        W46279  13.604  13.110   2.869 -0.1209 -0.1881 -0.1037
30811W        W46280   5.085  11.865   4.027 -0.1654  0.1430  0.1406
30812W        W46281  14.131   2.840  11.976 -0.2375  0.0986 -0.0297
30813W        W46282  18.510   4.897  15.230 -0.1280  0.1173  0.0164
30814W        W46283   9.328   4.264   0.409  0.0414  0.2975  0.2313
30815W        W46284  17.379   3.378  10.501  0.0724 -0.2968 -0.0913
30816W        W46285   5.711   3.714   0.469 -0.1294 -0.1461  0.0524
30817W        W46286   6.612  15.996  12.886 -0.1763  0.0261 -0.2507
30818W        W46287  14.343   0.913  11.845  0.1250  0.1898  0.1543
30819W        W46288  15.102   7.953   2.845 -0.3409  0.2788  0.1594
30820W        W46289   2.147   1.527   3.190  0.3142 -0.1077 -0.4844
30821W        W46290  12.157   8.083  15.025  0.4072  0.1776 -0.0410
30822W        W46291   8.681   5.651  10.425  0.1779 -0.0725  0.2290
30823W        W46292   8.319   9.669   2.825  0.0060 -0.0235 -0.1455
30824W        W46293  11.593   0.591  14.689  0.1926  0.1458  0.1455
30825W        W46294  13.293  16.302  11.597  0.1519 -0.0299 -0.0154
30826W        W46295   8.068   1.073  11.575 -0.2220  0.0450 -0.1979
30827W        W46296   0.960  10.805   5.354  0.2070  0.0173 -0.0301
30828W        W46297  10.244   0.449   2.854  0.2675  0.3399 -0.2614
30829W        W46298  13.969  16.449   1.846  0.1092  0.2603  0.0095
30830W        W46299   7.388  13.360  14.343 -0.0611  0.1898  0.1658
30831W        W46300  16.584  17.441   4.217  0.1058  0.0123  0.1484
30832W        W46301  11.627   7.289   1.099  0.2248  0.0877 -0.1492
30833W        W46302  11.576  18.936  12.683 -0.2754 -0.1334 -0.0112
30834W        W46303  15.275   0.597  14.966 -0.1436  0.0155  0.1224
30835W        W46304  10.986   2.687   1.884 -0.1418 -0.0872  0.2947
30836W        W46305  11.668  10.166   0.701  0.0303 -0.0502 -0.3345
30837W        W46306  14.718   6.940   0.577 -0.0121  0.0626 -0.2432
30838W        W46307   6.876   4.995   1.770  0.2040  0.1852  0.0380
30839W        W46308  12.499  13.557  15.017 -0.1649  0.3638 -0.4220
30840W        W46309   1.874   8.664   4.496 -0.1902 -0.1406 -0.0019
30841W        W46310   2.048  13.372   2.505  0.0997  0.0994 -0.1421
30842W        W46311  18.349  11.818  14.925 -0.1089  0.0561  0.1539
30843W        W46312  14.586  17.010   4.221  0.1457 -0.0257 -0.0863
30844W        W46313   4.596  10.426  14.192 -0.0558 -0.0157 -0.1954
30845W        W46314  15.322  18.892  12.915 -0.1270  0.1084  0.2284
30846W        W46315   0.696  15.332   2.496  0.2722  0.1294  0.0693
30847W        W46316  10.157   1.583  14.094  0.0362 -0.1302 -0.3992
30848W        W46317   9.839  18.876  12.092  0.3542  0.1268  0.1470
30849W        W46318   1.596   9.669   5.617 -0.1972 -0.2720  0.0969
30850W        W46319  17.831  18.486   2.584  0.3408 -0.1602  0.0613
30851W        W46320  15.543   6.865  10.431 -0.2954 -0.1866 -0.0508
30852W        W46321   8.660   4.637   5.364  0.0147 -0.1361 -0.2402
30853W        W46322  12.820  13.859   4.083  0.3771 -0.0407 -0.0324
30854W        W46323  14.842  17.783   5.009 -0.4113  0.3248 -0.1771
30855W        W46324  15.268   4.515  11.737  0.0730 -0.0762  0.0467
30856W        W46325  16.320   4.269  13.262 -0.3815 -0.2197  0.0794
30857W        W46326  16.631  11.287  10.718 -0.2952  0.2860 -0.0369
30858W        W46327  17.667   7.736   5.161 -0.1490 -0.2188  0.1081
30859W        W46328   0.137  18.911  10.643 -0.3042  0.1343 -0.0221
30860W        W46329   4.347   9.232   1.333  0.1961 -0.2450 -0.0288
30861W        W46330   0.124   9.566   3.235  0.2093  0.1776  0.1275
30862W        W46331   5.557  13.314   2.611  0.0459  0.0553  0.1728
30863W        W46332  12.737   7.829   4.132  0.4077  0.0113  0.0031
30864W        W46333  10.830   1.257   4.831  0.3220  0.0413 -0.1333
30865W        W46334  10.372   8.577   2.811 -0.1786 -0.0329 -0.1107
30866W        W46335  11.597  13.557  14.771 -0.4094  0.1381 -0.1754
30867W        W46336   3.237  12.732  13.643  0.0236 -0.0530 -0.0748
30868W        W46337   7.487  10.901   0.426  0.0391  0.0048  0.0317
30869W        W46338   4.412   3.660   4.882  0.0431 -0.0160  0.0568
30870W        W46339  18.811   8.313   0.127 -0.0861  0.1966  0.0473
30871W        W46340  17.758  12.623   5.238  0.1738  0.3975 -0.2464
30872W        W46341   8.072  15.958   3.609 -0.1891  0.0128  0.2115
30873W        W46342  15.383  13.800   2.855 -0.2693 -0.1252  0.0431
30874W        W46343  14.283  11.519  12.260  0.3690  0.0484  0.1597
30875W        W46344  11.971   5.010  15.085  0.4148  0.2512  0.2546
30876W        W46345   2.298  17.068  14.892 -0.3014  0.1650 -0.0551
30877W        W46346  17.859  17.958   1.767 -0.0275  0.0276  0.2960
30878W        W46347   9.704   8.249  15.238  0.0632 -0.2870  0.0168
30879W        W46348   3.841  12.412  10.834 -0.2014  0.0140  0.1007
30880W        W46349   2.070   4.493  12.249  0.0258  0.1190  0.1949
30881W        W46350   6.314   2.262  12.095  0.1424  0.3077  0.0388
30882W        W46351   0.533  10.491   0.057 -0.1364 -0.1894  0.1110
30883W        W46352  14.707   6.589   4.577  0.0062  0.3629 -0.2084
30884W        W46353  10.872   6.492   3.796 -0.1130 -0.1158 -0.3058
30885W        W46354   3.495   0.273   0.315 -0.0505 -0.3592  0.1500
30886W        W46355   4.999  12.917  12.710  0.5711  0.2904  0.0902
30887W        W46356  15.164   5.413   4.566 -0.0535 -0.2105  0.0883
30888W        W46357   6.128   9.236   3.482 -0.0226 -0.1041 -0.3362
30889W        W46358   4.538  15.752  12.852 -0.1251 -0.1339 -0.3177
30890W        W46359  16.307  10.590  14.852  0.1004  0.2266  0.0151
30891W        W46360   2.378  11.727   1.584 -0.1906 -0.1317  0.1182
30892W        W46361  11.308  15.804   1.819  0.2627 -0.1847 -0.0313
30893W        W46362  12.635  15.205  14.548  0.1985 -0.0019 -0.0899
30894W        W46363  13.664   8.360  14.255 -0.1889  0.0431  0.0598
30895W        W46364  15.748   4.191  14.047 -0.1014  0.1525 -0.2192
30896W        W46365   5.801  14.588   2.523  0.1103 -0.0612  0.1516
30897W        W46366  18.903  11.911   2.636  0.3719  0.0403 -0.2265
30898W        W46367  11.705   0.259  10.603 -0.0863  0.4129  0.0894
30899W        W46368   0.069   2.679  11.163 -0.0513  0.1148 -0.0162
30900W        W46369  11.664   5.165  14.266  0.1500  0.2952 -0.1343
30901W        W46370  13.916   9.213   9.926  0.0856 -0.0419 -0.3658
30902W        W46371  15.730   8.536  11.762  0.2556 -0.0415  0.1147
30903W        W46372  16.237  15.281   1.299 -0.1065 -0.0797  0.2693
30904W        W46373  13.333   3.780   3.906  0.1211 -0.2705 -0.1686
30905W        W46374  17.276   5.295   5.027  0.1873 -0.1083  0.1420
30906W        W46375   4.863  12.418   3.783  0.0380  0.0412  0.1740
30907W        W46376   8.769   6.519  14.123 -0.1706  0.1029 -0.0283
30908W        W46377   5.093   6.837   1.009  0.1111  0.0373  0.1010
30909W        W46378   7.853   9.754   3.720 -0.1147 -0.3128 -0.0133
30910W        W46379   5.907  18.364  13.668 -0.2177  0.3440 -0.1146
30911W        W46380   1.215   7.671  14.324 -0.1982 -0.0331 -0.2258
30912W        W46381   1.197   9.151   0.086 -0.1539 -0.1556  0.3583
30913W        W46382  10.948   1.985  11.577 -0.1984  0.4712  0.1794
30914W        W46383  17.471  15.061  13.591  0.0365 -0.1723 -0.4880
30915W        W46384  12.970  12.076   3.481 -0.0183  0.3515  0.3329
30916W        W46385   4.858  12.716   1.206  0.0600  0.1267 -0.0328
30917W        W46386  16.924   2.882   2.269  0.0681  0.1185  0.2444
30918W        W46387  16.517   3.092   3.152 -0.2909  0.0140 -0.3893
30919W        W46388  18.053  16.790  14.457 -0.0536  0.0163 -0.1347
30920W        W46389  11.916  14.927   2.135 -0.0764  0.0118 -0.1868
30921W        W46390  10.210   0.184  13.156 -0.0550 -0.0545  0.3131
30922W        W46391  15.603   7.035  14.075  0.1748  0.0113 -0.0338
30923W        W46392  13.347  10.446  14.949 -0.0074 -0.1672  0.1227
30924W        W46393   9.684   0.259  12.931  0.1578 -0.2785 -0.2402
30925W        W46394  11.562  12.981   2.518  0.0089 -0.4059 -0.3038
30926W        W46395   8.371  12.580  15.205  0.2743  0.0992 -0.0662
30927W        W46396  12.291  12.131   5.113  0.0410 -0.0904 -0.1432
30928W        W46397   6.997   3.106  10.691  0.1843 -0.2781  0.1040
30929W        W46398  11.468   6.037   2.013 -0.3197  0.1027  0.1760
30930W        W46399  17.605   9.032  11.152  0.2354  0.0620  0.2811
30931W        W46400   5.195   4.085  12.296  0.1695 -0.2518 -0.0978
30932W        W46401  10.295   5.279  15.473  0.2335  0.1010 -0.1698
30933W        W46402   2.903  13.017  11.922 -0.3219  0.0325  0.3471
30934W        W46403   0.316   5.200   3.298  0.0474 -0.2228 -0.1822
30935W        W46404   5.360   6.303  10.690  0.0181  0.0230 -0.1147
30936W        W46405   2.363  14.716  14.169  0.1443  0.2186  0.1665
30937W        W46406  13.453  13.433   6.485  0.2573  0.3107 -0.1354
30938W        W46407   8.694   4.187  14.750  0.0621  0.4047  0.2022
30939W        W46408   9.212   4.136  11.128 -0.0069  0.1288 -0.0141
30940W        W46409  15.477   2.349  11.911  0.0013 -0.0928 -0.1812
30941W        W46410  13.162  17.906   1.082  0.4116  0.1698 -0.3065
30942W        W46411   0.976  13.019  14.189 -0.0322 -0.1447  0.2955
30943W        W46412  17.492  13.035   3.606  0.1170  0.1622  0.1687
30944W        W46413   0.283   0.194   2.257 -0.1135  0.0596  0.0599
30945W        W46414   7.127   1.425  12.447  0.2553 -0.1038  0.1455
30946W        W46415   1.351   3.205   1.195 -0.3874 -0.1042 -0.1072
30947W        W46416   8.205  15.907   5.756  0.4166  0.1007 -0.2731
30948W        W46417   0.427   4.324  12.960 -0.3110  0.1407  0.1488
30949W        W46418   5.362   7.617   4.285  0.1048  0.1689  0.2215
30950W        W46419  18.747  18.103   4.831  0.0721 -0.1746  0.0329
30951W        W46420   8.457   1.693   5.420  0.1472  0.0154 -0.0587
30952W        W46421   9.808   9.176   5.375 -0.2796  0.0965 -0.0206
30953W        W46422   2.416  18.143   0.974 -0.0109 -0.1746  0.1252
30954W        W46423  16.387   4.306   3.657  0.0364  0.1821  0.2911
30955W        W46424   4.292   2.455  12.381 -0.0331 -0.0139  0.1830
30956W        W46425   4.715  15.082  14.023  0.4591 -0.0617  0.0181
30957W        W46426   0.463   7.533  11.414 -0.0966  0.0146 -0.1438
30958W        W46427  15.411  15.380   2.565  0.1970  0.2761  0.1054
30959W        W46428   8.619  11.627   3.178  0.0578  0.0548  0.1810
30960W        W46429  14.961   2.278  13.619  0.0523 -0.0473  0.1588
30961W        W46430  17.982   6.637   1.434  0.1103  0.2771  0.0216
30962W        W46431   3.013  15.794   2.514 -0.2179  0.1792 -0.1766
30963W        W46432   6.042   1.378   3.124 -0.1051 -0.0399  0.0814
30964W        W46433   2.336   0.067   2.339  0.1946 -0.3031  0.0117
30965W        W46434  14.362   5.368   4.147 -0.3899  0.1279  0.1495
30966W        W46435   3.574  10.066   3.922  0.0283  0.1503 -0.0056
30967W        W46436  15.959   0.300  11.235  0.0702  0.0150 -0.0729
30968W        W46437  11.904  18.501  11.277  0.1569 -0.1763  0.0126
30969W        W46438  10.913   2.533  11.183  0.3957  0.2287 -0.1956
30970W        W46439  13.659  11.669  14.445  0.1333 -0.3142 -0.1638
30971W        W46440  17.669   6.510  14.229 -0.2710 -0.2062  0.1928
30972W        W46441  12.125   1.644  13.136 -0.2466  0.0829 -0.1033
30973W        W46442  17.944   2.895   4.826 -0.1846  0.4361 -0.3604
30974W        W46443   8.497  16.329   3.888  0.3541 -0.2097 -0.0268
30975W        W46444  11.702   0.901   4.315 -0.0101 -0.1481  0.3235
30976W        W46445   2.855   0.865   2.164 -0.1762  0.1871 -0.0986
30977W        W46446  18.209   3.403  14.079 -0.0771 -0.0395  0.0158
30978W        W46447   1.477  17.064  14.117  0.2291  0.0398 -0.3967
30979W        W46448   5.366   2.148  15.080  0.0307 -0.0208 -0.4296
30980W        W46449   1.773   6.007   2.210 -0.0219 -0.1883 -0.3672
30981W        W46450  10.197   1.478  14.606 -0.2990 -0.3548 -0.1503
30982W        W46451  10.007   3.860   0.446 -0.1245 -0.3698  0.1850
30983W        W46452  18.159  13.923   5.644  0.0434  0.3310  0.0343
30984W        W46453   7.430   5.868   1.343 -0.1820 -0.1314 -0.1477
30985W        W46454  11.512  12.193   2.942  0.1362  0.0652 -0.0082
30986W        W46455   0.954  17.663   2.581 -0.1180  0.0364  0.1328
30987W        W46456   7.968   1.151   1.870 -0.1351  0.0844  0.1229
30988W        W46457  15.202   4.681   5.247  0.2821 -0.2975  0.0148
30989W        W46458  16.401  11.298  11.697  0.3137  0.0470 -0.0646
30990W        W46459   4.056   8.588   2.767 -0.1378  0.0335  0.2479
30991W        W46460   4.092  13.045   0.844 -0.1141 -0.1206 -0.4204
30992W        W46461   1.541   7.941   3.023 -0.1843  0.1269  0.0028
30993W        W46462   3.168  17.736  14.462 -0.0379  0.1206 -0.0112
30994W        W46463  15.840   3.676  10.663  0.0241 -0.3076  0.1359
30995W        W46464  15.934   4.379   3.271 -0.1590  0.1426 -0.1967
30996W        W46465   1.565  15.076  13.708  0.0354  0.0360  0.2388
30997W        W46466   3.574   7.937   3.041 -0.0459 -0.3298  0.1299
30998W        W46467   8.067   6.968   0.007 -0.1097 -0.1074  0.1472
30999W        W46468   3.178   5.123   1.781  0.0487 -0.1821 -0.1681
31000W        W46469   2.011  11.701  11.758  0.2535  0.2206 -0.0085
31001W        W46470  16.682  18.060  13.632 -0.1335 -0.0088 -0.2010
31002W        W46471   4.270  11.888   0.321  0.0052 -0.1022  0.0153
31003W        W46472  17.921  12.163  12.082  0.0306 -0.4572  0.1645
31004W        W46473  14.738   3.674  15.204 -0.1216  0.0215  0.3441
31005W        W46474   0.638   9.358  15.349 -0.2659 -0.0247 -0.0703
31006W        W46475   2.367  11.374  11.507  0.0647 -0.2706 -0.1657
31007W        W46476   3.865  15.214   2.920 -0.0741 -0.2364 -0.1432
31008W        W46477  15.079   4.980   3.361  0.3345  0.2008  0.0723
31009W        W46478   2.215  15.659   5.190  0.1685  0.0430 -0.1900
31010W        W46479   5.902   0.585   0.062 -0.2206 -0.0987 -0.3044
31011W        W46480  14.551   5.211   5.031  0.1229  0.2600 -0.0030
31012W        W46481  10.346  17.712  10.925 -0.0419  0.0864 -0.2470
31013W        W46482   1.302  14.617   4.085 -0.0226 -0.2298 -0.4091
31014W        W46483   5.052  12.724  10.170 -0.0831 -0.2728 -0.1022
31015W        W46484   4.354  10.152  15.344  0.0763  0.0071  0.3617
31016W        W46485  18.367   6.304   0.835 -0.1839 -0.1129  0.0807
31017W        W46486  17.269  16.042  14.969 -0.2839 -0.2281 -0.1990
31018W        W46487   2.006   7.803   0.052  0.1221 -0.0963  0.1766
31019W        W46488   5.753  15.259  12.571 -0.0556 -0.2127  0.1688
31020W        W46489   6.371   1.806  15.436 -0.1376 -0.2728  0.2230
31021W        W46490  11.791   5.902  14.514  0.1693  0.2201  0.0901
31022W        W46491  13.155  18.220   5.218  0.0478  0.4543  0.1852
31023W        W46492  17.048  10.022  11.080  0.1514  0.0802 -0.0459
31024W        W46493   5.388  14.728   9.432 -0.3115  0.1951  0.1642
31025W        W46494  15.980   3.073   1.531 -0.0486 -0.5225  0.0587
31026W        W46495   6.464   7.459  12.965 -0.1979 -0.0194 -0.0063
31027W        W46496   7.101   2.001  11.484  0.0098  0.1906 -0.1802
31028W        W46497   3.028  15.420   5.435  0.0726  0.0916 -0.0502
31029W        W46498  15.156  11.643   5.509 -0.2963  0.0749  0.1684
31030W        W46499  15.808  14.285  15.016  0.1249 -0.1783  0.0079
31031W        W46500   7.319   7.798   3.403  0.1206  0.0454  0.0743
31032W        W46501   5.289   8.221  12.581  0.1032  0.0587  0.1624
31033W        W46502   6.640   1.558   1.700  0.0824 -0.1259 -0.1666
31034W        W46503   4.992   6.291   5.016  0.0452 -0.0513 -0.0065
31035W        W46504  17.440   8.234   0.783 -0.0316 -0.0908 -0.0361
31036W        W46505  16.480  17.438  13.028  0.4751  0.2815  0.0820
31037W        W46506   8.221   3.367  12.644  0.0528 -0.0026  0.1157
31038W        W46507  10.953   8.776  14.868  0.1759 -0.2561 -0.0315
31039W        W46508   9.838  11.948   3.270 -0.1661 -0.4199  0.0010
31040W        W46509   0.026   5.236   0.592 -0.0087 -0.0581 -0.0648
31041W        W46510  18.092   1.866  15.066 -0.2319  0.0119  0.0932
31042W        W46511   4.239   5.452  12.772  0.0543  0.0453 -0.4240
31043W        W46512   2.529  17.508   4.495 -0.0618  0.2050  0.2714
31044W        W46513  13.724  15.501  10.612  0.4416 -0.6122  0.0511
31045W        W46514  10.532   1.240  12.937  0.2331 -0.1973  0.1952
31046W        W46515   4.680   9.446   3.619 -0.1523  0.2890 -0.3017
31047W        W46516   3.723  14.122   0.235  0.1505  0.2470 -0.0380
31048W        W46517  11.129  12.501  12.248 -0.4419 -0.1651  0.1599
31049W        W46518  13.436  16.000  15.253 -0.3308  0.2397 -0.2701
31050W        W46519   9.107   4.975  15.123 -0.0603  0.2883 -0.1682
31051W        W46520   5.675   4.710   0.833  0.1837 -0.3852  0.0212
31052W        W46521   9.040   1.351   2.228  0.2223 -0.2807  0.3756
31053W        W46522  17.994  14.310  11.161  0.1244 -0.1063  0.3284
31054W        W46523  15.586   0.532   1.527 -0.2232 -0.1146 -0.3533
31055W        W46524  13.051   4.633  13.144  0.0319 -0.0843  0.0386
31056W        W46525  17.871   8.684   4.365 -0.0846  0.0203 -0.1466
31057W        W46526   3.333   9.751   2.059 -0.0141 -0.0173  0.2023
31058W        W46527  18.184   9.058  13.676  0.0717 -0.1970  0.2827
31059W        W46528  11.129   8.314  14.732  0.0863 -0.1086  0.0744
31060W        W46529   7.696  18.841   0.553  0.0440  0.2217  0.2273
31061W        W46530  12.189   9.304   4.244 -0.0959  0.0921  0.1876
31062W        W46531   5.554  18.454  14.409 -0.1171 -0.1531 -0.2586
31063W        W46532  16.519  16.855  15.330  0.1291 -0.0888 -0.0906
31064W        W46533   2.628   3.770   2.792 -0.2854  0.1282 -0.1893
31065W        W46534   5.202   8.086  13.301  0.0268  0.1257 -0.2779
31066W        W46535   5.230  12.352  13.281  0.2001 -0.0015  0.0309
31067W        W46536  18.253  16.949   0.836 -0.0990 -0.3459  0.1696
31068W        W46537  12.261  17.174   0.432  0.1498 -0.2975  0.0138
31069W        W46538   4.572  12.310   9.967  0.0200 -0.0947 -0.3130
31070W        W46539  14.126  15.257   4.037 -0.2755 -0.0355  0.0446
31071W        W46540   7.735   8.818   2.350  0.0417  0.0897  0.2087
31072W        W46541  11.078   9.417   0.872 -0.1140 -0.2158  0.0604
31073W        W46542   9.536  15.456  13.858  0.3253  0.2161 -0.1945
31074W        W46543  13.565   0.023  15.181  0.1492  0.0147  0.3069
31075W        W46544   3.837   5.767   5.156 -0.0551  0.0240 -0.2322
31076W        W46545   7.572  17.790   3.240 -0.0524  0.4200 -0.2753
31077W        W46546   1.640  12.459   4.929 -0.1715 -0.0052 -0.0407
31078W        W46547  15.065  11.165   5.343  0.0601 -0.1249 -0.3699
31079W        W46548  16.724  12.472   3.674  0.0274  0.2986 -0.0054
31080W        W46549   1.349   8.821  10.927 -0.1326  0.2739  0.1755
31081W        W46550  15.598  17.736  13.819  0.2386  0.4707 -0.1638
31082W        W46551  11.469  16.435   2.031 -0.0658  0.1547 -0.1122
31083W        W46552   1.162   0.662   4.855  0.0149 -0.1475  0.0216
31084W        W46553   8.503  18.839  11.095 -0.0371  0.0764  0.2566
31085W        W46554  12.438  15.230  12.030 -0.0106 -0.1997 -0.1858
31086W        W46555  13.801   7.545  14.706  0.2442 -0.1967  0.1178
31087W        W46556  12.848  11.664  15.497  0.0926 -0.3670 -0.0813
31088W        W46557  14.145  14.780  12.204 -0.1137  0.1311  0.1072
31089W        W46558  16.026   7.567  13.364  0.3912 -0.0691  0.2349
31090W        W46559  16.713   9.914   0.455 -0.1032  0.1024  0.1893
31091W        W46560  10.362  11.633  13.905  0.1306  0.0950  0.0696
31092W        W46561  12.415  14.809  12.327  0.0373  0.3766 -0.3272
31093W        W46562   1.143   1.448   2.861  0.1947  0.0355 -0.2501
31094W        W46563   1.292  16.427   3.100 -0.2555  0.0635 -0.0521
31095W        W46564  16.072  17.501  12.634  0.1505 -0.3579 -0.1746
31096W        W46565   6.771  17.998   4.993 -0.0410 -0.0985 -0.2997
31097W        W46566   1.370   5.875  11.302 -0.0072 -0.0143  0.0982
31098W        W46567  14.328  17.008   0.599 -0.2274  0.2315  0.0619
31099W        W46568  16.258  18.713  13.275 -0.0634 -0.0379 -0.1840
31100W        W46569   5.704   9.702  13.261  0.0482 -0.3163 -0.0591
31101W        W46570   3.805   1.566  14.183 -0.3533 -0.1946  0.0874
31102W        W46571  12.083   9.704   1.940  0.1949 -0.0773  0.2880
31103W        W46572   8.842   5.131   0.031 -0.0395  0.2250 -0.1445
31104W        W46573   8.089   2.699   2.420  0.0700  0.1406  0.0638
31105W        W46574   9.574   1.779  15.020  0.1185 -0.0162 -0.0766
31106W        W46575   7.873   0.862   2.773  0.1080 -0.1006  0.0640
31107W        W46576  18.661  14.158  12.111 -0.1479  0.1034  0.0373
31108W        W46577   2.705  13.106   3.256  0.0481  0.1015 -0.1438
31109W        W46578   4.953  18.557  11.630  0.3834  0.3023 -0.1683
31110W        W46579  14.109  10.308   1.441  0.1230  0.0277 -0.3897
31111W        W46580  15.248   5.229   0.869 -0.2279  0.2216 -0.2639
31112W        W46581  12.393  11.235   4.972  0.2516  0.0535  0.1254
31113W        W46582  10.992  12.736  13.542 -0.0375 -0.0825 -0.1173
31114W        W46583   8.963  15.316   0.091 -0.2250 -0.0771  0.0448
31115W        W46584  10.291  16.810   6.163 -0.2768  0.1004  0.0648
31116W        W46585  18.151   2.304   0.944 -0.0457 -0.1979  0.3177
31117W        W46586  11.695   4.265  12.104  0.0221 -0.1274 -0.1830
31118W        W46587  13.040   2.831  14.754  0.0616 -0.0390  0.0182
31119W        W46588  12.767   7.855   4.621  0.5133  0.1884  0.1031
31120W        W46589   8.553   0.041  11.606 -0.0674 -0.0064  0.0734
31121W        W46590   1.562   7.771  12.774  0.1762  0.1469  0.0595
31122W        W46591  14.300   6.367  12.611  0.1270  0.1878  0.0923
31123W        W46592  11.032   5.392   2.244 -0.1106 -0.1834  0.0361
31124W        W46593  10.184  12.656   4.703  0.0165  0.2592 -0.0686
31125W        W46594  10.076  13.564  11.575 -0.3616 -0.0543 -0.1332
31126W        W46595   1.661   1.223   0.407 -0.2119 -0.2486  0.0138
31127W        W46596   5.747  11.305  11.329  0.2058  0.0738  0.2592
31128W        W46597   0.087  16.716  14.455  0.0722 -0.2003 -0.0847
31129W        W46598   5.287   8.747   5.773  0.2052  0.2147 -0.3848
31130W        W46599   4.143   5.345   4.705 -0.2356 -0.4578  0.0221
31131W        W46600   3.778   7.766  13.569 -0.0361  0.1283 -0.0655
31132W        W46601  15.608   5.861   3.329 -0.2738  0.0550 -0.3433
31133W        W46602   1.546  18.229   3.748  0.2272 -0.0931  0.5581
31134W        W46603  15.809   2.092   2.594 -0.0517 -0.0295 -0.0378
31135W        W46604   5.928   1.484  15.065  0.2436 -0.3270 -0.0325
31136W        W46605   3.951   7.652  12.860  0.1190 -0.2307 -0.0407
31137W        W46606   5.766   5.845   3.877  0.3218 -0.0436 -0.0291
31138W        W46607  11.220  15.859   0.262  0.1790 -0.0484 -0.0276
31139W        W46608   7.257  13.663  12.922 -0.2258 -0.1687  0.0408
31140W        W46609   7.606  15.760  12.885 -0.0178  0.0367 -0.2694
31141W        W46610   6.700  15.263   2.323 -0.4417  0.0499  0.0868
31142W        W46611   6.387   3.687   1.003 -0.0456 -0.0002  0.3329
31143W        W46612  18.924   3.493   0.665 -0.1474  0.0946 -0.1840
31144W        W46613   4.861   4.152   1.881  0.4369 -0.1879 -0.3826
31145W        W46614  16.773   8.409  12.017 -0.4437  0.1103  0.1834
31146W        W46615   2.420   2.032   4.333 -0.1379  0.0821 -0.0258
31147W        W46616  12.806  14.861  12.692  0.0148 -0.1267  0.1724
31148W        W46617   6.134  11.199  13.394 -0.1952 -0.1078  0.0819
31149W        W46618   9.727   2.957  10.815 -0.1620  0.1659 -0.0119
31150W        W46619   8.019  10.019  10.894 -0.6670 -0.0836  0.0968
31151W        W46620   1.624  12.583  12.665 -0.2088 -0.2512  0.0063
31152W        W46621   3.561   5.577  13.819 -0.1559 -0.2708 -0.1824
31153W        W46622  17.488   7.882   3.804 -0.1417  0.0461  0.0920
31154W        W46623  18.521   8.748   4.328 -0.0263 -0.1041  0.2897
31155W        W46624   5.070  11.580  14.845 -0.0754  0.3823 -0.2212
31156W        W46625   5.691   8.073   1.061 -0.0122 -0.1346  0.0662
31157W        W46626   2.350  11.137   4.565 -0.5078 -0.1230  0.2001
31158W        W46627   3.256   9.715   0.068  0.1877 -0.2230  0.0564
31159W        W46628  12.493   8.339   1.071  0.0246 -0.1501 -0.1819
31160W        W46629  11.443   0.974  13.583  0.2056  0.1963  0.1776
31161W        W46630   3.243  18.924   1.701 -0.1873  0.3224  0.1841
31162W        W46631   0.617  18.354   3.973 -0.0025  0.1425  0.4784
31163W        W46632   5.044   6.806  15.254  0.0320  0.0533  0.0790
31164W        W46633   4.993   6.074  12.886  0.0518  0.0949 -0.3601
31165W        W46634  18.896  15.014   3.860  0.1842  0.0535  0.0404
31166W        W46635   1.861  16.410   4.784 -0.1296 -0.3267 -0.2434
31167W        W46636  16.678  17.287  14.952 -0.0724  0.3477  0.1621
31168W        W46637  17.871  11.062  12.165 -0.1653 -0.2238 -0.0165
31169W        W46638   4.642  15.640   3.971  0.0761  0.1966 -0.0928
31170W        W46639   2.574  10.322   4.735 -0.4245  0.1064  0.3098
31171W        W46640  15.982   4.100   1.105  0.3240 -0.5392  0.2148
31172W        W46641  18.309   3.071  12.534  0.1822  0.3724  0.3805
31173W        W46642   2.259   0.300  10.672  0.2211  0.0261 -0.4061
31174W        W46643   5.863  10.699   0.041 -0.0972  0.0821 -0.1761
31175W        W46644   2.525   3.515   1.985  0.1020 -0.0042  0.0282
31176W        W46645   5.263  11.763  10.624  0.2370  0.4044  0.0705
31177W        W46646   9.816   9.360   9.933  0.1377  0.1914 -0.1078
31178W        W46647  17.544   0.864   0.754 -0.0859 -0.0632 -0.1442
31179W        W46648  14.700   1.560   3.754 -0.1806 -0.0523  0.2158
31180W        W46649  17.826   6.594   3.807 -0.3867  0.0624 -0.0589
31181W        W46650   5.995  10.418   2.283 -0.0837 -0.0730  0.4180
31182W        W46651   1.088   2.366  15.085 -0.1453  0.0355  0.0421
31183W        W46652  15.343  15.008   9.757  0.1576 -0.2997  0.1371
31184W        W46653  10.319  17.554   4.780  0.1318 -0.2621 -0.1882
31185W        W46654  17.804  13.632   0.191 -0.3549 -0.0749 -0.0405
31186W        W46655   4.138  13.818   0.477  0.0570 -0.0014 -0.1039
31187W        W46656  10.587   1.846  14.767 -0.1439 -0.1364  0.3394
31188W        W46657  17.080   9.119   0.916  0.0237 -0.1002 -0.0282
31189W        W46658  15.716   8.918   1.507 -0.1677  0.2053  0.0541
31190W        W46659  18.367  12.105  10.477  0.1834 -0.0909  0.3338
31191W        W46660  11.625  16.838   3.336 -0.0539 -0.0997  0.2611
31192W        W46661  15.768  16.475  13.927  0.0996 -0.0273 -0.0384
31193W        W46662   2.543  18.891  11.579 -0.1205 -0.3252  0.2248
31194W        W46663  10.396   7.669   2.540 -0.1481 -0.1342 -0.2676
31195W        W46664   1.502   5.447  10.873 -0.1205 -0.5400 -0.1249
31196W        W46665  13.777   4.907  13.841  0.0681 -0.1374 -0.0251
31197W        W46666   2.627   8.894  14.988 -0.0470  0.0714 -0.1965
31198W        W46667  11.124   7.797   2.115 -0.1778 -0.1844 -0.2324
31199W        W46668  18.334   4.907   3.733 -0.0671  0.2109  0.0048
31200W        W46669  10.095   9.618   1.181  0.0258 -0.1202 -0.1978
31201W        W46670   8.210   4.401   2.477 -0.1392 -0.2564 -0.2007
31202W        W46671   2.138   9.734   3.465  0.3197 -0.1162  0.0774
31203W        W46672   4.401   9.351   4.473 -0.0823  0.0887 -0.0255
31204W        W46673  11.159  16.229   1.516  0.0822  0.1558  0.2743
31205W        W46674  11.590   1.210   0.929 -0.0460 -0.0911 -0.3767
31206W        W46675  12.675   2.908   4.355  0.1983 -0.0578 -0.0366
31207W        W46676  15.414   3.726   3.237 -0.1350 -0.4615  0.0366
31208W        W46677   3.434   7.245   4.203 -0.3252  0.0142 -0.1036
31209W        W46678  18.509   8.762  14.147 -0.0115  0.0273  0.1351
31210W        W46679   5.829   2.598  14.078 -0.4539  0.2863  0.0414
31211W        W46680   1.756   1.231   1.439  0.0225  0.3843 -0.0813
31212W        W46681  13.058   0.241   3.650 -0.3506  0.0858  0.0647
31213W        W46682   8.622  18.129  11.108 -0.0343  0.0082  0.0654
31214W        W46683  12.156  18.371   3.673  0.2369  0.0007  0.1477
31215W        W46684  11.222  13.876   1.988 -0.1109 -0.0094 -0.0447
31216W        W46685  12.915  12.689  13.825 -0.1790 -0.4697  0.1555
31217W        W46686   0.013  10.065  10.348  0.3908  0.4886  0.1113
31218W        W46687  18.705  16.051   1.964 -0.0683 -0.1956 -0.2221
31219W        W46688  18.535  13.241  13.255  0.0859 -0.0876 -0.1955
31220W        W46689  12.267   1.020  10.506  0.2072 -0.1699  0.2332
31221W        W46690   8.007   3.605   1.621 -0.2236  0.3084  0.2429
31222W        W46691  13.727   3.477  11.328  0.1385  0.0901 -0.2722
31223W        W46692  10.230  16.335   6.079 -0.0326  0.2001 -0.0915
31224W        W46693  15.120   7.803  15.314  0.2386  0.1309 -0.0249
31225W        W46694  12.881   2.118  12.914 -0.1154 -0.1138 -0.1108
31226W        W46695  11.138   4.042  12.821 -0.1400  0.1807 -0.0036
31227W        W46696  13.377  13.683   5.939 -0.1308  0.4678  0.1227
31228W        W46697   0.937   5.634  13.278 -0.0635  0.1869 -0.2288
31229W        W46698  11.922   2.083  14.295  0.2589  0.1422 -0.0743
31230W        W46699   7.094  14.863   1.699  0.1517 -0.1440  0.1308
31231W        W46700   0.907  13.407  11.484 -0.0167  0.2410  0.3516
31232W        W46701   2.601   2.120  11.072  0.1642 -0.2675 -0.3880
31233W        W46702   9.963   1.965   0.909  0.0267  0.2772  0.2612
31234W        W46703  15.521  11.841   1.765  0.1797 -0.1165 -0.1627
31235W        W46704  11.425   5.256  11.163 -0.1848 -0.2268  0.3459
31236W        W46705  17.806  11.406   4.083  0.0123  0.3431 -0.0967
31237W        W46706   6.684  15.850   4.060  0.1056  0.0167 -0.4759
31238W        W46707  14.116   3.299  12.811  0.0550  0.0783 -0.2299
31239W        W46708  12.240   3.598   5.409  0.1083  0.2376  0.0584
31240W        W46709  17.529   7.864  11.594  0.3535  0.0307 -0.0079
31241W        W46710   3.363   3.710   2.114  0.3164  0.0274  0.1387
31242W        W46711  14.566   0.741   0.140  0.3994 -0.3885  0.0604
31243W        W46712  18.200   4.340   3.688  0.1991  0.0046 -0.2620
31244W        W46713  15.497  14.024  11.672 -0.1810 -0.0934  0.2117
31245W        W46714   4.868  10.872  11.817 -0.0101  0.0503 -0.3650
31246W        W46715   3.651   9.584  14.253 -0.2779 -0.0076 -0.0974
31247W        W46716  18.678  15.779  10.896 -0.0853 -0.1807 -0.0005
31248W        W46717  11.210  17.313   0.452  0.3486 -0.2373 -0.1552
31249W        W46718   7.155  10.080   5.407 -0.2724 -0.1345 -0.0822
31250W        W46719   0.792   7.418  14.163 -0.1556 -0.1421 -0.0259
31251W        W46720   9.500   9.025   2.966 -0.1648  0.2591  0.0534
31252W        W46721   9.833  12.514   3.164 -0.1258 -0.0705 -0.0764
31253W        W46722   0.492  11.372   4.850  0.0505  0.0504 -0.1194
31254W        W46723  12.991   9.194  13.047  0.0008  0.1263 -0.0648
31255W        W46724   1.069  18.886  10.883  0.1730 -0.3113 -0.4085
31256W        W46725   1.984  13.114   5.080  0.1942 -0.0535 -0.0869
31257W        W46726  16.987   5.857   2.705 -0.2023 -0.4244  0.1972
31258W        W46727   4.972  18.440   3.480  0.1224  0.0930  0.0280
31259W        W46728   2.681  12.620   5.685  0.2123  0.0072  0.5142
31260W        W46729  15.110   4.874  13.989  0.2950 -0.0363 -0.1556
31261W        W46730  15.717   6.337  14.721 -0.1330 -0.0398 -0.0692
31262W        W46731  12.089   1.248   4.215  0.1088  0.4049  0.1621
31263W        W46732  10.983   6.375   4.617 -0.2033  0.2087 -0.3972
31264W        W46733   9.877  12.447   4.372  0.2183 -0.2833 -0.0792
31265W        W46734  11.246  17.183   2.610  0.2640 -0.1622 -0.1395
31266W        W46735   2.286  18.233   4.410 -0.1051  0.1616  0.2249
31267W        W46736   1.829  12.971  13.992  0.0642  0.0426 -0.1935
31268W        W46737  10.475   0.744  13.061 -0.1385 -0.0148  0.0851
31269W        W46738   3.487  11.358   2.236  0.1532 -0.0812  0.1902
31270W        W46739   1.626  12.915   9.543 -0.2794  0.0068 -0.0919
31271W        W46740   8.329   6.412   0.108 -0.2541 -0.2207  0.0352
31272W        W46741   5.486   7.967   0.158  0.1729  0.0275  0.1806
31273W        W46742  14.925   7.714   4.845 -0.3823  0.0444 -0.2613
31274W        W46743   9.091  10.219  11.991  0.2067  0.1887 -0.1594
31275W        W46744   3.336  16.848  10.618 -0.2318 -0.1051 -0.3500
31276W        W46745   1.839  10.024   1.695  0.2614 -0.0486 -0.1759
31277W        W46746  17.871   9.371   3.788  0.1167 -0.2755 -0.0176
31278W        W46747  11.039   4.773   9.986 -0.1407 -0.3667  0.0698
31279W        W46748   0.370   9.797   1.861 -0.0955 -0.1463  0.3432
31280W        W46749  13.259   0.859   3.400  0.1245  0.0676 -0.0857
31281W        W46750   0.378  11.449   1.878 -0.0529  0.1916 -0.0171
31282W        W46751   1.607  17.539  10.493  0.1147  0.0287 -0.6469
31283W        W46752   5.221   9.928  13.656 -0.1098  0.0739 -0.2549
31284W        W46753  14.961   0.180   3.891 -0.1581 -0.0814  0.2241
31285W        W46754   0.854  12.823  15.105 -0.0809  0.0580  0.0838
31286W        W46755  18.037   5.173   3.472  0.2131 -0.0108  0.1421
31287W        W46756   6.456  11.156  14.658  0.0296  0.0501  0.2143
31288W        W46757   3.226   1.335   1.768 -0.0357 -0.0422 -0.0100
31289W        W46758   5.468   4.493  14.655 -0.0737  0.0265  0.0084
31290W        W46759  17.705  10.719  15.388 -0.0557 -0.1891 -0.2057
31291W        W46760   3.010  11.827  12.985 -0.0981 -0.4336  0.4191
31292W        W46761   0.919   9.066   2.638  0.1223 -0.1054 -0.0889
31293W        W46762  17.304   2.670  13.544  0.0607 -0.3928  0.1845
31294W        W46763  13.227   2.369  15.096 -0.0681  0.2109  0.3596
31295W        W46764   5.114   7.847   1.920  0.0110  0.3930 -0.1845
31296W        W46765   3.486  16.801  12.443  0.0623 -0.4921  0.1020
31297W        W46766  18.045  16.368   5.158  0.0687  0.3129 -0.0722
31298W        W46767  17.620  13.523  14.695 -0.0256  0.3338  0.0260
31299W        W46768   4.820   2.468   4.714  0.2235 -0.3689  0.1898
31300W        W46769   4.129   6.354  13.624 -0.0371 -0.1338  0.0462
31301W        W46770  17.083  16.044   4.279  0.0601 -0.0610  0.6293
31302W        W46771   1.935   2.211   0.746  0.0176 -0.0441  0.0295
31303W        W46772   7.921  12.754  10.630 -0.0639 -0.0950  0.1083
31304W        W46773   7.758  17.043  13.961 -0.0240  0.4487  0.1497
31305W        W46774  13.337  12.346   4.485 -0.0144  0.3775 -0.1463
31306W        W46775   8.847   8.618   0.843 -0.0071  0.0836  0.0845
31307W        W46776  15.204   4.368   3.824 -0.0859  0.1971  0.0436
31308W        W46777   6.282  13.767  14.499 -0.0424 -0.1803  0.1485
31309W        W46778  18.607  12.303   2.806 -0.0383 -0.4370  0.1446
31310W        W46779  10.892  10.194  12.147 -0.3094  0.1597  0.2121
31311W        W46780   9.376   1.755  11.564 -0.2627  0.0747 -0.0335
31312W        W46781  17.624  13.584  11.923  0.2112  0.1443  0.2047
31313W        W46782   5.961  14.704   3.330 -0.2937  0.1346  0.2925
31314W        W46783  17.965  17.612  15.504 -0.1104 -0.1176 -0.4310
31315W        W46784   2.056   4.480   0.687  0.0841 -0.0391 -0.0294
31316W        W46785  18.515   6.615   1.286  0.3260  0.1818  0.1388
31317W        W46786  14.358  11.031  14.131 -0.0464  0.0742  0.1811
31318W        W46787  13.405  10.215  13.065 -0.0590 -0.1653 -0.0685
31319W        W46788   5.150   1.298   5.146 -0.0542  0.0775  0.0321
31320W        W46789   4.590   3.273  15.420 -0.0615  0.0871  0.1826
31321W        W46790   8.125  12.059   0.060  0.1098 -0.2200 -0.2253
31322W        W46791   7.212  12.762   4.582 -0.0337  0.1707 -0.0303
31323W        W46792  14.213  18.466  12.214 -0.2909  0.0900 -0.0035
31324W        W46793  10.819  15.424  14.227  0.0796  0.1208 -0.1229
31325W        W46794  10.713   0.817  14.091 -0.0720 -0.4002  0.1244
31326W        W46795   0.116   7.446  15.365 -0.2003 -0.1482 -0.3113
31327W        W46796   2.620  10.129   2.933 -0.1609 -0.0268 -0.1334
31328W        W46797  12.628  17.458  13.268  0.3063 -0.2727 -0.1375
31329W        W46798   3.500   9.599   4.211 -0.2188  0.1210 -0.3060
31330W        W46799   8.899   2.041   1.274  0.0119 -0.0704  0.1463
31331W        W46800  10.489   2.911  14.424  0.1562  0.4746  0.1600
31332W        W46801  17.774   1.687   3.907  0.0268 -0.2067  0.2204
31333W        W46802  10.050  18.583  13.714  0.0732  0.1269 -0.0536
31334W        W46803   6.019   7.157   4.807 -0.4301 -0.1791  0.1373
31335W        W46804  16.440  15.501  11.245  0.1390 -0.1313 -0.0304
31336W        W46805  17.089  14.452  11.058 -0.0847 -0.1763 -0.1473
31337W        W46806   7.993   7.907  10.244 -0.2405  0.1189  0.2606
31338W        W46807  15.653   8.059  13.441  0.2193 -0.0018  0.1141
31339W        W46808   6.023  13.524   0.303  0.0996 -0.0546  0.3728
31340W        W46809  12.688  13.503   1.677 -0.1218  0.0707  0.0493
31341W        W46810  11.296   2.391  13.234 -0.2479 -0.2739 -0.0021
31342W        W46811  15.293   5.362  12.659  0.0779 -0.1952 -0.0285
31343W        W46812  15.468   9.689   5.632  0.2675  0.0627  0.2914
31344W        W46813   6.486  15.619  13.945 -0.1059 -0.3115  0.1465
31345W        W46814  17.170  11.589  10.775 -0.1319  0.0775 -0.0340
31346W        W46815  17.212  18.913  11.342  0.4491 -0.2003  0.1768
31347W        W46816  12.470   0.841  12.500 -0.0844  0.0988  0.0077
31348W        W46817  12.475   0.615   3.128  0.1826  0.1706  0.2367
31349W        W46818  14.935  14.061  11.854  0.1620  0.2167 -0.0538
31350W        W46819   0.456  13.898   5.106 -0.0809 -0.1696 -0.0762
31351W        W46820   9.840   0.469  12.363 -0.5734  0.2242  0.2490
31352W        W46821  16.506   7.198   5.915 -0.2759 -0.0874  0.2991
31353W        W46822   7.073   2.145  11.034 -0.1116 -0.0622  0.2005
31354W        W46823   3.017   0.701   1.384 -0.0068  0.1384  0.0731
31355W        W46824  13.809  11.594  13.488  0.0089 -0.0067  0.1302
31356W        W46825  15.933   4.484   3.771  0.2094 -0.1768  0.2189
31357W        W46826   8.205   0.461   3.584 -0.2605  0.1302  0.0805
31358W        W46827   6.620   2.143  11.278  0.1818  0.3845 -0.4197
31359W        W46828  10.240   9.190  10.094 -0.0284 -0.0057  0.0881
31360W        W46829  14.989   9.097   3.569  0.0823  0.2200  0.2135
31361W        W46830   3.860   6.807  11.084 -0.2235 -0.2934  0.0595
31362W        W46831   3.135   5.706  11.430 -0.1685  0.1006 -0.0691
31363W        W46832   9.911   2.256   3.900 -0.0299 -0.1347  0.2141
31364W        W46833  11.170  11.134   3.761  0.4378  0.0285 -0.2045
31365W        W46834  10.715  18.644   2.898 -0.1296  0.0065 -0.4663
31366W        W46835   1.927   5.052   4.139 -0.1714 -0.0642 -0.0831
31367W        W46836   7.782  13.604   2.108 -0.1991  0.1731  0.3024
31368W        W46837  13.283   3.576  13.037  0.0676 -0.0587  0.1662
31369W        W46838   5.764  11.344  13.700 -0.2544 -0.0240 -0.1368
31370W        W46839  18.837   0.140   4.234  0.0919 -0.1362  0.0801
31371W        W46840  17.686  18.623  15.041  0.0069  0.0680  0.2990
31372W        W46841   8.333  16.956   1.838 -0.3699 -0.0285  0.1858
31373W        W46842  16.827   7.308   0.475  0.3182  0.2882  0.2342
31374W        W46843   3.566   9.387   0.217  0.0814  0.1196  0.1065
31375W        W46844  18.485  15.711   3.284  0.1394  0.3656  0.1309
31376W        W46845  12.803   8.256  10.664 -0.0754  0.3077  0.1860
31377W        W46846  13.279   9.204  15.232 -0.4304 -0.1585 -0.1258
31378W        W46847   4.301   0.055   5.125  0.2468 -0.0211 -0.0321
31379W        W46848   6.035   7.815   3.353  0.3658 -0.1942 -0.4377
31380W        W46849   7.058   3.918   2.222  0.0140  0.3106 -0.1364
31381W        W46850   6.868  17.687  14.673 -0.0245  0.2085 -0.0225
31382W        W46851   4.995   3.354  14.351  0.5155  0.4469 -0.2145
31383W        W46852   8.622  10.540   1.382 -0.1476  0.1974 -0.0274
31384W        W46853  10.944  15.724  11.475  0.2572  0.1754  0.0485
31385W        W46854  10.680  13.253  14.510  0.1661  0.2918  0.1089
31386W        W46855  11.625  10.516   2.620  0.1442 -0.1722 -0.1565
31387W        W46856  10.308   1.817   1.958  0.0956  0.3752  0.2789
31388W        W46857   8.895  17.225  14.475  0.1493 -0.1582  0.3402
31389W        W46858  12.748  13.807   0.539  0.2474 -0.1079  0.2662
31390W        W46859   1.937   5.668   1.219  0.0396 -0.0392  0.0727
31391W        W46860  16.159   6.711  14.939  0.0021 -0.2730 -0.1089
31392W        W46861   1.296  17.914   4.937 -0.1158  0.0172  0.1164
31393W        W46862   4.272  11.978   0.873  0.2617  0.1045  0.2150
31394W        W46863  16.284   2.751   1.867 -0.3389  0.0632 -0.5229
31395W        W46864  10.049  17.003  14.703  0.1723 -0.3331  0.1668
31396W        W46865   1.657   7.382  11.382 -0.0327  0.1238 -0.2802
31397W        W46866   6.351   4.906  12.363  0.0467  0.0602 -0.0580
31398W        W46867   1.382  16.843  10.291 -0.1236  0.2190  0.0407
31399W        W46868   3.009  13.814   3.186 -0.0405 -0.0032 -0.0542
31400W        W46869   9.072  11.837   1.866 -0.2900  0.3543 -0.3612
31401W        W46870   8.585  13.694  11.999  0.1810 -0.2034 -0.2855
31402W        W46871  13.967   8.286   1.438  0.3120 -0.1365  0.1076
31403W        W46872   6.334  13.736  13.277 -0.0135  0.3200  0.1275
31404W        W46873  15.493  17.306   0.959 -0.0224  0.2118  0.0936
31405W        W46874  16.393  11.506  12.413 -0.2048  0.1657 -0.2968
31406W        W46875  16.791   4.087   1.154  0.2319  0.0709  0.3015
31407W        W46876   0.846  12.842  14.607  0.0303  0.1020 -0.2416
31408W        W46877  10.746   7.994   9.855  0.2100  0.0304  0.0472
31409W        W46878   8.334   6.231  11.657 -0.0114 -0.0661  0.2912
31410W        W46879  10.006  12.626  12.516  0.0588 -0.1336 -0.2393
31411W        W46880   0.982   6.391   2.160  0.1938 -0.1185  0.1309
31412W        W46881  13.495   1.369   4.065  0.1206 -0.4649  0.0345
31413W        W46882  17.651   9.184   0.677  0.0394 -0.2421 -0.1719
31414W        W46883   1.815   8.515  10.899  0.0719  0.2184 -0.1778
31415W        W46884  15.640   6.249  13.641  0.4734 -0.1957 -0.0097
31416W        W46885  13.112   7.080  11.240  0.2467 -0.3256  0.0547
31417W        W46886  14.041  16.234   0.515 -0.1318  0.1396 -0.1516
31418W        W46887  13.946  12.187  14.779 -0.0435  0.0841  0.1602
31419W        W46888  13.760   9.427   1.438 -0.0666  0.0163  0.0457
31420W        W46889  12.514  16.525   4.424  0.0592  0.3438  0.1974
31421W        W46890  12.676   5.891  14.324  0.0305 -0.2124 -0.1013
31422W        W46891  16.233  18.597  14.862  0.0936 -0.0998 -0.0196
31423W        W46892  12.503   2.871   3.338 -0.4035  0.1182  0.0465
31424W        W46893  14.415  15.381  15.445 -0.2284  0.1069 -0.1576
31425W        W46894  12.689  10.598  14.459 -0.0101 -0.0718  0.0048
31426W        W46895   7.057   1.197   4.350 -0.0648  0.3789  0.1740
31427W        W46896   7.142   8.945  12.508  0.1811 -0.0110  0.2689
31428W        W46897   9.180   2.966  15.216 -0.1098 -0.1090  0.0268
31429W        W46898  13.037   0.785  11.580  0.1383 -0.2166 -0.2137
31430W        W46899  13.538   1.762  13.842  0.0560  0.0124  0.1700
31431W        W46900   9.230   5.312   2.677 -0.0671 -0.0934  0.3048
31432W        W46901   5.378  10.754   4.108 -0.0987 -0.0815  0.3174
31433W        W46902  14.950  14.780   1.202 -0.2462 -0.2301  0.1264
31434W        W46903   3.645  17.130   4.379  0.0724 -0.0705 -0.3527
31435W        W46904   3.339   0.378  10.947  0.1398  0.2331 -0.1383
31436W        W46905   2.066   7.604  12.495  0.0571  0.2123  0.0237
31437W        W46906  11.407   6.275   3.089  0.3279  0.0953 -0.0707
31438W        W46907   5.993   9.276  10.176  0.0034  0.5180 -0.0652
31439W        W46908  17.972  11.511  14.582  0.2351 -0.0960  0.1520
31440W        W46909   0.779   0.243   1.366  0.0726 -0.0086  0.1069
31441W        W46910  11.925  16.019  12.340  0.3393  0.0634 -0.0047
31442W        W46911   6.550   1.186   4.182  0.1947 -0.1973  0.0269
31443W        W46912  15.232  10.158   2.817  0.0100 -0.2635 -0.0210
31444W        W46913  15.585  11.764  13.382  0.0235 -0.0922 -0.0704
31445W        W46914  14.018   1.081   2.295  0.1001 -0.1851 -0.1153
31446W        W46915   4.028   9.244  12.584  0.1687 -0.1450 -0.0132
31447W        W46916   1.749  15.450   4.907 -0.0526 -0.0997  0.0041
31448W        W46917  13.152   9.763  12.381 -0.1536  0.0034 -0.3921
31449W        W46918  10.973  16.383  12.723 -0.0219  0.2251 -0.0595
31450W        W46919  14.036   9.643   2.422  0.1950 -0.1223 -0.0159
31451W        W46920  12.356  15.719   0.284 -0.1116  0.2193 -0.1111
31452W        W46921   9.963   7.342   0.374  0.0185  0.0588  0.1290
31453W        W46922   0.615  14.345  12.111 -0.2137 -0.2689 -0.1048
31454W        W46923   2.584  17.230  12.071 -0.0952 -0.2361 -0.1450
31455W        W46924   4.292   0.788   1.911 -0.4177 -0.1232 -0.1840
31456W        W46925  15.016   5.036   4.919 -0.2275  0.0087 -0.1660
31457W        W46926  15.919   8.848  12.927  0.0234  0.2182 -0.0894
31458W        W46927   9.692  14.762  14.757 -0.1536  0.0478  0.1701
31459W        W46928  14.675   8.372  11.974  0.0595  0.2798  0.1627
31460W        W46929   8.312   2.634  15.329  0.1756  0.2130 -0.0744
31461W        W46930  18.264   0.107   3.532 -0.2503  0.2191 -0.2705
31462W        W46931   1.801  18.816  10.286 -0.0664 -0.2590  0.1156
31463W        W46932  15.162   0.530  12.091 -0.1722  0.0310 -0.0135
31464W        W46933   4.606  12.885  14.880 -0.0928 -0.0773 -0.0847
31465W        W46934   4.257   7.102   1.597 -0.1809 -0.1840  0.1690
31466W        W46935  13.918   2.238   3.782  0.1142  0.0913 -0.1750
31467W        W46936   1.170  11.408  11.939  0.0203 -0.2481 -0.2571
31468W        W46937  10.250  18.156  12.117 -0.0020  0.3488 -0.2724
31469W        W46938   3.637   5.340   5.298  0.0995 -0.0832 -0.1913
31470W        W46939  13.888   5.176  10.392  0.0972 -0.0486 -0.4746
31471W        W46940  18.296   5.582   2.293 -0.1994 -0.1484  0.0564
31472W        W46941   0.101   5.309  14.463 -0.1562  0.1392 -0.1327
31473W        W46942   9.199   9.547   4.550  0.2645  0.1613  0.0864
31474W        W46943   1.573  16.553   0.910 -0.0249 -0.0088  0.2513
31475W        W46944  13.584  15.189   3.406 -0.0921  0.0244  0.0229
31476W        W46945  14.112  16.860  11.295 -0.0600  0.5264 -0.1587
31477W        W46946  16.291  17.860   5.266 -0.1496  0.1087  0.0838
31478W        W46947  14.867   8.757   0.565  0.0290  0.5094  0.2841
31479W        W46948   1.292   2.510  11.225  0.2001  0.1254 -0.1019
31480W        W46949  10.078  17.270  13.792 -0.2163  0.1531 -0.0618
31481W        W46950   6.240   9.477   0.510  0.2220 -0.4001  0.0420
31482W        W46951   2.937  10.109   5.718  0.0238  0.0283  0.0975
31483W        W46952   4.101   7.916   5.442  0.1637 -0.1745  0.0112
31484W        W46953   0.409   0.186  15.312 -0.0739 -0.0991  0.0609
31485W        W46954   6.657   1.218   2.488  0.2200 -0.1428  0.1096
31486W        W46955   2.980   2.607  13.757 -0.0957 -0.2729  0.1866
31487W        W46956   1.756   1.400   2.794 -0.4443 -0.0847 -0.2074
31488W        W46957   5.475   0.894   4.736  0.0205 -0.2637 -0.0678
31489W        W46958  18.893  17.935  13.501 -0.1628  0.0684  0.2230
31490W        W46959   4.724   9.887  12.351 -0.1288  0.1588 -0.1329
31491W        W46960   8.197   2.573   4.781  0.0313 -0.3244 -0.0132
31492W        W46961   0.205  14.759   2.179 -0.1327 -0.1225 -0.3166
31493W        W46962   1.866  12.082  12.594  0.3479 -0.1883 -0.0880
31494W        W46963  17.041  15.666   0.147 -0.3476 -0.1395 -0.3105
31495W        W46964   5.400  11.493   3.890  0.1461  0.2864 -0.1010
31496W        W46965   4.864   4.671  10.030 -0.2651  0.1353  0.3076
31497W        W46966   2.495  14.407  12.535  0.1703  0.2284  0.3388
31498W        W46967  14.358   0.038   4.888  0.0952 -0.1536  0.2642
31499W        W46968   0.551   7.996   9.639  0.1304 -0.1033 -0.0184
31500W        W46969   1.567  10.722  11.498 -0.5743  0.4438 -0.0974
31501W        W46970   5.487  14.810  11.166  0.0512 -0.0741 -0.1414
31502W        W46971   1.944  12.631  10.777  0.1448  0.2670  0.1402
31503W        W46972  12.608   2.412   0.411  0.1526 -0.1146  0.2082
31504W        W46973   9.183   4.700   1.281  0.3376  0.0860 -0.1267
31505W        W46974  15.693  12.846   4.869  0.0754 -0.2265 -0.2544
31506W        W46975   1.310  17.628  12.463  0.1049 -0.3245  0.0116
31507W        W46976  17.615  17.322  13.130  0.1022 -0.1309  0.2398
31508W        W46977  15.183  10.797   3.856 -0.1224 -0.0986  0.0503
31509W        W46978   4.790   0.623  10.970 -0.2249 -0.0933 -0.0621
31510W        W46979   1.220  14.249  13.254  0.0735 -0.0596 -0.0680
31511W        W46980  16.044  16.959   3.401 -0.2990 -0.3143  0.1080
31512W        W46981   9.316   6.662  14.157  0.3178  0.1657  0.1393
31513W        W46982   6.205   4.833  15.085  0.2482 -0.1279  0.0267
31514W        W46983   4.261  18.043  11.296 -0.0571 -0.1941 -0.0606
31515W        W46984   1.590  17.823  14.607 -0.2777 -0.2377 -0.0043
31516W        W46985   9.552  13.412  11.363 -0.2657  0.1663 -0.1878
31517W        W46986  10.410  16.250  12.555 -0.0467 -0.3554 -0.1327
31518W        W46987   8.279   0.579  11.587  0.1075 -0.1878 -0.4455
31519W        W46988   0.875   5.713   4.860 -0.0106 -0.0213 -0.0745
31520W        W46989  18.721   6.339   5.306 -0.1618  0.0377  0.0598
31521W        W46990  18.505  12.550  13.857  0.0626 -0.2372  0.0564
31522W        W46991  13.476   4.091  13.757  0.0433  0.0810  0.0214
31523W        W46992   7.363  16.220  10.536 -0.1892  0.1329 -0.2489
31524W        W46993  16.954   4.654   1.386 -0.1059  0.0270 -0.1125
31525W        W46994  15.514  15.004   4.011 -0.0191 -0.2465 -0.2910
31526W        W46995  14.355   7.787  14.079  0.1484  0.1009  0.0906
31527W        W46996  13.530  13.126   4.845 -0.1279  0.0345 -0.0032
31528W        W46997  16.900  14.297   1.347  0.3465  0.0465  0.0372
31529W        W46998   6.425  14.435   3.382 -0.2355  0.2786  0.1540
31530W        W46999   0.600  17.708  15.503  0.2580 -0.0828  0.2489
31531W        W47000   5.093  16.172   0.077  0.2625 -0.2250 -0.1048
31532W        W47001  13.874   3.933  13.990 -0.0726  0.4224  0.0700
31533W        W47002  15.296   3.842  10.991  0.0582  0.3235 -0.0409
31534W        W47003  18.723  14.542  15.300  0.1620 -0.0697 -0.0329
31535W        W47004  17.873  16.676  15.399  0.0886 -0.1526  0.3434
31536W        W47005   5.476  16.896   3.143 -0.1097  0.0622 -0.0409
31537W        W47006   9.089   5.387  11.460  0.1671  0.0800 -0.2451
31538W        W47007   6.477   7.621  13.520 -0.0686  0.2912 -0.0739
31539W        W47008   6.638   4.788   4.917  0.2782 -0.3747  0.0472
31540W        W47009  10.074  14.433  11.659  0.0531 -0.0177 -0.0568
31541W        W47010  13.798  13.710   6.192  0.1234 -0.1228  0.0198
31542W        W47011   6.887  16.924   5.107  0.0880 -0.0795  0.0748
31543W        W47012   1.970   6.099  13.793 -0.0682 -0.1701  0.1566
31544W        W47013  17.637  13.588   1.501 -0.1068  0.2559 -0.1126
31545W        W47014   3.543   0.662  13.354 -0.2817  0.3147  0.0732
31546W        W47015   3.593  13.101  15.017  0.2673  0.3056 -0.3236
31547W        W47016   2.239   6.539  11.918 -0.0129  0.1948 -0.2124
31548W        W47017  13.479  17.913  13.823  0.1509  0.1411 -0.0575
31549W        W47018   5.084   5.954   3.127 -0.1787  0.0034 -0.2187
31550W        W47019  15.415  13.360  10.698  0.1316  0.0009  0.1236
31551W        W47020  13.500  15.093  13.580  0.0880 -0.1122 -0.0362
31552W        W47021   7.053   4.317  15.027 -0.4238 -0.1167 -0.0008
31553W        W47022  17.480  17.696  13.470 -0.0719  0.5578 -0.0042
31554W        W47023  13.281  14.886   2.764  0.2059 -0.3974 -0.0374
31555W        W47024  18.552  10.398   3.373  0.2369  0.0052 -0.0066
31556W        W47025   5.906  10.226  12.272 -0.0586 -0.3847 -0.1994
31557W        W47026  10.662   6.362  14.881 -0.2051  0.0848  0.0889
31558W        W47027   8.648  11.769   2.131  0.1611  0.0148  0.3412
31559W        W47028  15.088   4.060  11.930 -0.0987 -0.1870  0.0554
31560W        W47029  10.784   6.070   5.161  0.1655  0.2474  0.2334
31561W        W47030   9.081   9.095   4.788  0.0634 -0.4570  0.4778
31562W        W47031   4.621   5.363   2.093 -0.1955 -0.3921 -0.0064
31563W        W47032  10.351   8.650   0.835  0.2220 -0.0651 -0.0318
31564W        W47033   9.408   7.706   0.947  0.1253 -0.2747 -0.5460
31565W        W47034   7.202   2.189   1.749  0.0403 -0.2553  0.0537
31566W        W47035  15.950  14.052  10.584 -0.1780  0.0446  0.1179
31567W        W47036  13.572   5.501   3.790  0.1044 -0.0293 -0.0074
31568W        W47037   1.651   5.945  10.915  0.1908 -0.1051  0.0671
31569W        W47038  13.568  18.218   4.865  0.0021  0.3225 -0.5570
31570W        W47039  12.465  12.524  13.684 -0.0841 -0.1068 -0.2739
31571W        W47040  13.031   2.599  12.863 -0.1345 -0.1411 -0.0926
31572W        W47041   1.997   4.932   4.694  0.1413  0.0990  0.4566
31573W        W47042   6.326   5.210   5.245 -0.2074 -0.1914 -0.0978
31574W        W47043  15.252   8.723   5.004 -0.1142 -0.0218  0.0759
31575W        W47044  12.460  11.362  15.237 -0.1468  0.0304  0.2351
31576W        W47045   7.595   2.934   1.218 -0.2782 -0.1635 -0.2586
31577W        W47046  11.675  18.804   2.025 -0.4303  0.2667  0.2445
31578W        W47047  13.746  18.782  13.646  0.3596  0.2355 -0.0599
31579W        W47048  18.697   6.078   1.117  0.0045  0.0480  0.3714
31580W        W47049   4.774   3.756  11.575  0.1076 -0.0751  0.6525
31581W        W47050  11.581   1.104  11.281  0.2649  0.0309  0.1100
31582W        W47051   8.320   5.227  13.482 -0.0421  0.0054 -0.3148
31583W        W47052  10.493  14.575  11.174  0.2947 -0.0595  0.2057
31584W        W47053   6.872   1.391  15.357 -0.1454  0.1588 -0.0490
31585W        W47054  17.331   3.279   4.948 -0.1227 -0.2620 -0.0959
31586W        W47055  13.721  14.657  12.504  0.1566  0.0990 -0.0623
31587W        W47056  17.650  11.711   3.168  0.1237  0.2532  0.2876
31588W        W47057  17.963  15.432   0.324 -0.0694  0.1376 -0.1348
31589W        W47058   1.837  10.629   3.870  0.0579 -0.0985 -0.3007
31590W        W47059  16.846   5.966   1.832  0.2744 -0.3454  0.0353
31591W        W47060  17.618  10.655  12.512  0.1036 -0.2698  0.0393
31592W        W47061   3.768  17.538   1.588  0.0941 -0.2289 -0.3510
31593W        W47062  16.932  13.073  14.546 -0.0401  0.1962  0.0575
31594W        W47063   9.730   8.839   3.424  0.0818  0.2303  0.2430
31595W        W47064   1.806  17.663   5.140 -0.1960 -0.0275 -0.0416
31596W        W47065  13.062  17.914  11.049  0.1537  0.6598  0.1918
31597W        W47066   1.516  15.111   4.117 -0.1891  0.1027  0.4259
31598W        W47067   2.723  16.503   3.413 -0.0639  0.1270  0.2215
31599W        W47068  18.693  10.445   4.488 -0.1197  0.0032 -0.0984
31600W        W47069  14.021  16.373  14.643  0.3124 -0.0896 -0.2760
31601W        W47070   4.003   6.905  14.891  0.0901 -0.1365 -0.0374
31602W        W47071  17.756  10.431  13.904  0.0753  0.1820  0.2346
31603W        W47072   9.423  14.819   0.710  0.0203  0.2627 -0.1320
31604W        W47073  11.753  10.416  15.324  0.0279 -0.0584  0.2768
31605W        W47074  17.983  12.979  11.282  0.0869 -0.1084 -0.0397
31606W        W47075  10.329   5.682  12.965  0.0796  0.1811  0.3089
31607W        W47076   4.402   2.171  14.654 -0.0530 -0.1195 -0.1929
31608W        W47077  14.651  13.089  15.114  0.0752  0.2378  0.2899
31609W        W47078  10.112  12.155  12.650 -0.1699 -0.1276  0.1201
31610W        W47079  10.313  14.665  13.038 -0.3264  0.1003 -0.3375
31611W        W47080   0.880   2.388   0.053 -0.1853 -0.1804 -0.1751
31612W        W47081   7.205  10.895  12.567 -0.2053  0.2421 -0.1469
31613W        W47082   0.752   6.786  12.048 -0.0735 -0.0348 -0.1804
31614W        W47083  11.699  16.837  13.175 -0.1392 -0.1135 -0.0887
31615W        W47084  14.638   1.349   0.817 -0.3039  0.3278  0.2160
31616W        W47085  14.198   4.076  10.138  0.1982 -0.0866  0.2784
31617W        W47086  12.252   4.657   5.211  0.0308 -0.1492 -0.0705
31618W        W47087  14.562   8.682   2.478  0.0979 -0.0066 -0.1475
31619W        W47088  11.286  17.293   4.905  0.0345  0.1832 -0.1290
31620W        W47089   7.879   9.547  15.112  0.0502  0.1312 -0.0695
31621W        W47090   5.924  12.374  10.469 -0.0101  0.1020  0.0267
31622W        W47091   3.318   3.585  13.163 -0.1478  0.1392 -0.2671
31623W        W47092  10.985   3.806  13.917 -0.3271 -0.0326 -0.0686
31624W        W47093  16.727   7.558   2.206 -0.4469 -0.0669  0.1375
31625W        W47094   4.344  10.711   3.245 -0.3451  0.0766 -0.1339
31626W        W47095  15.705  13.464   2.703  0.0417 -0.0776  0.0061
31627W        W47096  10.216   9.438  10.781  0.2748 -0.0502 -0.0961
31628W        W47097  11.426   1.728   0.882  0.1119 -0.0622 -0.1546
31629W        W47098   2.825   6.832   2.809 -0.0571  0.3798  0.0610
31630W        W47099  15.381   8.372   0.446  0.2476 -0.1807  0.0928
31631W        W47100   0.650   9.995   2.208 -0.0325 -0.0182 -0.1308
31632W        W47101  14.563   7.727   0.081 -0.2735 -0.0942 -0.1776
31633W        W47102  14.513   6.491   3.145 -0.1618  0.0303 -0.0750
31634W        W47103  14.226  18.913   1.325  0.1419 -0.2733  0.0204
31635W        W47104  13.451   8.577   1.327  0.0732  0.3377 -0.1295
31636W        W47105  18.393  16.104   1.020  0.1955 -0.1016  0.1691
31637W        W47106  18.264   8.236  12.696  0.1848  0.0203 -0.1185
31638W        W47107   5.772  17.400   1.103 -0.1035  0.0176 -0.0807
31639W        W47108   5.586  11.917  12.543  0.0341  0.1530  0.0524
31640W        W47109  13.437  16.032   5.992 -0.0594 -0.1701  0.2299
31641W        W47110   1.831  11.121  13.589  0.0931 -0.1831  0.1103
31642W        W47111  14.681   2.495   3.757  0.2194 -0.2196  0.1695
31643W        W47112   2.887  11.960   1.408 -0.1625 -0.0356 -0.1565
31644W        W47113   6.864   4.308   0.639  0.0420 -0.0931  0.1464
31645W        W47114   2.747  10.481  14.969  0.3421 -0.0033  0.1081
31646W        W47115   7.245   1.711  13.830 -0.0274  0.0410  0.4243
31647W        W47116   9.157   9.947   1.113 -0.0482  0.1270 -0.1464
31648W        W47117   0.734   4.089  13.347  0.0665  0.0833 -0.1264
31649W        W47118  18.765  12.035  14.047 -0.2904 -0.2246  0.1210
31650W        W47119   8.990  13.572  15.205  0.2793 -0.2287 -0.0383
31651W        W47120   6.890  14.914  13.573  0.0021 -0.4565  0.1385
31652W        W47121  15.141  17.927  15.230  0.0028 -0.4200  0.0855
31653W        W47122  18.011   4.610   5.057  0.1626 -0.0805 -0.0988
31654W        W47123   3.759  15.583   4.956 -0.1534  0.0315  0.2151
31655W        W47124  16.422  16.099  15.238  0.0532  0.1662  0.0681
31656W        W47125   9.392   5.377   3.160 -0.3986  0.3121  0.0861
31657W        W47126   8.570  14.181  13.987 -0.0439 -0.1671 -0.0295
31658W        W47127  12.485   1.071   0.468 -0.4036 -0.0243 -0.0294
31659W        W47128  13.099  12.730   4.890  0.1485  0.1906  0.1844
31660W        W47129  13.326  11.683  11.919 -0.2347 -0.2434  0.1445
31661W        W47130   4.128   7.831  15.370  0.1605  0.0253 -0.1333
31662W        W47131   7.833  11.108   1.607 -0.0076  0.0991  0.1479
31663W        W47132   9.751   6.046  11.052  0.1300  0.0373 -0.1641
31664W        W47133   5.437   1.636  15.010 -0.1732  0.0845  0.0264
31665W        W47134   6.963   0.805  14.062 -0.1691 -0.0606  0.0843
31666W        W47135  16.318  14.822  12.798 -0.0107  0.3968 -0.1340
31667W        W47136   5.015  10.443  11.635 -0.1652  0.0578  0.0683
31668W        W47137   1.567  13.412   4.717  0.0206  0.1969  0.2149
31669W        W47138   0.147  18.483   3.125 -0.0757 -0.1047 -0.0221
31670W        W47139  17.575   1.788  13.948 -0.2435  0.1441  0.1793
31671W        W47140   8.004  13.235   4.668 -0.0749  0.2167  0.1709
31672W        W47141  16.677   8.817   2.457  0.0852 -0.3894 -0.2089
31673W        W47142  13.598  15.649   1.704 -0.0650 -0.0493 -0.1405
31674W        W47143   5.047   7.413   2.314 -0.3564 -0.0806  0.0336
31675W        W47144   1.798  16.993   0.120  0.0817 -0.0963 -0.1210
31676W        W47145   6.852  16.261   0.182  0.1592  0.2984 -0.0325
31677W        W47146  12.169  11.402   4.404  0.0160  0.0688 -0.2809
31678W        W47147   6.056   5.368  13.078  0.2874  0.0999 -0.1777
31679W        W47148   3.900  16.301  13.110 -0.0585  0.1105  0.2315
31680W        W47149   2.661   1.053   3.989  0.0434 -0.1865 -0.1020
31681W        W47150  11.147  12.815  15.116 -0.3362 -0.3166  0.3535
31682W        W47151  14.672   5.817   1.372  0.1032 -0.0946  0.3589
31683W        W47152  17.945  13.578   1.034  0.0737  0.1604 -0.2255
31684W        W47153   2.840  17.424  14.206  0.5260  0.5381 -0.1951
31685W        W47154  16.096  11.576  14.344 -0.2240 -0.1013 -0.0521
31686W        W47155  12.543   8.261   5.353 -0.1466 -0.0714  0.3636
31687W        W47156   2.033   7.707   9.243 -0.0804  0.1461 -0.1463
31688W        W47157   8.177   6.325  12.071 -0.2065 -0.2496 -0.0322
31689W        W47158   7.092   3.039   0.018 -0.0145 -0.0698 -0.2588
31690W        W47159   8.116  18.138  11.466  0.0549 -0.0799 -0.2364
31691W        W47160  18.788   7.670   2.566  0.2445 -0.0259 -0.0790
31692W        W47161   2.093   0.938   1.152 -0.1186 -0.1055 -0.0425
31693W        W47162   2.108   0.037  12.342 -0.2092 -0.1803 -0.2064
31694W        W47163  18.093   9.937  11.335  0.1995 -0.2436  0.2355
31695W        W47164  16.175   1.150   0.838  0.0313 -0.0660 -0.1859
31696W        W47165  18.293   2.272  12.037  0.0851  0.1566 -0.0568
31697W        W47166   0.103  16.472   5.434 -0.1734 -0.2319 -0.1241
31698W        W47167  16.957   4.394   2.985  0.0760  0.0324 -0.1087
31699W        W47168   9.700  10.235   4.578  0.1743  0.0257  0.0415
31700W        W47169   4.495   6.957  13.882 -0.0340 -0.1535  0.1712
31701W        W47170   8.220   3.883  12.702  0.1070 -0.0344 -0.1367
31702W        W47171  15.514   9.714   1.801  0.0089  0.0305  0.0996
31703W        W47172  17.598   8.524  12.715 -0.1182 -0.3835  0.1055
31704W        W47173   2.498  18.190  14.901 -0.3910  0.0751 -0.1363
31705W        W47174  15.252   2.766  15.109 -0.1136 -0.0759 -0.1881
31706W        W47175   4.538   3.185   1.556  0.0980  0.2369 -0.0543
31707W        W47176   1.335   9.437  15.189 -0.1100 -0.4493 -0.1023
31708W        W47177  16.591  17.526  12.018  0.1292 -0.0453 -0.3372
31709W        W47178  11.271  14.652   0.814 -0.0659  0.1169 -0.1430
31710W        W47179  16.642   4.747   2.737 -0.1154 -0.3244 -0.2033
31711W        W47180  14.167   8.512   1.064  0.1335  0.1255 -0.4038
31712W        W47181  18.411  10.083   2.536  0.1425  0.0045  0.2608
31713W        W47182  13.877   5.082  11.733  0.0108  0.0004  0.0146
31714W        W47183  17.555   2.538   3.255 -0.0451  0.2206  0.0700
31715W        W47184  16.928  15.730  10.740  0.1936 -0.3468  0.2414
31716W        W47185  13.953   6.833   2.024  0.1556 -0.0406  0.4154
31717W        W47186  18.719  14.539  13.551  0.1355 -0.2371  0.0772
31718W        W47187   0.283   7.827  14.478 -0.1879 -0.5530 -0.1645
31719W        W47188   1.487  12.269   4.012 -0.1291  0.1287  0.1603
31720W        W47189   5.146   0.524  15.108 -0.2138  0.0040 -0.2512
31721W        W47190  16.171   8.658   1.483  0.3355 -0.0123  0.0409
31722W        W47191   2.223  11.358  12.888  0.0792 -0.2528  0.3384
31723W        W47192  18.097  18.050   2.293  0.1415  0.2956  0.0662
31724W        W47193   9.246   5.052  11.118 -0.2323 -0.0502  0.2762
31725W        W47194   1.189  14.119  12.174 -0.0929 -0.5538  0.3415
31726W        W47195   9.671   5.391  12.331 -0.1431 -0.0348  0.0690
31727W        W47196  15.466  16.723  12.432  0.1514 -0.2031  0.0547
31728W        W47197  15.372  14.973   1.320 -0.3359  0.3082 -0.1550
31729W        W47198  16.737  15.999  13.394 -0.1967  0.3053  0.3221
31730W        W47199   3.940   2.575   2.743  0.1395 -0.0186  0.4075
31731W        W47200  10.987   4.701   2.844  0.1890 -0.2359 -0.1479
31732W        W47201   1.352   8.297  11.064 -0.0435 -0.0432  0.0427
31733W        W47202   3.561   9.002  14.973  0.0949 -0.2148 -0.0232
31734W        W47203  18.487   9.499   1.966  0.0374  0.2158  0.0672
31735W        W47204   2.580   1.827  13.215  0.2408  0.1951 -0.0862
31736W        W47205   9.089   6.106  14.876 -0.0488  0.2732  0.0393
31737W        W47206  12.144   5.337  12.983 -0.2758 -0.0334  0.2373
31738W        W47207  17.364  17.149   2.156 -0.1827  0.0367 -0.2330
31739W        W47208  12.346   6.322   4.848  0.0023  0.0475 -0.0968
31740W        W47209   3.096  16.571  12.630 -0.3440 -0.0289 -0.0804
31741W        W47210  14.983   9.282  14.591  0.0419  0.2698 -0.0800
31742W        W47211   6.529   3.419  10.290 -0.4513  0.0660  0.4103
31743W        W47212   3.503   2.619  13.476  0.0078  0.1064  0.2560
31744W        W47213   8.447   6.299   2.885 -0.2397  0.4849 -0.0282
31745W        W47214  17.216   2.018  15.417 -0.2798 -0.2170  0.0667
31746W        W47215  17.081  16.133   2.138 -0.1396  0.1167  0.0948
31747W        W47216  14.468   8.594   0.371  0.1097 -0.1814  0.2925
31748W        W47217   3.166  11.988   3.677  0.1203  0.1931  0.1061
31749W        W47218   8.641  16.484  15.127 -0.0338 -0.2627  0.0921
31750W        W47219  17.922   6.264   4.271 -0.0244 -0.2921 -0.2383
31751W        W47220  12.627  11.614  11.123  0.2086  0.0020  0.1291
31752W        W47221  12.041   4.486  15.140 -0.0627  0.0320 -0.0624
31753W        W47222   4.388   9.916   3.838  0.3327  0.1347  0.0917
31754W        W47223  11.114  13.527  13.741  0.2012 -0.1288  0.2698
31755W        W47224   6.756   8.714  10.669 -0.0764  0.3985 -0.3566
31756W        W47225  16.509  17.839  10.912  0.1264 -0.1744  0.1973
31757W        W47226  17.526  17.050   2.712  0.0304  0.3764 -0.0741
31758W        W47227   3.625   6.988  12.098 -0.0923 -0.1388 -0.1160
31759W        W47228  11.044   9.339  12.810 -0.0856  0.1976 -0.0442
31760W        W47229   5.513   7.880  12.918 -0.0512  0.3034  0.2267
31761W        W47230   1.137  13.731  15.040 -0.1423  0.3426 -0.2368
31762W        W47231   3.438   8.335   0.418 -0.0843  0.0110  0.3358
31763W        W47232  11.629  17.771   3.294 -0.1011  0.2349  0.0071
31764W        W47233  16.852  15.418  13.403 -0.3081 -0.1576 -0.0708
31765W        W47234   8.501   9.498  12.272 -0.4299 -0.1171 -0.0498
31766W        W47235   9.287  16.642   6.352 -0.0232  0.0290 -0.1270
31767W        W47236  15.919   1.071  12.271  0.3349  0.2131  0.0680
31768W        W47237   3.792  13.663  11.035  0.2684 -0.0379  0.3675
31769W        W47238   1.159  10.668   0.239 -0.0533  0.0732  0.0606
31770W        W47239  18.213  15.441  10.791 -0.1741 -0.0268 -0.1613
31771W        W47240  17.377  13.834   3.814  0.0254 -0.0114  0.1156
31772W        W47241  10.829  10.716  15.401 -0.1424 -0.2166 -0.0674
31773W        W47242  15.299   0.007  14.832 -0.0540 -0.0177  0.0078
31774W        W47243   0.002  10.289   9.839  0.0255 -0.1182 -0.1439
31775W        W47244  13.524  11.293   0.712 -0.0062 -0.1625  0.1111
31776W        W47245   3.853  14.937  12.806 -0.1668 -0.0254 -0.2264
31777W        W47246  18.901  13.282  11.802  0.3277  0.2024  0.2153
31778W        W47247   4.960   7.193  10.744 -0.0630  0.1135  0.1273
31779W        W47248  12.946   9.855   1.364 -0.0012  0.1083  0.1175
31780W        W47249   4.974   3.321  12.810  0.1501 -0.0004  0.1790
31781W        W47250   7.929  12.174   5.549 -0.3046 -0.0204 -0.2598
31782W        W47251   9.034  12.024  11.015  0.1419  0.0988  0.0331
31783W        W47252  16.368  17.305  11.035  0.0170  0.0470 -0.2247
31784W        W47253   6.122   4.891  12.807 -0.1959  0.0070  0.0162
31785W        W47254  15.550   8.958   2.327  0.1113  0.2064 -0.0765
31786W        W47255  18.814  17.016   1.955  0.0140 -0.2535  0.1358
31787W        W47256  14.811   4.797   0.775 -0.0691  0.1925  0.1188
31788W        W47257   0.955  12.406   1.828  0.0287 -0.0504 -0.2444
31789W        W47258  17.982  14.922   4.433  0.0481  0.0956 -0.2376
31790W        W47259   3.047   6.059   3.090 -0.1989 -0.0891 -0.0642
31791W        W47260   5.707   4.152  13.468 -0.0712 -0.0347  0.0282
31792W        W47261   9.277   1.468  13.293 -0.4545 -0.1202 -0.0994
31793W        W47262  18.306   7.829  15.046  0.2553 -0.2434  0.2052
31794W        W47263   7.337   2.437  11.334  0.2525 -0.1192 -0.0157
31795W        W47264   3.141  12.012   4.494 -0.1340  0.2248  0.1037
31796W        W47265  11.231   3.390   1.496 -0.0009  0.0401  0.1044
31797W        W47266   5.367   0.021   1.467 -0.1636 -0.0826 -0.1790
31798W        W47267   7.181   2.196  12.664 -0.1028 -0.2150  0.2036
31799W        W47268  18.275   1.388   0.446  0.2141 -0.2899 -0.2225
31800W        W47269  17.465   8.008  13.892 -0.0288  0.1532  0.1546
31801W        W47270  11.010   2.105  10.416  0.2908 -0.1778 -0.0935
31802W        W47271   1.547   6.068  12.174 -0.1504  0.2729  0.0045
31803W        W47272   4.620  18.423  11.987 -0.1007  0.1590 -0.2873
31804W        W47273   4.996  16.340   0.979  0.2367 -0.1771 -0.0162
31805W        W47274   2.189  12.439  11.809  0.3287  0.2625  0.2121
31806W        W47275   7.034   6.945   1.310  0.0354 -0.2077  0.2450
31807W        W47276   9.429  17.721   4.602 -0.0632  0.2518 -0.1177
31808W        W47277  15.466   1.320   1.862 -0.2321 -0.1295 -0.2729
31809W        W47278  11.430   9.759  11.367 -0.0716 -0.0285  0.0805
31810W        W47279   6.835   0.569  14.490  0.1146 -0.1933  0.0093
31811W        W47280   8.400   4.094  12.285 -0.0343 -0.0489 -0.1523
31812W        W47281   7.645  18.348   0.635  0.2845 -0.2764 -0.0488
31813W        W47282  14.222   1.891  11.057 -0.0089 -0.1014 -0.1791
31814W        W47283  11.243   1.659   1.853  0.5012  0.3677 -0.2260
31815W        W47284   1.267   2.861   4.530  0.0335  0.6955  0.1707
31816W        W47285   7.308  18.827  15.027 -0.1507 -0.1571  0.2574
31817W        W47286  11.350   5.035   4.664  0.1471 -0.2917  0.2112
31818W        W47287   1.522   3.736   4.251  0.0582 -0.4601  0.1033
31819W        W47288   0.911   7.761  15.235  0.3367 -0.0389 -0.3203
31820W        W47289  18.137   5.402   4.641  0.3044 -0.2488  0.1287
31821W        W47290  12.457   6.512  13.457 -0.0761 -0.0564 -0.1142
31822W        W47291   7.212  10.911  14.750 -0.2536  0.1088 -0.0987
31823W        W47292  12.325   0.682   1.255  0.4156 -0.2781  0.2961
31824W        W47293  18.248   8.660  11.714 -0.3194  0.0318 -0.0327
31825W        W47294   7.654  17.331  11.575 -0.2501 -0.2281  0.2186
31826W        W47295  16.760   2.195   1.371 -0.1277  0.2105 -0.3676
31827W        W47296   3.225   9.156   1.940 -0.2499  0.3183  0.0055
31828W        W47297   4.156   4.403  10.808  0.2829 -0.0203  0.0377
31829W        W47298  17.558  10.259  15.240 -0.2021  0.0917  0.0612
31830W        W47299  14.909   9.429  10.156 -0.2629  0.1237  0.1539
31831W        W47300  18.273   0.714  14.555 -0.1805  0.0704 -0.1230
31832W        W47301   0.310   1.029  13.610  0.1028 -0.1232 -0.0716
31833W        W47302   4.265  17.497   3.944 -0.2560  0.0121  0.1306
31834W        W47303  14.643  17.123  14.155  0.2427 -0.0298 -0.5401
31835W        W47304   9.818  11.503   4.622 -0.1046  0.2038 -0.3999
31836W        W47305  10.480   2.175   3.882 -0.0498  0.1314  0.0791
31837W        W47306   7.557   1.800  14.223  0.0080 -0.1581  0.1451
31838W        W47307  13.414  14.538  10.651 -0.4091  0.2910 -0.2359
31839W        W47308  14.396   2.369  11.041 -0.2215 -0.0959 -0.1783
31840W        W47309   3.730   7.497   9.412 -0.1323 -0.0286 -0.0661
31841W        W47310   0.262  18.414  12.588 -0.3043 -0.0018 -0.0563
31842W        W47311   1.964  16.493  14.830 -0.0802  0.2206  0.0424
31843W        W47312  11.887  13.136   2.929 -0.2667 -0.3156 -0.0101
31844W        W47313   1.809  12.359   2.097  0.1877  0.0360 -0.0282
31845W        W47314  13.633   8.583   2.581 -0.2892  0.1282  0.2090
31846W        W47315  16.013   7.291  14.198 -0.2783 -0.0439  0.0258
31847W        W47316   7.385   0.784  14.388 -0.1703  0.0319 -0.0089
31848W        W47317   6.669  18.054  13.714 -0.1448 -0.3742  0.2483
31849W        W47318  18.289   4.966   2.384  0.1573  0.1543 -0.0607
31850W        W47319   7.617  11.305   4.465 -0.1551  0.1966 -0.1962
31851W        W47320  10.258  13.582  12.366 -0.2607 -0.0164 -0.1184
31852W        W47321  12.397   1.015  11.996  0.2714  0.1632  0.2209
31853W        W47322   4.550  12.409  13.830 -0.1268 -0.1070  0.2161
31854W        W47323   3.905  15.280  10.997  0.2237 -0.1114 -0.1813
31855W        W47324  10.997   3.818   2.672  0.0741  0.3209 -0.0720
31856W        W47325  12.086  15.741   2.444 -0.1427  0.0602  0.3517
31857W        W47326  16.429   5.145  11.393  0.0547 -0.0719 -0.3570
31858W        W47327   4.184   9.053  13.087  0.1862  0.0702 -0.2401
31859W        W47328   9.098   9.540   5.049 -0.0152 -0.1616  0.0997
31860W        W47329   8.079   4.572   3.990 -0.2945 -0.0813  0.3390
31861W        W47330  13.677  17.296   3.892  0.0935 -0.1356 -0.0755
31862W        W47331   5.891  10.580   1.352  0.0977  0.0725 -0.2154
31863W        W47332  14.361  12.215  14.196 -0.2547 -0.0365 -0.0628
31864W        W47333   1.312   0.884  12.149  0.2246 -0.0316 -0.0213
31865W        W47334  18.212   1.743   0.119  0.2156 -0.0253 -0.2603
31866W        W47335   2.095   4.072  14.139 -0.1376 -0.1280 -0.1822
31867W        W47336   1.340   2.304  14.573 -0.0468  0.0475 -0.0420
31868W        W47337   8.748   4.515   4.272  0.3910 -0.3767  0.2306
31869W        W47338  16.903   2.959   3.673  0.0772 -0.3288 -0.0904
31870W        W47339   5.582  18.319   4.910  0.1031 -0.1894  0.0677
31871W        W47340  14.682  11.164  15.356  0.1698 -0.0374 -0.3054
31872W        W47341   1.935  10.904  13.063 -0.0839  0.2730  0.0610
31873W        W47342  10.648   9.775   2.389 -0.1046 -0.0850  0.1898
31874W        W47343  11.234  17.782  13.534 -0.1265 -0.1372 -0.0559
31875W        W47344  13.471  17.378   5.082 -0.2717 -0.0195  0.1480
31876W        W47345   2.790  11.902  10.924 -0.0262 -0.3635 -0.0486
31877W        W47346  10.881   9.677  14.775 -0.1106  0.0054 -0.1892
31878W        W47347   5.405  18.432  13.453 -0.1329  0.1158  0.2046
31879W        W47348  17.580   2.970  14.837  0.0121 -0.2029  0.3089
31880W        W47349   9.244   6.721   2.755  0.1319 -0.0897  0.3474
31881W        W47350   8.311   0.634   4.651 -0.0075 -0.1566  0.1213
31882W        W47351   6.441   8.643  13.239 -0.1010 -0.2051  0.2354
31883W        W47352  14.437   8.927   1.336  0.1082 -0.1259  0.0730
31884W        W47353  10.489  17.309  11.119 -0.4500 -0.2972 -0.0789
31885W        W47354  14.848  18.681   3.144 -0.0184  0.0150  0.0295
31886W        W47355   9.510  12.846  11.897  0.2801 -0.1518  0.4320
31887W        W47356   3.024   0.679  10.649 -0.0374  0.2611 -0.0660
31888W        W47357   9.946  18.401   4.628 -0.1208  0.0300 -0.4802
31889W        W47358   9.320  10.431   2.131 -0.2198 -0.2098  0.0948
31890W        W47359   8.248   5.836   4.673  0.0949  0.2334 -0.0353
31891W        W47360  18.744  15.209   3.069 -0.1622 -0.0946  0.0185
31892W        W47361   1.765   6.963   1.920 -0.1561 -0.2465  0.0634
31893W        W47362   7.121  10.008   4.140  0.2169 -0.0314 -0.1812
31894W        W47363  14.675  12.410  12.441 -0.1268  0.4182  0.0390
31895W        W47364  18.646   8.869  13.689 -0.0390 -0.0587  0.0603
31896W        W47365   8.112  10.635  15.199 -0.1193  0.1941 -0.1132
31897W        W47366  17.646   4.277   3.782  0.4141  0.1115  0.1078
31898W        W47367  13.451   4.463   4.465 -0.1557 -0.0400  0.3773
31899W        W47368   7.034   9.070  14.789  0.4341 -0.1510  0.1802
31900W        W47369   7.022   5.956   4.518  0.2602 -0.1499  0.1546
31901W        W47370  10.528   7.866   2.032 -0.2870  0.1664  0.3042
31902W        W47371   4.447  11.124   5.639  0.2499 -0.1438  0.2853
31903W        W47372   8.575  11.613  11.208 -0.4322  0.2046 -0.1714
31904W        W47373   7.410   6.526   3.992  0.1888  0.1328 -0.3385
31905W        W47374   0.538  18.280   2.039 -0.2015 -0.0500 -0.2514
31906W        W47375   9.224  12.967  12.364 -0.2497 -0.1770 -0.0606
31907W        W47376   4.312   2.160  15.179 -0.1002  0.1343  0.4621
31908W        W47377   5.384  14.299  11.316  0.2440  0.0032 -0.1539
31909W        W47378  10.530  14.025  11.424  0.1823 -0.1043 -0.1025
31910W        W47379  17.203  14.056   4.999 -0.0773  0.2035  0.0397
31911W        W47380   6.866  15.037  11.151  0.0733 -0.0446  0.1829
31912W        W47381  18.165  18.537   3.554  0.0897  0.1173 -0.1282
31913W        W47382  10.683   7.059  14.815 -0.1743 -0.0730  0.1479
31914W        W47383  16.108   1.571   1.634 -0.2074 -0.0458  0.1388
31915W        W47384  18.052  12.566   4.863 -0.3669  0.2313 -0.0260
31916W        W47385   2.634  15.844   0.719 -0.0264  0.0653  0.0870
31917W        W47386  17.003   6.992   4.552 -0.1658  0.3954 -0.1460
31918W        W47387  13.214  10.107   0.847  0.1172 -0.2347  0.0843
31919W        W47388  18.027   2.877   1.132  0.0995 -0.1892 -0.3257
31920W        W47389  18.081  10.860   2.863  0.1346 -0.1311  0.2058
31921W        W47390   6.622  13.701  14.165  0.1604 -0.0720  0.1364
31922W        W47391   1.216   8.769  14.341  0.0862 -0.1387  0.0315
31923W        W47392   8.867   6.016  15.370 -0.0458  0.1812  0.3023
31924W        W47393  15.533   4.572  10.820 -0.1800 -0.1295  0.0107
31925W        W47394   1.684   1.942  11.096  0.2824  0.2242 -0.0374
31926W        W47395  11.723   0.881   4.911  0.0957  0.2626 -0.1772
31927W        W47396  13.314   5.153  14.798 -0.0015  0.3557  0.1886
31928W        W47397   3.567  10.874   3.950  0.1119 -0.0493  0.1409
31929W        W47398  17.978   5.305   1.977  0.1817 -0.1366 -0.1721
31930W        W47399  12.932  17.414  14.634 -0.0556  0.1505 -0.0519
31931W        W47400   2.138   7.835   5.179 -0.0438 -0.1970 -0.2192
31932W        W47401  11.816   0.770  13.874 -0.1310  0.1240  0.2496
31933W        W47402  14.828   6.996  11.030  0.0822  0.5132  0.0385
31934W        W47403  13.207   4.001   5.317 -0.0336 -0.1227  0.1932
31935W        W47404   8.544   4.950   4.273 -0.0253 -0.0804  0.0637
31936W        W47405  15.182   0.835   5.716 -0.2003 -0.1395  0.0211
31937W        W47406  13.325   2.038  14.198  0.0580  0.1469  0.1711
31938W        W47407  15.487   5.912  11.312 -0.0649  0.3050 -0.0945
31939W        W47408   5.689   4.202  15.059  0.0370  0.1458 -0.4026
31940W        W47409  10.835  18.809   3.556  0.2800  0.1434 -0.1167
31941W        W47410   2.144   1.980  13.035  0.1451  0.2129  0.0741
31942W        W47411  18.879  17.721   2.538  0.2200  0.1766 -0.1962
31943W        W47412   3.057  16.060   0.956  0.1276 -0.3760  0.1189
31944W        W47413   8.862   3.954   0.861  0.1571  0.2887 -0.0560
31945W        W47414   9.851   7.451  13.565  0.0441 -0.1313  0.0191
31946W        W47415   1.228   7.993  12.474 -0.0253 -0.0463 -0.0752
31947W        W47416  15.555  12.515   2.533  0.0316  0.0958 -0.1040
31948W        W47417   3.440   2.129   1.388  0.1493 -0.2844 -0.0790
31949W        W47418   3.273  14.103   1.706  0.1946  0.1728 -0.2266
31950W        W47419   6.878  18.916  14.379 -0.1110  0.0678 -0.0882
31951W        W47420  17.923   2.550  13.076  0.4591 -0.1243 -0.2115
31952W        W47421   4.796   8.264   9.408 -0.0207 -0.3363  0.0676
31953W        W47422  16.040  12.426  11.343 -0.0462  0.2356  0.0603
31954W        W47423   9.491   3.168   2.702  0.0985  0.1021 -0.0655
31955W        W47424   8.710  14.244  13.011  0.1344 -0.1186 -0.2259
31956W        W47425   1.138   3.185   2.857  0.1669  0.0856 -0.0336
31957W        W47426   5.982  16.856   5.015  0.1627 -0.0699  0.1280
31958W        W47427  10.424   3.193  15.152  0.0933  0.1648  0.1333
31959W        W47428  13.047  11.869  11.065  0.1248 -0.0537  0.1110
31960W        W47429   9.022   6.184   3.906  0.3679 -0.2698 -0.2292
31961W        W47430  14.116  15.900   2.427  0.4361  0.0825  0.2048
31962W        W47431  11.731   8.067   4.546 -0.0121  0.2782  0.0709
31963W        W47432  11.715   1.320  12.811 -0.7149  0.2702  0.1923
31964W        W47433  18.430   8.442  11.169  0.5201 -0.0474  0.1851
31965W        W47434   5.080  17.860  11.351  0.0775  0.0481  0.3324
31966W        W47435  18.756  14.142  10.591 -0.3628  0.0203 -0.1235
31967W        W47436  15.156   6.857  15.024  0.2034 -0.3358 -0.4317
31968W        W47437   9.578  17.771  14.414 -0.1173 -0.3290 -0.2747
31969W        W47438   2.503   1.309  13.293 -0.2271  0.2555  0.0258
31970W        W47439  17.748   8.352  13.647  0.3897 -0.1096  0.2466
31971W        W47440  17.971  13.224   3.546  0.0153  0.0978  0.3763
31972W        W47441   5.021  14.901  13.476 -0.0122  0.0429 -0.2042
31973W        W47442   1.370  13.799   1.573  0.0094 -0.0908 -0.3855
31974W        W47443  11.164  10.276   3.357  0.0492 -0.0741 -0.0960
31975W        W47444  16.854  15.213   2.703  0.0731 -0.2260 -0.0398
31976W        W47445  11.707   3.097  15.484  0.0610  0.3027  0.0610
31977W        W47446  16.875   5.611   2.266 -0.1471  0.1190 -0.0568
31978W        W47447  16.554  16.249   2.883 -0.0904 -0.4532 -0.0348
31979W        W47448   7.079   5.010   1.279  0.1090  0.0249 -0.1061
31980W        W47449  17.591  15.109  12.257 -0.2251 -0.0001 -0.3786
31981W        W47450   8.817   6.643  13.214  0.1038 -0.1322 -0.1074
31982W        W47451   5.093  10.743   2.217 -0.0364  0.1622  0.0732
31983W        W47452  13.457   0.968  10.266 -0.0655 -0.0307 -0.3108
31984W        W47453  13.049   4.882  14.202 -0.0215 -0.0993  0.4111
31985W        W47454  12.789   3.460  10.805 -0.0781 -0.4321 -0.1133
31986W        W47455  15.187   1.082  11.272  0.1100  0.0770  0.1022
31987W        W47456   8.157  15.529   0.561  0.0737 -0.0136 -0.0471
31988W        W47457  18.439   8.543   3.916  0.0257  0.0763 -0.1260
31989W        W47458   5.198  17.354  14.564 -0.4315  0.0267  0.2296
31990W        W47459   5.614   9.455   2.230 -0.1917 -0.1430  0.3305
31991W        W47460  18.758   5.034   3.464  0.0046  0.0059 -0.1792
31992W        W47461   5.570   1.268  13.677  0.0270 -0.2272  0.3014
31993W        W47462  13.580  14.606  14.201  0.0502  0.5581  0.0711
31994W        W47463   6.825   6.545  13.190 -0.3144  0.3254  0.0755
31995W        W47464   1.282  18.249   4.143  0.1985 -0.3984  0.1378
31996W        W47465   8.528   5.332   3.909  0.2074  0.0552  0.2323
31997W        W47466   6.065  13.299   4.782  0.1100 -0.0719  0.1154
31998W        W47467   3.005   6.792   0.847  0.1110  0.0297  0.0016
31999W        W47468  18.111   7.579   0.857 -0.2576  0.0840 -0.1923
32000W        W47469   4.117  17.177  14.138 -0.0861  0.3141 -0.2640
32001W        W47470   4.392  10.492  14.648 -0.4082  0.0909 -0.0864
32002W        W47471   0.003  17.754   2.053  0.0074  0.0149  0.0061
32003W        W47472   4.657  11.199   3.402  0.3071 -0.0496  0.0251
32004W        W47473  12.965   6.391   1.956  0.1726  0.2523 -0.2794
32005W        W47474   2.861   0.402   5.481 -0.2017 -0.4686  0.1121
32006W        W47475  16.607  18.288   5.204  0.2697  0.1194  0.3659
32007W        W47476   7.321  10.183  10.459 -0.2423  0.4437  0.0053
32008W        W47477   8.848   1.531   1.433  0.0813  0.0227 -0.3162
32009W        W47478   8.126   0.251  14.026 -0.2032 -0.2265  0.0692
32010W        W47479   3.668  10.493   2.500  0.1053 -0.1259 -0.3333
32011W        W47480   5.553  14.399   2.146 -0.0455 -0.1527  0.1059
32012W        W47481   6.663  10.616  13.385 -0.1561  0.4633  0.1590
32013W        W47482   7.656   7.249  13.011  0.0051  0.0580  0.0067
32014W        W47483  13.795  11.009   2.557 -0.3290 -0.3759 -0.0074
32015W        W47484   8.900  17.831   1.900  0.3040 -0.0768 -0.0389
32016W        W47485   9.968   3.931  13.158  0.0865  0.2596  0.1548
32017W        W47486  14.348   9.632  11.956 -0.4079  0.4292  0.1201
32018W        W47487   1.912  13.848   5.540 -0.0444 -0.1125 -0.0042
32019W        W47488  13.779   4.510  15.128  0.2000  0.2563  0.3762
32020W        W47489  16.576   3.573  11.608 -0.0227 -0.2153  0.2048
32021W        W47490  14.114   2.673   2.435  0.1948 -0.0451  0.0975
32022W        W47491   6.227   4.385   5.616 -0.3932  0.1309  0.3216
32023W        W47492  11.163  17.674  12.152  0.3504  0.2012  0.1569
32024W        W47493   4.259  10.593  12.979  0.1864 -0.0709  0.1762
32025W        W47494   0.261   2.304   2.248  0.2770 -0.0772 -0.0993
32026W        W47495   6.144   2.956   2.680 -0.3236 -0.2361 -0.3517
32027W        W47496   7.883  17.460  14.211  0.0227 -0.4921  0.0097
32028W        W47497   1.276   0.899  13.694 -0.0936 -0.1004 -0.2016
32029W        W47498  15.549   3.960   4.600  0.0559  0.1786  0.1121
32030W        W47499  16.439   2.642  15.237  0.3080 -0.0703  0.1277
32031W        W47500  15.650  10.198  11.517  0.0502  0.3995 -0.4764
32032W        W47501  11.073   6.935   4.416 -0.0907  0.0579 -0.0421
32033W        W47502   2.378   6.834  10.265  0.0986 -0.0358 -0.5177
32034W        W47503   9.014   4.715   3.487  0.1723 -0.0248  0.3717
32035W        W47504   2.950   4.000   3.080  0.1786  0.0766 -0.0371
32036W        W47505  13.948   1.772  15.416 -0.2444 -0.1095  0.0252
32037W        W47506  11.723  13.639   3.087 -0.1070 -0.1105 -0.0064
32038W        W47507  11.234  16.846   3.681 -0.1402  0.1035 -0.0042
32039W        W47508  16.568   1.622  11.593  0.1962 -0.1618  0.0011
32040W        W47509   0.518   6.927   2.643 -0.0312 -0.3909  0.2029
32041W        W47510   6.645   2.918   4.591 -0.0003  0.3737  0.2980
32042W        W47511   7.017   5.774  13.569  0.4112 -0.2574  0.0859
32043W        W47512   6.957   1.073  11.671  0.2111  0.0670 -0.0104
32044W        W47513   6.703  18.359   0.887  0.1118  0.2763 -0.0676
32045W        W47514  18.122  13.210   4.545  0.0975 -0.1793 -0.0296
32046W        W47515  18.304   2.710   5.115 -0.2002 -0.2589  0.2775
32047W        W47516   5.763  17.596  10.786 -0.0290 -0.1725  0.0492
32048W        W47517   6.526  13.971   3.162  0.0885 -0.0767 -0.1357
32049W        W47518   6.983   4.510   3.412  0.1334  0.2477 -0.0569
32050W        W47519  14.532   1.837  12.191 -0.1748  0.2091  0.2074
32051W        W47520   9.183  12.550  10.978 -0.0084 -0.0398 -0.1113
32052W        W47521  13.000   5.120  13.005  0.0309  0.0027 -0.1140
32053W        W47522   8.202   9.488  11.767 -0.0341 -0.1755 -0.0984
32054W        W47523   0.922   5.584   3.217  0.0354 -0.0279 -0.1108
32055W        W47524   5.672   7.005   2.650 -0.0739 -0.0305 -0.0414
32056W        W47525  10.450   4.682   4.698 -0.2061  0.1797 -0.4524
32057W        W47526   8.924   1.685   5.790 -0.1286 -0.0534  0.0283
32058W        W47527  12.358   1.584  11.055 -0.0701  0.4210 -0.2240
32059W        W47528  14.147  12.122  10.791  0.2845  0.0433 -0.0168
32060W        W47529  11.727  16.703  14.581  0.0036 -0.2710 -0.0750
32061W        W47530   3.681  13.963  13.195 -0.0987 -0.1806 -0.0402
32062W        W47531  17.813   5.502  13.727  0.4224 -0.2396  0.2186
32063W        W47532  18.694   6.587   9.996 -0.0849 -0.1000  0.2454
32064W        W47533   2.243   1.160   2.755 -0.5131 -0.2647 -0.1026
32065W        W47534  10.013   0.346   5.358 -0.1525  0.1129 -0.0041
32066W        W47535   1.563  15.376   3.153 -0.0539 -0.0575  0.1243
32067W        W47536  11.894  12.337   4.224 -0.0881 -0.1060  0.0197
32068W        W47537   9.911  18.136  14.496 -0.1383  0.2576  0.1362
32069W        W47538   1.620   6.956   3.328 -0.4839  0.0283 -0.1903
32070W        W47539  13.574   4.089   4.906  0.1891  0.1944  0.2483
32071W        W47540  18.565   4.331   5.607  0.1088  0.2816 -0.1732
32072W        W47541   9.045   1.885   3.663 -0.0743  0.3997 -0.0101
32073W        W47542  15.623  12.969  15.050 -0.0801 -0.0561  0.1074
32074W        W47543   7.591  11.254  14.615  0.1248 -0.2464  0.1355
32075W        W47544  11.019   0.399   3.640 -0.0874 -0.1538  0.1726
32076W        W47545  14.125  14.700  12.756 -0.2859 -0.1259 -0.0469
32077W        W47546   9.046   1.668   5.321  0.2631  0.2290 -0.1678
32078W        W47547  13.816  15.951   0.139 -0.0838 -0.2141  0.2015
32079W        W47548   3.711   2.938   1.584  0.1405  0.0995  0.0997
32080W        W47549  11.834   8.237   0.976 -0.0768  0.0700  0.0471
32081W        W47550  18.324   1.413  12.503 -0.1655 -0.1986  0.0154
32082W        W47551   0.966   7.094   2.760  0.1737  0.2290 -0.1846
32083W        W47552   8.920   5.525   5.309 -0.0143 -0.1174  0.0460
32084W        W47553  12.294   3.338   4.574 -0.1422 -0.3084 -0.0885
32085W        W47554  10.388   9.443   3.848 -0.1020 -0.0377  0.0411
32086W        W47555   8.840   2.929  14.544  0.0607 -0.0745 -0.0135
32087W        W47556   3.777  14.337   3.514 -0.0724 -0.0469  0.1979
32088W        W47557  12.454  10.299   4.924  0.0550 -0.0215  0.0845
32089W        W47558  11.548  18.000   0.539  0.2133 -0.0336 -0.1855
32090W        W47559   6.387  17.473  12.378  0.0202  0.3097  0.0130
32091W        W47560   7.229   5.954  11.145  0.2425  0.0167  0.0056
32092W        W47561   1.511  10.716   1.070  0.1912  0.1125 -0.2683
32093W        W47562   5.206   4.618   2.119  0.0713 -0.2828 -0.0881
32094W        W47563  13.775   6.452  10.532  0.0063 -0.0883 -0.2868
32095W        W47564   6.176   0.999   0.951 -0.0940 -0.1426 -0.2752
32096W        W47565   7.635  12.296   1.281  0.0645 -0.1599  0.1200
32097W        W47566  13.588   5.212   5.311  0.1260  0.0114 -0.1548
32098W        W47567   1.670   3.896   1.960  0.1465  0.2275  0.1212
32099W        W47568   3.192   3.318  11.715 -0.2559  0.4175 -0.3060
32100W        W47569  16.984  14.269   0.262 -0.0030  0.0899 -0.2088
32101W        W47570   5.701   1.712  14.199 -0.1923 -0.0909  0.4680
32102W        W47571   7.260  14.852   5.802  0.2206 -0.0951  0.1402
32103W        W47572   2.832   6.799  14.825  0.2913 -0.1394 -0.3813
32104W        W47573   9.589  10.286  15.231 -0.0012 -0.2966  0.0127
32105W        W47574  18.721   5.205   1.648  0.5480  0.3224  0.0985
32106W        W47575  13.491   8.278  11.093 -0.1357 -0.4103 -0.2326
32107W        W47576  17.968   4.735  15.399  0.0031  0.1369 -0.3542
32108W        W47577  18.676   9.210  11.586 -0.1870  0.0269 -0.0559
32109W        W47578  14.904   6.686  12.881 -0.1011 -0.2502  0.0754
32110W        W47579   5.418  18.196   2.190  0.1671  0.0358  0.2616
32111W        W47580   9.298   3.314  14.253 -0.1858 -0.0296  0.1796
32112W        W47581  17.575  12.510   2.485 -0.0680 -0.0883 -0.0088
32113W        W47582  17.088   9.673  11.696 -0.2438 -0.0025  0.2601
32114W        W47583   8.913   3.037  13.325  0.2115  0.0398  0.3587
32115W        W47584   3.074  14.097   5.024 -0.4818 -0.1486 -0.0211
32116W        W47585   6.260   0.073  12.511 -0.2089 -0.0073  0.1354
32117W        W47586  12.052   1.491   0.144  0.3571 -0.2910 -0.3356
32118W        W47587  12.027  17.588   3.622 -0.0200 -0.3771 -0.0962
32119W        W47588  15.588  17.144   1.977  0.0204  0.3179 -0.1432
32120W        W47589   8.270   0.244   1.882 -0.0967  0.1848 -0.1040
32121W        W47590   7.336  18.421  12.007  0.2349 -0.0384 -0.3690
32122W        W47591   1.630  16.135  12.683 -0.1752 -0.2196 -0.0607
32123W        W47592  16.091  11.711   2.253  0.1348  0.0100  0.0460
32124W        W47593   8.936  17.522   2.774 -0.0802 -0.1855 -0.0524
32125W        W47594   1.192  17.345   4.764 -0.1336 -0.1279 -0.0223
32126W        W47595  18.096   8.982  11.327  0.1800  0.2530  0.0919
32127W        W47596  18.851   0.469  10.550 -0.1676  0.3750  0.1914
32128W        W47597  10.602   3.341  10.023  0.3699  0.4403  0.0967
32129W        W47598   1.387  13.790   4.961 -0.1724 -0.0212 -0.2673
32130W        W47599   8.756  18.206  13.803 -0.1039  0.2164 -0.0100
32131W        W47600  11.648  12.686   5.853  0.3517 -0.4766 -0.0626
32132W        W47601   8.740  14.724   3.573  0.0019 -0.0686  0.2703
32133W        W47602   1.551  15.412  11.045  0.1404  0.0179  0.2817
32134W        W47603   3.789  14.025  15.214  0.1592  0.1393 -0.1751
32135W        W47604   7.173  15.071   0.103 -0.0461  0.0450  0.1795
32136W        W47605  11.299   2.808  13.537  0.0985 -0.1372 -0.0134
32137W        W47606   7.037   2.661   4.224  0.0291 -0.0729  0.1040
32138W        W47607   8.092   2.107  14.826 -0.1981  0.1056  0.1800
32139W        W47608  17.038   0.760  12.440 -0.2046  0.0472  0.0401
32140W        W47609   7.072   0.367   2.808 -0.0065  0.1964  0.2659
32141W        W47610  17.973   3.219  14.577  0.0895 -0.1608  0.1573
32142W        W47611   8.770  10.659   0.849 -0.4362 -0.1375 -0.3128
32143W        W47612  11.630   1.711   0.049 -0.0802 -0.0116  0.0858
32144W        W47613   6.504  18.522  13.884 -0.1825 -0.3821  0.1363
32145W        W47614   4.170  13.635   1.705  0.1282  0.5403 -0.1589
32146W        W47615   6.217  16.969  15.333  0.1047  0.0304  0.1071
32147W        W47616   0.189   9.485   0.040  0.3605  0.3374  0.4904
32148W        W47617   8.790   5.748  11.324  0.0432 -0.0840 -0.1168
32149W        W47618   2.001  12.168   4.814 -0.1607  0.2203  0.2545
32150W        W47619  15.812   1.448   0.002  0.0077 -0.1140  0.2668
32151W        W47620  17.323   9.527  11.002 -0.0426 -0.0035  0.0166
32152W        W47621   0.968  16.609  14.730  0.0225  0.0259 -0.3497
32153W        W47622   7.943   6.899   2.328  0.2324 -0.0571 -0.0171
32154W        W47623  17.775  16.852   3.093  0.2355 -0.1284  0.1134
32155W        W47624  11.838   8.814  14.412 -0.1278  0.0179 -0.0719
32156W        W47625  15.737   5.547   0.499 -0.1839  0.1523 -0.2124
32157W        W47626   6.179   1.945   0.436  0.0959  0.1419  0.0316
32158W        W47627  10.895   9.521   4.880  0.0002 -0.1036 -0.1703
32159W        W47628  18.338   5.756  10.044  0.0057  0.2912  0.0297
32160W        W47629   3.152  10.470  14.564  0.0449 -0.2394  0.1897
32161W        W47630  17.625  10.791   2.714  0.0139  0.2075 -0.0975
32162W        W47631   3.729   0.776   3.215  0.2084 -0.4120  0.1225
32163W        W47632   1.480  15.644  11.547 -0.2008  0.0519 -0.2588
32164W        W47633   2.753  13.530  11.961  0.0939 -0.1545 -0.2336
32165W        W47634   7.252  14.413   1.581  0.1025  0.0889  0.1795
32166W        W47635  16.259  16.540  11.610  0.1353 -0.0098  0.2168
32167W        W47636   3.749   1.079   6.142  0.0049 -0.1001  0.1894
32168W        W47637   6.424  12.935   4.502 -0.0172  0.1400 -0.0728
32169W        W47638  12.853   0.554   4.430  0.4357  0.1252  0.0328
32170W        W47639  14.675  13.203   1.107 -0.1919  0.1520 -0.0570
32171W        W47640   2.411   1.270   4.879  0.0037  0.5187 -0.0609
32172W        W47641   9.053  15.561  13.573 -0.1088 -0.1051  0.1233
32173W        W47642   8.529   5.529  15.394 -0.0453 -0.4059 -0.0088
32174W        W47643  15.488  16.942   0.202 -0.0902  0.0896 -0.2838
32175W        W47644   4.226   9.472   0.446 -0.1101 -0.1430 -0.0663
32176W        W47645   7.472  16.407   3.932 -0.1195 -0.0743 -0.0889
32177W        W47646   6.292  14.268  10.969  0.0936  0.2655  0.2158
32178W        W47647   1.822  11.589  14.590 -0.1354  0.1480 -0.0585
32179W        W47648  14.530   0.781   1.416 -0.0559  0.2181  0.3134
32180W        W47649  11.945   2.323  12.866 -0.3087 -0.0461 -0.2149
32181W        W47650   6.872   5.280  12.276 -0.1098 -0.3088 -0.4678
32182W        W47651   0.433   7.134   1.385 -0.2160 -0.1883 -0.1340
32183W        W47652   3.570   8.278   3.415 -0.5996  0.1562 -0.0477
32184W        W47653   9.008  18.878  12.469 -0.1585  0.2809 -0.2393
32185W        W47654  15.339  12.183  13.110  0.0651  0.0506 -0.0148
32186W        W47655  14.994  15.742   5.469 -0.0973 -0.0424 -0.0746
32187W        W47656   6.743  17.439   2.542 -0.0981  0.2657 -0.0907
32188W        W47657  11.846  17.409  10.476  0.2074  0.0261  0.1496
32189W        W47658  13.362  17.924   3.088 -0.1216 -0.0476 -0.0156
32190W        W47659   1.520   9.705  10.703  0.2962 -0.0001 -0.2669
32191W        W47660  18.334   0.510  12.857 -0.1774 -0.0458 -0.0287
32192W        W47661   4.337   9.852   4.394 -0.0095  0.0010 -0.3785
32193W        W47662   0.482  13.526   3.701  0.2005  0.1432 -0.1746
32194W        W47663  18.289   7.832  14.564 -0.0288  0.1347  0.2869
32195W        W47664   1.241  17.052   0.044 -0.1130 -0.1740  0.3927
32196W        W47665   3.887   1.238  12.831 -0.0450 -0.3814 -0.0210
32197W        W47666   7.361  16.608  13.478  0.2545 -0.0401 -0.0078
32198W        W47667  13.744   7.646  12.866  0.1236  0.3109  0.0506
32199W        W47668   5.146  13.257  10.995  0.0103  0.0071 -0.1311
32200W        W47669  18.817  12.036  11.417 -0.0953 -0.1516  0.2401
32201W        W47670   4.051   6.756  13.856  0.3128  0.0462 -0.0256
32202W        W47671  15.585  11.496   3.285  0.1466  0.1037 -0.0100
32203W        W47672  10.440   4.821   3.753  0.0067 -0.1633 -0.3050
32204W        W47673   6.227  14.190  15.117  0.2188 -0.1295  0.3398
32205W        W47674   0.165   4.753   3.029  0.3884 -0.2375  0.0646
32206W        W47675  13.581   8.316   1.785 -0.0353  0.0009 -0.1564
32207W        W47676   4.460  11.486   1.679 -0.2847 -0.4599 -0.2275
32208W        W47677  10.176   4.576  14.679  0.0033  0.1704  0.1583
32209W        W47678   9.042   3.328  14.760  0.0026 -0.0639  0.0675
32210W        W47679   3.447  12.666  11.058  0.0442  0.1258  0.3426
32211W        W47680   2.958   4.476  12.146 -0.1382  0.2788  0.3115
32212W        W47681  17.198   9.056  15.466 -0.1894 -0.1546 -0.2772
32213W        W47682   5.380  16.172   2.924 -0.1160  0.1134 -0.2574
32214W        W47683  12.712   3.119   1.467 -0.0239  0.1316 -0.0700
32215W        W47684   0.623  14.477  13.993 -0.2918  0.2934 -0.1817
32216W        W47685   2.863  13.208   5.016  0.1618 -0.1616 -0.0054
32217W        W47686   7.880  16.141  13.396  0.0469 -0.2708  0.2171
32218W        W47687  16.805   6.576   0.835 -0.0195 -0.2091  0.1137
32219W        W47688  13.878   3.295  14.178 -0.3020 -0.0628  0.0893
32220W        W47689   1.954   0.958   3.143  0.2524 -0.1631  0.0880
32221W        W47690  18.777  15.970  11.855  0.1428  0.1499  0.0683
32222W        W47691  15.000  10.308  10.296  0.1267 -0.2045  0.3196
32223W        W47692   5.159  10.538   0.300  0.4517 -0.1513  0.0396
32224W        W47693   9.806   9.953   4.036 -0.3602 -0.1103 -0.1736
32225W        W47694   3.692   5.022   3.322  0.3652 -0.3323 -0.1294
32226W        W47695  17.446  17.596  15.488  0.0333 -0.2009 -0.2044
32227W        W47696  16.355   3.604  14.957  0.0848  0.0079 -0.0257
32228W        W47697   4.933  17.796   4.819  0.4328 -0.0243 -0.1552
32229W        W47698   9.469  17.612  11.166  0.2817  0.2618 -0.2732
32230W        W47699   7.014  18.135   0.008 -0.1901 -0.0562  0.1595
32231W        W47700  11.280   4.673   0.692  0.0263  0.0403 -0.0975
32232W        W47701   4.941   9.774  10.944  0.2412 -0.0059  0.0465
32233W        W47702   1.330  11.307  11.402 -0.1010 -0.1119 -0.2856
32234W        W47703  16.378  14.785   1.939  0.1134  0.0109  0.3223
32235W        W47704   2.327   3.156  15.421 -0.0633  0.1164  0.0493
32236W        W47705   3.608   1.569  13.448  0.0620 -0.2462 -0.1354
32237W        W47706   7.843  10.756  12.118  0.3737 -0.0712 -0.1025
32238W        W47707  13.109   2.484   2.577 -0.3195 -0.0508  0.2232
32239W        W47708   0.066  13.658  10.744 -0.0583 -0.0822  0.0901
32240W        W47709   4.190   1.246   4.062  0.2261 -0.3052 -0.1646
32241W        W47710   0.251  14.463   1.772  0.2080 -0.0709  0.1525
32242W        W47711  13.539  10.529   2.564  0.3633 -0.1262 -0.2362
32243W        W47712  14.081   3.840   1.182  0.4544 -0.1397  0.2687
32244W        W47713   7.671   7.514  12.586 -0.1111 -0.3439 -0.0133
32245W        W47714  11.675  16.835   4.850  0.0966  0.1198  0.2097
32246W        W47715  16.560   3.172   1.980  0.1407  0.0392  0.0114
32247W        W47716  13.523   3.333   4.095  0.1415 -0.0428  0.0397
32248W        W47717   0.705   7.841   3.137  0.0966  0.3023 -0.3808
32249W        W47718   2.202  14.098  13.388  0.2026  0.0114 -0.0579
32250W        W47719   2.422   6.595   0.234  0.0062 -0.1081  0.1484
32251W        W47720  12.347   3.429  10.481 -0.0063  0.2308 -0.0589
32252W        W47721   2.506   1.669   0.241 -0.1396 -0.3580 -0.4146
32253W        W47722  17.300   6.825  13.307 -0.0672 -0.0680 -0.2820
32254W        W47723  18.365  14.558   4.500 -0.0885  0.4615  0.0616
32255W        W47724  18.666   6.791   3.656 -0.1406 -0.0595  0.1768
32256W        W47725   2.728  18.406   2.919 -0.0413 -0.0615  0.2984
32257W        W47726   3.914   9.189  13.467 -0.0006 -0.2124  0.0891
32258W        W47727   4.105   5.043   3.605 -0.0212  0.3567  0.0988
32259W        W47728   9.560   5.684  15.282 -0.3954 -0.1329  0.0279
32260W        W47729  11.299   9.752  13.414 -0.0940  0.1501 -0.3248
32261W        W47730  18.352  10.390  13.097  0.1302  0.1657 -0.0042
32262W        W47731  12.596  12.448   3.567  0.1556  0.2640 -0.0341
32263W        W47732  13.777  14.724   3.265  0.0358  0.0156 -0.2879
32264W        W47733  10.262   5.023  14.429  0.4050  0.3450 -0.1205
32265W        W47734   2.269   5.936   1.993  0.0563  0.3383  0.0582
32266W        W47735  18.347   3.095   4.763 -0.1080  0.2172 -0.2720
32267W        W47736  15.170   5.288  12.216 -0.2011  0.6914 -0.0261
32268W        W47737  14.994   9.335  12.517  0.1192  0.2997  0.1896
32269W        W47738   7.697   0.414   3.890  0.0037 -0.0429  0.0672
32270W        W47739  18.925  17.109  12.635  0.0228 -0.0609 -0.0893
32271W        W47740  10.655  16.904   1.549  0.1443 -0.1248  0.0744
32272W        W47741   4.618   8.399   5.241 -0.4397  0.1457 -0.2264
32273W        W47742   7.873   6.462   2.532 -0.0481 -0.0778  0.2644
32274W        W47743   1.304   3.858   1.662 -0.1931  0.2176 -0.0262
32275W        W47744   2.571   1.099  13.810 -0.3554  0.0549  0.1947
32276W        W47745  14.273   8.546  13.574 -0.1057 -0.0597  0.0252
32277W        W47746   7.445   9.340  14.777 -0.2352 -0.1858  0.1187
32278W        W47747   4.118   3.921   2.354 -0.0482  0.0153 -0.0289
32279W        W47748   3.139  13.647  15.412  0.0046  0.1975  0.0805
32280W        W47749   0.805  12.111  14.197 -0.1971 -0.0913  0.0238
32281W        W47750   0.471   3.771   1.435 -0.2867  0.2242 -0.0059
32282W        W47751   2.379   2.063   5.352  0.5136 -0.1273  0.3112
32283W        W47752  14.615   2.937   3.386 -0.0975  0.0927 -0.3171
32284W        W47753   0.661   6.158  14.561 -0.0146 -0.1827  0.0482
32285W        W47754   0.867  13.791   4.917 -0.2098  0.3166 -0.0832
32286W        W47755   0.373  12.110  13.383  0.0024  0.0297  0.3441
32287W        W47756   5.058  15.325  12.255 -0.0714 -0.0713 -0.0468
32288W        W47757   5.148   9.565   2.604 -0.2023 -0.2528  0.0762
32289W        W47758  11.832   6.059   0.169 -0.0013  0.1720  0.1836
32290W        W47759   2.747   5.862  10.386  0.2057 -0.0700  0.2213
32291W        W47760   7.381   9.651   5.313 -0.0528 -0.0857 -0.1531
32292W        W47761  12.700   8.828  14.913 -0.0386 -0.0211 -0.1220
32293W        W47762  17.624  13.813   2.523 -0.1057 -0.0443 -0.4179
32294W        W47763   1.321   4.252   4.900  0.2235 -0.2188  0.0984
32295W        W47764  12.705  12.203   0.178  0.0513  0.0838  0.1324
32296W        W47765  10.133   8.015  11.727  0.1671 -0.2644 -0.3094
32297W        W47766   4.632   0.212   1.960  0.0817 -0.1349 -0.1293
32298W        W47767  10.750  16.637   3.696 -0.0203 -0.5120 -0.0901
32299W        W47768   6.250   2.394  12.629 -0.0871  0.0393  0.1632
32300W        W47769   2.580  12.242  13.210 -0.2674 -0.1347  0.2637
32301W        W47770   4.355  13.429   0.688  0.0271 -0.6574 -0.2046
32302W        W47771  16.232  14.408   2.262  0.4391 -0.1799  0.0640
32303W        W47772   7.625   6.987  13.452 -0.2105 -0.2356 -0.1248
32304W        W47773  17.984   2.749   3.514  0.0706 -0.1940  0.1646
32305W        W47774  16.492  13.159   4.486 -0.1681 -0.5456 -0.0873
32306W        W47775  12.429   7.748  14.629  0.2964 -0.0263 -0.1751
32307W        W47776  17.118  16.134   2.735 -0.0558 -0.0827  0.3263
32308W        W47777   4.496   3.350  14.323  0.2735 -0.2351  0.0947
32309W        W47778  15.369   2.814   2.142 -0.0179  0.4025 -0.1193
32310W        W47779   9.446  10.629  11.762  0.1249 -0.0026  0.1805
32311W        W47780  17.100   6.102   0.700  0.2502  0.2336  0.1903
32312W        W47781  15.956   7.953  10.580 -0.1450  0.0265  0.0054
32313W        W47782   5.507   8.340   0.546 -0.0612  0.2520  0.1824
32314W        W47783  14.881  14.368   3.228 -0.2583 -0.0495  0.0461
32315W        W47784  11.462  11.310  11.423 -0.0841 -0.0303  0.1037
32316W        W47785   4.907  16.352   4.589  0.1485 -0.2605 -0.1828
32317W        W47786   1.983  11.956   2.940 -0.1556 -0.1512  0.5993
32318W        W47787   7.713  16.924   4.104 -0.0936  0.2964 -0.0258
32319W        W47788   8.284  12.361   9.824  0.2183 -0.2624  0.0846
32320W        W47789  16.372   6.124   1.615 -0.1246  0.4240 -0.2283
32321W        W47790   1.548  14.179  10.636 -0.0242  0.1249  0.0171
32322W        W47791  10.330  13.299  13.108  0.1025  0.4003 -0.2001
32323W        W47792   5.219  16.700  10.259  0.2472 -0.1601 -0.1019
32324W        W47793   5.621  17.151   4.883 -0.1122  0.0834  0.2272
32325W        W47794   4.798  16.230   1.705  0.2077 -0.1726 -0.1876
32326W        W47795   8.524  12.994   5.275 -0.1459 -0.2275 -0.2329
32327W        W47796  13.203  15.450  12.851 -0.0045 -0.3991 -0.1369
32328W        W47797  18.416   4.115   1.355 -0.3390 -0.2156 -0.0448
32329W        W47798  15.809  13.610   0.301  0.0829  0.2175  0.2756
32330W        W47799  11.384   8.323  13.502  0.2165 -0.2735 -0.1288
32331W        W47800  17.768  16.617  12.062  0.0197 -0.3964 -0.1026
32332W        W47801   7.841   0.776  11.903  0.0290 -0.0019  0.0055
32333W        W47802  17.702   2.596   0.753 -0.2153 -0.1215  0.1194
32334W        W47803  15.380   2.309  13.117  0.3394  0.0458  0.0209
32335W        W47804   3.153   9.072  12.296 -0.1713 -0.1075  0.1084
32336W        W47805   6.528   9.765   2.649 -0.1658  0.1106  0.1597
32337W        W47806   0.966  10.363  13.434  0.2244 -0.2533  0.2728
32338W        W47807  17.273  13.512  12.429  0.0604 -0.0356 -0.0711
32339W        W47808  14.496   7.084  13.458  0.1064 -0.0825  0.1330
32340W        W47809  18.535   0.109   0.409  0.1474 -0.0251  0.1223
32341W        W47810  11.252   7.106  11.418 -0.4878 -0.1570 -0.3393
32342W        W47811   3.102  15.653   1.204  0.1468 -0.0765  0.1291
32343W        W47812  17.678   8.585   3.513  0.1723  0.2205 -0.0462
32344W        W47813  11.700  12.643   2.840 -0.0714  0.3339  0.0809
32345W        W47814   5.434  16.322  12.125  0.2942 -0.2769 -0.0162
32346W        W47815   5.985   2.589  11.908  0.1598  0.1866 -0.1460
32347W        W47816  14.031   8.398   0.589 -0.1805 -0.0518  0.2223
32348W        W47817  14.591   0.478  12.026 -0.0532 -0.1251  0.1877
32349W        W47818  14.838  14.548  12.914 -0.2647 -0.1119 -0.0847
32350W        W47819  18.610  13.754  14.612 -0.2165 -0.0327  0.1589
32351W        W47820   3.220   0.610  13.027  0.1486  0.0231  0.0840
32352W        W47821  11.460  12.942  13.571 -0.2930 -0.1838  0.0577
32353W        W47822   3.876   7.201  13.208  0.1750  0.0278 -0.1008
32354W        W47823   5.644  18.731   5.701 -0.1938 -0.1512  0.1015
32355W        W47824  18.397   7.049   1.754  0.1927 -0.1119 -0.2482
32356W        W47825  15.621  12.878   4.350 -0.1147  0.0648  0.0838
32357W        W47826  15.641  18.491   3.067 -0.1095 -0.0253 -0.0576
32358W        W47827  15.284  14.788  14.286  0.0911 -0.0710 -0.0127
32359W        W47828  10.031  15.055  13.326  0.1719 -0.2268 -0.0559
32360W        W47829   1.674   7.232  12.744 -0.3268 -0.3899 -0.0462
32361W        W47830  18.160   0.355   2.725  0.0658 -0.0727  0.1299
32362W        W47831  13.571  10.626  11.073 -0.3111 -0.0874 -0.2295
32363W        W47832  10.397   1.429  15.052 -0.2821 -0.0984 -0.1506
32364W        W47833   0.124   4.645  10.563  0.2080  0.0381  0.1001
32365W        W47834   1.843   1.028  11.107 -0.0579 -0.2114  0.0454
32366W        W47835  18.687  15.119   1.519  0.3587 -0.2509 -0.1680
32367W        W47836   8.218  15.605   5.323  0.1867  0.2866 -0.3153
32368W        W47837   2.141   7.715  10.621 -0.1134  0.1417 -0.0256
32369W        W47838   7.163   8.240  14.593  0.3329  0.1424  0.1267
32370W        W47839   9.927   3.255   2.464  0.1477 -0.2419 -0.2468
32371W        W47840   0.294   3.240  10.481 -0.1845 -0.0238 -0.0665
32372W        W47841   2.154  13.862   3.832 -0.0616  0.0177 -0.3246
32373W        W47842   0.292  10.576  11.857 -0.3500  0.4576 -0.1742
32374W        W47843  10.487  10.245   2.782  0.0623  0.3105  0.1661
32375W        W47844   7.899   5.710  10.885  0.1305  0.3935 -0.0351
32376W        W47845  18.527   4.578   3.347  0.2465  0.1559 -0.3140
32377W        W47846   0.740  10.918  11.918 -0.1567  0.1455 -0.0348
32378W        W47847  14.587  12.726  11.706  0.1925  0.1356  0.1891
32379W        W47848   7.060   7.727  12.463 -0.0869 -0.1493 -0.0089
32380W        W47849   8.796  15.410  15.090 -0.3941  0.0740  0.2074
32381W        W47850   1.169  15.765  14.447  0.1942 -0.0680 -0.1440
32382W        W47851  15.536   9.146  10.686  0.2638  0.0356  0.3242
32383W        W47852   9.682  11.830   9.967  0.2007 -0.0020 -0.0064
32384W        W47853  15.444   9.898  14.254  0.2138  0.0719  0.2231
32385W        W47854   9.603  17.749   1.549 -0.1207 -0.3395  0.0637
32386W        W47855   4.675   3.853   0.742  0.1030 -0.0316  0.1320
32387W        W47856  16.062   3.522   1.694  0.1286  0.3443 -0.2541
32388W        W47857   8.121   1.242   0.463  0.1682  0.1725  0.0475
32389W        W47858  16.030   7.319   3.033 -0.3114  0.0494 -0.1534
32390W        W47859  14.236   1.548   2.415  0.1745 -0.0754 -0.2435
32391W        W47860  13.546  11.569   0.260 -0.1024  0.3124  0.2002
32392W        W47861  18.447   6.972  14.167  0.2110 -0.0474 -0.1800
32393W        W47862   0.985  11.390   2.676  0.1230 -0.2661 -0.4471
32394W        W47863   6.129   5.321  14.319 -0.3812 -0.1391 -0.0724
32395W        W47864   0.460   4.607   0.087 -0.1281  0.1455 -0.0471
32396W        W47865  12.349   6.930   0.327  0.1878 -0.0244 -0.0722
32397W        W47866  12.712  10.438  11.867 -0.3879 -0.0172  0.0036
32398W        W47867  15.710   7.430  11.468 -0.1628  0.1728  0.0170
32399W        W47868   5.635  16.187  12.603  0.0352  0.0439  0.0886
32400W        W47869   8.545   3.805  13.979 -0.1138  0.0906  0.2664
32401W        W47870  14.605   2.186   9.671  0.1781  0.4099 -0.2017
32402W        W47871  14.173   1.389   4.624 -0.0331 -0.0833 -0.6067
32403W        W47872   9.950  13.600   5.420  0.2076  0.0588 -0.1927
32404W        W47873  14.107   5.806  13.334  0.0222 -0.0053  0.2426
32405W        W47874   7.827  17.134  13.061 -0.1454 -0.1344 -0.2654
32406W        W47875   3.076   8.397  13.749 -0.1040  0.4408  0.1825
32407W        W47876  11.715   4.784   2.284 -0.1230 -0.3793 -0.0994
32408W        W47877  14.798  10.306   0.674  0.1059 -0.1704 -0.1958
32409W        W47878  14.812  14.499   0.289 -0.0216  0.0322 -0.3352
32410W        W47879   5.634   2.187  13.660 -0.3884  0.0291 -0.1807
32411W        W47880  13.446   9.114   4.262 -0.2237  0.0413  0.1548
32412W        W47881   0.894   3.474   3.811 -0.0869 -0.3599 -0.0628
32413W        W47882   9.443  10.041   3.701 -0.1102 -0.1788  0.2138
32414W        W47883   4.268   2.360   1.622  0.5159  0.0831 -0.3004
32415W        W47884  16.968   2.744  13.192  0.3017  0.2566  0.0270
32416W        W47885   5.843   8.523   2.470 -0.2094  0.0163  0.0346
32417W        W47886   7.377  13.242   5.436  0.1269  0.2960 -0.1198
32418W        W47887   8.590   6.683  14.781 -0.0190  0.1706  0.3350
32419W        W47888  10.895   3.325   2.813 -0.0133  0.1567 -0.0569
32420W        W47889  11.449  12.866  10.268 -0.1029  0.3153 -0.0796
32421W        W47890   5.684   3.976  15.491  0.1122  0.1031 -0.2470
32422W        W47891  17.286   9.986   2.873 -0.0241  0.1235  0.1897
32423W        W47892   9.345  15.773   3.045  0.1800  0.0580 -0.0007
32424W        W47893  14.643   5.752  10.680  0.2128 -0.1315  0.1442
32425W        W47894   7.697   3.048   2.461 -0.0702 -0.0673 -0.3225
32426W        W47895   8.731   9.035  13.960 -0.0565  0.0367 -0.1978
32427W        W47896  12.951  16.220  14.758 -0.2893 -0.1493 -0.2763
32428W        W47897   5.066   5.015   3.713  0.2178 -0.0873  0.2478
32429W        W47898   3.060   3.755  15.276  0.1695 -0.2033  0.0120
32430W        W47899  15.840  12.173  14.565 -0.2384 -0.2474 -0.1802
32431W        W47900  10.698  11.412  14.214 -0.1311 -0.1591  0.3498
32432W        W47901   5.490  17.944   3.971  0.1018 -0.0688 -0.2170
32433W        W47902   9.026   3.116   5.540 -0.0917  0.0167 -0.0343
32434W        W47903  17.089  10.913   2.838 -0.3382 -0.0700 -0.0750
32435W        W47904   2.216  14.805   1.743  0.4036  0.0954  0.1915
32436W        W47905   1.054  18.378  11.728  0.1139  0.3322  0.3056
32437W        W47906  10.055  14.525   5.664  0.0555 -0.0747 -0.0461
32438W        W47907   4.995  14.153   0.447  0.2679  0.2967  0.2468
32439W        W47908  14.243  16.225  12.029 -0.2122 -0.0307  0.2080
32440W        W47909  16.529  12.429  12.035 -0.2001  0.1622  0.3352
32441W        W47910  11.800  14.737   4.202 -0.2064  0.3687  0.2619
32442W        W47911  17.885  15.074   9.715  0.0548 -0.3290  0.0889
32443W        W47912  18.086   5.049   0.558  0.2519 -0.1260  0.1901
32444W        W47913   5.617   9.705   2.663  0.1265 -0.0306  0.1477
32445W        W47914  17.377   5.190  12.722  0.2738  0.0230 -0.2640
32446W        W47915   6.282  10.103   3.183 -0.2932 -0.2577  0.0893
32447W        W47916   3.295  14.832  13.105 -0.0513 -0.3026  0.0879
32448W        W47917   7.489   4.536  13.264 -0.1234  0.1491 -0.1449
32449W        W47918  16.889   2.825   1.763  0.3946  0.1715 -0.1154
32450W        W47919  18.004  15.068   2.606 -0.0430  0.1628  0.0531
32451W        W47920  18.292   3.858   3.634 -0.2463 -0.2842  0.2012
32452W        W47921  18.632  17.466   0.272  0.2425 -0.2490  0.2599
32453W        W47922  18.202   7.282   1.304 -0.0251  0.2749  0.0568
32454W        W47923   2.808   9.528   3.766  0.0399 -0.0457 -0.2219
32455W        W47924  14.733   4.293  15.061  0.3290 -0.0016  0.3084
32456W        W47925  13.997   2.143   1.574 -0.3114  0.1576 -0.1303
32457W        W47926   8.158   1.873  12.798 -0.1257 -0.3401  0.0663
32458W        W47927   9.674  16.131  14.181  0.2030  0.0109  0.1537
32459W        W47928   8.061   7.569  10.659 -0.0065 -0.2542 -0.0377
32460W        W47929   4.782  10.687   4.993  0.0927  0.1908  0.2600
32461W        W47930  17.017  13.876  15.088 -0.1133  0.0598  0.1258
32462W        W47931   9.264   1.022   4.295  0.1471 -0.1939 -0.3600
32463W        W47932   2.741   6.480  11.144  0.1834  0.0543 -0.2541
32464W        W47933  12.905   7.649  14.547  0.0449  0.0045 -0.3695
32465W        W47934   6.935   0.804  10.450 -0.0771  0.0500 -0.1713
32466W        W47935  13.504  17.279  15.355 -0.1602 -0.1406 -0.1017
32467W        W47936   1.333  16.716  12.251  0.0039 -0.0602 -0.2285
32468W        W47937  11.538  10.613   3.385 -0.2601  0.2941 -0.1849
32469W        W47938   0.581   5.741   2.108  0.2862  0.0661  0.2450
32470W        W47939  18.656  15.555   2.191 -0.1731  0.2372 -0.1484
32471W        W47940   7.610   8.681  11.891  0.1939 -0.1342 -0.2640
32472W        W47941  13.376   4.903  12.800 -0.0200  0.0479  0.0405
32473W        W47942  15.217  16.585   3.653  0.0965 -0.0467  0.3621
32474W        W47943  10.814   9.116  11.511  0.0568 -0.0699  0.1825
32475W        W47944   1.290  13.056   3.766  0.0321 -0.1894 -0.0615
32476W        W47945  16.733   0.533  12.065 -0.2253 -0.3416  0.2963
32477W        W47946   7.173   7.313  12.230 -0.3122  0.0460  0.1694
32478W        W47947  13.469   5.734  12.351  0.1510 -0.0415 -0.2391
32479W        W47948   8.811   7.479  10.468 -0.1383  0.0672 -0.0260
32480W        W47949  13.397  18.700   5.013  0.0310  0.2537  0.0241
32481W        W47950   9.257  16.064  13.400 -0.0506  0.2286  0.1186
32482W        W47951  10.150   6.209   1.998  0.2396 -0.2426  0.2951
32483W        W47952   5.649   7.450   4.647  0.0316  0.1272  0.0362
32484W        W47953  18.256  14.314  11.980 -0.0289  0.0749  0.0727
32485W        W47954   5.904  14.635  15.015  0.0060 -0.0815 -0.2585
32486W        W47955   5.619   8.666   4.733  0.4477  0.0340 -0.1980
32487W        W47956   0.474   7.171   4.145  0.1291  0.1480 -0.2045
32488W        W47957   3.371   7.149   0.130  0.1539  0.0756 -0.1131
32489W        W47958   7.716   4.845   4.523  0.0339  0.2296 -0.0715
32490W        W47959   0.231  18.680   2.579  0.1130 -0.3989  0.0327
32491W        W47960  18.705  15.074   2.056 -0.2455 -0.0195  0.0018
32492W        W47961  17.545   0.765   5.397 -0.0929 -0.3274 -0.2039
32493W        W47962  11.395   7.932  10.544 -0.2345  0.1714  0.3043
32494W        W47963   7.861  16.063   2.460  0.4424  0.1866 -0.2416
32495W        W47964   5.684   6.270   1.496 -0.0802 -0.1060  0.3133
32496W        W47965   8.075   1.240  13.620  0.2625 -0.0673 -0.2038
32497W        W47966  14.787  15.365  15.022  0.0311 -0.0746  0.0573
32498W        W47967  13.682  15.834  12.991 -0.0640 -0.4059  0.0040
32499W        W47968  16.509   6.202  10.804 -0.2402 -0.0842 -0.0240
32500W        W47969  13.210   6.238   0.976 -0.1195  0.1089  0.1649
32501W        W47970  17.894  12.575  10.984 -0.3497 -0.6575  0.2015
32502W        W47971   6.932   4.719  13.146 -0.0597  0.0915 -0.0288
32503W        W47972   0.390   9.947  12.680  0.1003  0.0821  0.2486
32504W        W47973  15.087  12.649  14.393 -0.1558 -0.2320  0.0886
32505W        W47974   8.457   9.141   2.172  0.2965  0.1892  0.3582
32506W        W47975  15.027   4.864  14.505  0.0348 -0.0509 -0.1219
32507W        W47976  14.462  18.314  11.560 -0.1886 -0.2202  0.0184
32508W        W47977   9.175  14.167   2.678 -0.0976  0.0560 -0.3099
32509W        W47978   1.727  17.001  13.619 -0.2679  0.0416 -0.2128
32510W        W47979   2.502   5.027   3.747  0.1166 -0.3150  0.0392
32511W        W47980  17.820  13.968  14.600  0.1019 -0.0529  0.3333
32512W        W47981  10.681  10.220   3.216 -0.4045  0.1548 -0.2079
32513W        W47982   5.988   1.019   0.453  0.1921  0.0432 -0.2479
32514W        W47983   6.411   3.039  14.253 -0.0405 -0.1930 -0.0059
32515W        W47984  13.511   6.420  11.508 -0.0391 -0.4433  0.1316
32516W        W47985   5.226  15.028  14.181 -0.1877 -0.5250  0.1652
32517W        W47986  13.318   6.598  14.079 -0.1733 -0.2261 -0.1329
32518W        W47987   4.107  12.855  14.954 -0.1193  0.3815  0.2098
32519W        W47988   1.624  12.900  11.685  0.3349  0.2471 -0.1895
32520W        W47989  11.831   7.277   2.390 -0.0028 -0.0791 -0.0659
32521W        W47990  17.433   1.235   4.086  0.4460 -0.1957 -0.0745
32522W        W47991   3.964   9.750  10.586 -0.1593  0.0441 -0.0005
32523W        W47992  10.318   7.167   1.741 -0.0082  0.2074 -0.1115
32524W        W47993  17.172  18.576  13.628  0.1383  0.0595 -0.0519
32525W        W47994  13.176  18.821   5.984 -0.3469 -0.2188 -0.1025
32526W        W47995  17.484   2.194   4.812 -0.0092 -0.0258 -0.3923
32527W        W47996   8.412   9.284   3.132 -0.0539 -0.1633 -0.2112
32528W        W47997  15.193   1.613   2.628 -0.1038 -0.1965  0.4146
32529W        W47998  15.860  16.002  12.330  0.0894 -0.2679 -0.1691
32530W        W47999  18.546  17.204  12.365 -0.1028  0.1153 -0.1365
32531W        W48000   9.043  13.828  14.139  0.3083  0.1840 -0.2160
32532W        W48001  12.269   8.627  13.645  0.0510  0.0683 -0.1106
32533W        W48002   7.650  15.200   2.264  0.0296  0.0082 -0.0030
32534W        W48003  18.925  10.252  12.631 -0.1236  0.4226  0.3586
32535W        W48004  16.717  18.577  13.428 -0.2126 -0.2013 -0.1230
32536W        W48005   7.090  12.682   3.701  0.3368 -0.2770 -0.0485
32537W        W48006  10.288   4.002   3.254 -0.2398 -0.3250 -0.0515
32538W        W48007  14.286   9.898  13.282 -0.1274  0.1785 -0.1743
32539W        W48008   0.979  15.847  12.666 -0.1683  0.0132  0.2329
32540W        W48009   2.852  14.027  13.803 -0.0441  0.1478  0.1318
32541W        W48010   7.269  11.401   4.828  0.0097  0.0086 -0.2900
32542W        W48011   4.275  15.942   0.439 -0.3655 -0.0612 -0.1069
32543W        W48012   4.737  16.895  10.409  0.0419 -0.0755 -0.0991
32544W        W48013   9.691   6.546   4.731  0.0622 -0.3392 -0.2574
32545W        W48014   9.383  10.795   3.580 -0.2869  0.0936  0.2425
32546W        W48015   2.933   9.242  11.344  0.2355 -0.0448 -0.0668
32547W        W48016   8.622  16.416   1.855 -0.0204  0.0677 -0.1528
32548W        W48017  12.378  13.296   1.150  0.2032 -0.3252 -0.1060
32549W        W48018  12.179  17.364   1.480  0.1458  0.1341  0.1148
32550W        W48019  17.124  12.190  15.233 -0.0800 -0.1210  0.2160
32551W        W48020  14.156   4.913  12.289  0.0589 -0.0853 -0.1981
32552W        W48021  14.257   3.617  14.062  0.0565  0.0431  0.1760
32553W        W48022  18.013  10.506   2.516  0.2176  0.0336 -0.2732
32554W        W48023  13.825   4.402  14.048  0.1075  0.2086  0.3720
32555W        W48024   2.046  18.037  14.677  0.1595 -0.2141 -0.0530
32556W        W48025  11.566  13.896   4.506  0.0340 -0.0946  0.0616
32557W        W48026  13.823   6.558  14.853  0.3119 -0.1435  0.1272
32558W        W48027   3.288   0.837   1.799 -0.0354 -0.0247  0.1735
32559W        W48028  15.809   1.935  15.255 -0.1480  0.1464  0.1359
32560W        W48029   9.202  11.947  12.441 -0.1808  0.2455  0.1264
32561W        W48030  12.441   8.161  13.664 -0.1332  0.1688 -0.1166
32562W        W48031  17.872   2.061  13.228  0.1705 -0.0917  0.0652
32563W        W48032  14.071   1.546   0.529 -0.2018  0.3134  0.1393
32564W        W48033  13.992  15.214   0.758 -0.2828  0.3334  0.0082
32565W        W48034  13.842  17.858   3.971  0.0873  0.1055  0.0553
32566W        W48035  15.578   5.353  11.364 -0.0239  0.1427  0.0834
32567W        W48036   6.680  18.575   3.512 -0.0546  0.1021 -0.0929
32568W        W48037   2.900   1.000   2.865 -0.2343  0.0463  0.1796
32569W        W48038   4.475  14.626   1.957  0.2460  0.2769  0.2713
32570W        W48039  18.739   2.003  13.882  0.0952 -0.0119 -0.0420
32571W        W48040   4.692   0.458  14.654  0.1701  0.0645  0.4571
32572W        W48041   4.009   4.264   4.777  0.0567 -0.1052  0.1148
32573W        W48042   4.786   2.869   5.912  0.1011 -0.0790  0.1812
32574W        W48043  10.520  12.811   2.020  0.0908 -0.0558  0.2649
32575W        W48044  11.235  11.582  11.756 -0.2822 -0.0494  0.0034
32576W        W48045   9.839   6.696   3.738 -0.0062 -0.1581 -0.0250
32577W        W48046  16.742   6.690  11.569  0.2425 -0.2984 -0.0454
32578W        W48047   0.937   8.771   1.139  0.2704 -0.2597  0.0005
32579W        W48048   7.347   5.285   4.530  0.0622  0.1768  0.1567
32580W        W48049  14.886  15.079   0.578  0.0329  0.0602  0.2864
32581W        W48050   6.621   3.839  12.141  0.3233  0.0429  0.1515
32582W        W48051  17.152   4.385   2.443  0.0522  0.0056  0.1529
32583W        W48052   4.169  12.052  12.285 -0.1300 -0.0428  0.1957
32584W        W48053  14.547   9.691   2.624 -0.0114  0.2316  0.2698
32585W        W48054   5.820   7.090  11.847  0.0211 -0.2332  0.0900
32586W        W48055  16.657   1.390   3.176  0.0166  0.0125  0.2138
32587W        W48056   2.428  15.478   4.110 -0.1078  0.0860  0.2047
32588W        W48057   0.905   4.411  11.869 -0.1861 -0.3041  0.2017
32589W        W48058  18.689  14.545   2.163 -0.2516  0.3196  0.0640
32590W        W48059  13.530   6.596   1.072 -0.0057  0.3369  0.0226
32591W        W48060   3.754  13.340   1.579 -0.1268  0.1477  0.1420
32592W        W48061   5.463   7.285   0.676  0.3294 -0.0957  0.3128
32593W        W48062   9.821   8.727   1.253 -0.2163 -0.0839  0.2525
32594W        W48063  17.516   9.105   9.798 -0.1196 -0.1267  0.0502
32595W        W48064   2.188  17.294   0.808  0.4189 -0.2935  0.0841
32596W        W48065   1.589  16.158   3.922  0.0038 -0.2174 -0.0193
32597W        W48066  12.708  12.835   2.773 -0.0476  0.1231 -0.0200
32598W        W48067  10.386  18.596   4.488  0.0605 -0.4873 -0.2108
32599W        W48068   2.951   2.568   4.863 -0.3011  0.1719 -0.1732
32600W        W48069   1.479   7.743   2.381  0.0730  0.2199 -0.1521
32601W        W48070  15.202  10.022  10.613 -0.2879  0.0933  0.0815
32602W        W48071   5.215   7.245   3.955 -0.0005  0.3225 -0.1055
32603W        W48072  12.686   9.558  13.131  0.1785  0.3068  0.0819
32604W        W48073  15.996  17.631   3.110 -0.0979  0.0211 -0.5241
32605W        W48074   0.383   7.070   1.891 -0.1507 -0.0124 -0.1819
32606W        W48075  10.019   6.415  14.267  0.1219 -0.3804 -0.2689
32607W        W48076   3.384   5.015   1.288 -0.0026 -0.0225 -0.3863
32608W        W48077   7.525  10.902  13.099 -0.2039  0.3983  0.1309
32609W        W48078   1.280   5.218   3.341  0.0078  0.1183 -0.3506
32610W        W48079   2.716  12.448  10.077  0.4817 -0.3095  0.1248
32611W        W48080  14.500   1.285   4.145  0.2955 -0.1716  0.0059
32612W        W48081  17.784  12.517   3.998 -0.1909 -0.1023 -0.1670
32613W        W48082   6.984   9.289   2.088 -0.1944 -0.0399  0.0328
32614W        W48083   9.551  18.321   1.801 -0.1655  0.2334 -0.1953
32615W        W48084   1.703  17.344   2.228  0.3009  0.0790 -0.0896
32616W        W48085  14.653  16.411  15.380 -0.0573  0.0893 -0.0430
32617W        W48086   8.715   0.022  14.553  0.1610  0.0043 -0.3397
32618W        W48087  12.931   4.666   0.549  0.1686  0.0254 -0.0032
32619W        W48088  12.884   3.248   0.135 -0.1730 -0.2949 -0.1838
32620W        W48089   1.281  14.380   2.964 -0.5864  0.0157 -0.2931
32621W        W48090  18.846  15.488   5.237  0.3300 -0.2190 -0.0099
32622W        W48091   7.895  18.162  12.308  0.0708  0.1257  0.1900
32623W        W48092   3.143  15.036  14.045 -0.3096 -0.0332 -0.2774
32624W        W48093  12.508   0.989  14.006  0.1721 -0.0725  0.0596
32625W        W48094   0.481   5.374   3.802 -0.1897  0.0368  0.0958
32626W        W48095   2.965  12.496  10.838  0.1071 -0.1994  0.0517
32627W        W48096  17.921   3.462  10.484  0.2805  0.4077 -0.0600
32628W        W48097  16.890   9.525  12.142  0.1720 -0.1630  0.0403
32629W        W48098  12.056  15.443  11.662  0.1985 -0.0383 -0.0195
32630W        W48099   4.975   6.346  11.344 -0.3373 -0.0621  0.1556
32631W        W48100  10.930   2.722   4.683 -0.1118 -0.0416 -0.0680
32632W        W48101   9.055   3.825   0.424  0.1779 -0.0020  0.0573
32633W        W48102   3.870  17.921  15.368 -0.0990  0.1820  0.1932
32634W        W48103   3.393  11.171  10.198  0.0458  0.0682 -0.0852
32635W        W48104  15.722  10.826  13.180  0.0139  0.2519 -0.0125
32636W        W48105  17.778   6.276  11.954  0.2269  0.3151 -0.1807
32637W        W48106  13.564   6.993   1.554 -0.0428  0.2843  0.0332
32638W        W48107   6.392  14.220   0.141 -0.2467  0.4678  0.0484
32639W        W48108   9.881  15.862   0.087  0.2091 -0.1161 -0.0906
32640W        W48109  18.915  11.162  14.811 -0.3411  0.0351 -0.3043
32641W        W48110   1.018  11.012  14.808  0.2266  0.0186  0.2314
32642W        W48111   7.879  12.319   3.386 -0.1303 -0.0814  0.1032
32643W        W48112   8.865   8.354   3.942 -0.0832 -0.1770  0.0898
32644W        W48113   6.434   1.981  14.251 -0.2855  0.1347  0.0569
32645W        W48114   1.055  15.032   4.210  0.1244  0.1739  0.2561
32646W        W48115   4.962   1.443  15.093  0.0182  0.1816 -0.0474
32647W        W48116   9.644  13.930   2.608 -0.2326  0.4997 -0.2353
32648W        W48117   3.277  11.174  11.851 -0.0487 -0.1395  0.1537
32649W        W48118  13.091   6.445  10.567  0.0763 -0.0689 -0.0502
32650W        W48119  13.983   6.774  10.804 -0.3066 -0.1549  0.0446
32651W        W48120   2.595  11.929   2.615 -0.3448  0.3221  0.3221
32652W        W48121   6.741   4.839  14.271 -0.2217  0.1894  0.1730
32653W        W48122  12.799   1.722  11.345 -0.0797  0.1687 -0.0696
32654W        W48123   4.218  10.152  13.701 -0.0655 -0.1036  0.0699
32655W        W48124   5.165   8.219  12.061  0.2276  0.1614  0.0561
32656W        W48125   7.203  11.867  12.203  0.0298  0.0454 -0.3837
32657W        W48126  13.830  15.993   2.831 -0.1540  0.2504 -0.1194
32658W        W48127  10.457   0.338  10.357 -0.0528  0.0334  0.2733
32659W        W48128   0.052  18.229  13.976  0.1543 -0.0271  0.1321
32660W        W48129   7.150   6.375  10.696  0.2228 -0.0720  0.3431
32661W        W48130   3.087  16.497  12.121 -0.2714  0.0242  0.1040
32662W        W48131   7.061   1.330   2.955 -0.1564  0.0082 -0.4024
32663W        W48132  14.502   1.015   4.854  0.1153  0.2917 -0.3357
32664W        W48133  18.478   7.542   5.495  0.0083  0.0991  0.0530
32665W        W48134  14.290  16.269   3.559 -0.1415 -0.0453 -0.2604
32666W        W48135  17.646   4.596   4.250  0.1986  0.4031  0.5315
32667W        W48136   4.222   3.489   2.614 -0.2817 -0.2926 -0.0041
32668W        W48137   2.843  10.711   3.026 -0.1219 -0.0721 -0.0598
32669W        W48138   4.578   8.907  15.436  0.1455  0.1593 -0.3118
32670W        W48139   4.115   9.755  14.495  0.2398 -0.0475  0.2039
32671W        W48140  10.453  14.643   6.099 -0.0161 -0.0295  0.0667
32672W        W48141   8.204   0.244   4.917  0.0229 -0.3574 -0.1391
32673W        W48142   0.613   6.620   1.528 -0.0422  0.0386  0.3608
32674W        W48143   2.749  11.580  10.548  0.0885 -0.0854 -0.2495
32675W        W48144  18.338   6.354   0.267 -0.0613  0.1068  0.0020
32676W        W48145   1.681  15.654   0.468 -0.1569  0.1477 -0.1313
32677W        W48146  17.612  11.440   3.584  0.2640 -0.0658 -0.3103
32678W        W48147   7.633  10.384  11.766  0.2684 -0.0097  0.2915
32679W        W48148  13.454   4.729  11.745 -0.2023  0.0736  0.1149
32680W        W48149   2.089   1.099   5.332  0.1789  0.0803 -0.1256
32681W        W48150  13.064  13.678  11.714  0.0363 -0.3441  0.0655
32682W        W48151   3.942  13.276   2.060 -0.2164  0.1406 -0.1129
32683W        W48152  10.750  17.651   4.590 -0.1494  0.2302 -0.0259
32684W        W48153  17.402  17.720   4.445 -0.3340 -0.0496 -0.3352
32685W        W48154   0.271   9.703  10.176 -0.0711 -0.1783  0.1303
32686W        W48155   1.002   8.551   3.163  0.2863 -0.0264 -0.3200
32687W        W48156   9.812  10.856   0.592  0.3617  0.0385 -0.0609
32688W        W48157  13.279  10.262  12.567 -0.0649 -0.2191 -0.1719
32689W        W48158  15.380  10.014  13.377  0.0393  0.0073 -0.0149
32690W        W48159  17.340   0.725   2.151 -0.2006  0.2729  0.4625
32691W        W48160   0.323  11.764  10.473  0.1629  0.5108 -0.2533
32692W        W48161   7.865   6.872   5.106  0.0969 -0.0504 -0.2847
32693W        W48162   1.553  12.104  11.119 -0.0610  0.0462  0.3027
32694W        W48163   5.435   1.248   3.136 -0.1696 -0.1199  0.1142
32695W        W48164  12.952  12.338  12.977  0.0748  0.0283  0.3347
32696W        W48165  16.529   4.408   1.468 -0.0847 -0.2518 -0.1946
32697W        W48166  17.613  18.136   6.337 -0.3384 -0.1757  0.0268
32698W        W48167  14.480   4.951  13.039  0.0293 -0.2958  0.1388
32699W        W48168  15.963  15.628  13.175 -0.0190  0.0597 -0.0465
32700W        W48169  11.868   3.904   5.580 -0.2010  0.1116  0.0327
32701W        W48170  18.618   9.058  15.219  0.3182 -0.1608  0.1911
32702W        W48171   6.527  13.606   4.376  0.0099  0.0141 -0.1529
32703W        W48172   7.205  13.101   0.242 -0.0923 -0.0361  0.0422
32704W        W48173  15.455   5.694  10.134 -0.0279  0.0068 -0.2625
32705W        W48174   6.417   5.013   2.581 -0.1370 -0.1864  0.2605
32706W        W48175  11.391  13.940  14.162  0.0234 -0.0890  0.2749
32707W        W48176  12.515  12.045   2.621 -0.0254  0.3463  0.1693
32708W        W48177   1.816   1.281  15.450 -0.0291  0.4110  0.1433
32709W        W48178   0.724   1.310   0.383 -0.1536 -0.1675 -0.3048
32710W        W48179   4.977  10.255   2.012 -0.1810  0.1046 -0.3212
32711W        W48180   4.043  12.084   3.244 -0.2963  0.2187 -0.0364
32712W        W48181  17.309  18.018   3.969 -0.0383 -0.0491 -0.3326
32713W        W48182  14.151  16.524   3.991 -0.0561 -0.2005  0.2032
32714W        W48183   7.573   2.021  10.996 -0.4816 -0.2125 -0.1471
32715W        W48184  18.445  14.241   2.761  0.2215  0.0806 -0.2157
32716W        W48185  13.291  11.163   0.047 -0.0859  0.1630 -0.1132
32717W        W48186   3.895  11.294   3.441 -0.1894 -0.1359 -0.0094
32718W        W48187  18.353   9.901  14.358  0.0501 -0.0053  0.0024
32719W        W48188   3.919  17.386  13.704 -0.1224  0.1346 -0.0675
32720W        W48189   1.815  16.155  13.275 -0.0713  0.0395  0.1558
32721W        W48190   5.888  15.530  13.212 -0.0611  0.1096 -0.0890
32722W        W48191  17.665  16.235  14.345  0.1635  0.4505 -0.1273
32723W        W48192   4.405  14.737   1.392 -0.1004  0.0638 -0.1529
32724W        W48193   7.225   6.861  11.987  0.1910  0.5843 -0.0916
32725W        W48194   9.158   7.483   2.242  0.1087  0.0983  0.0538
32726W        W48195   3.956  15.571   1.364  0.0138 -0.0946  0.0371
32727W        W48196   7.459   3.248  15.252 -0.3118 -0.1512  0.1595
32728W        W48197   5.011   5.019   5.754  0.0225 -0.1500 -0.0958
32729W        W48198   6.334  13.369   3.199  0.1015 -0.4875  0.2101
32730W        W48199   2.094   2.568  13.833  0.0946 -0.1342 -0.0083
32731W        W48200  18.371  17.665   4.615  0.1133 -0.2680  0.2535
32732W        W48201   3.233   1.397   2.917 -0.1775  0.1723 -0.1519
32733W        W48202   5.022   1.110   1.719  0.0474  0.1589  0.1203
32734W        W48203  14.351   1.331   1.282  0.0574  0.1709 -0.1052
32735W        W48204  10.535   0.887   2.932  0.2578  0.0377  0.2973
32736W        W48205   9.756  17.227  14.318 -0.1293 -0.1453  0.0911
32737W        W48206  11.652   1.412   4.070 -0.0011  0.0914 -0.0243
32738W        W48207  12.949   1.156  14.567  0.0843  0.2793 -0.0898
32739W        W48208   4.691   3.676   1.597  0.2014 -0.3658  0.0212
32740W        W48209  13.188   8.659   3.866 -0.1275  0.0747  0.0821
32741W        W48210  16.320  11.431   2.525  0.0102 -0.0460 -0.0267
32742W        W48211  15.195   4.950   2.288  0.0640 -0.2931 -0.0959
32743W        W48212   1.132   1.834  14.306 -0.1515  0.1674  0.1712
32744W        W48213   9.169  18.219   5.199  0.0887  0.1615  0.2179
32745W        W48214  11.592  16.598   1.511  0.3495  0.0161 -0.2953
32746W        W48215  10.720  16.364   4.976  0.1599  0.0259  0.2469
32747W        W48216   2.055  13.892   2.332  0.3100 -0.0859 -0.3113
32748W        W48217   9.290  18.672   1.561 -0.2172 -0.2141  0.2680
32749W        W48218   7.310   5.472  11.340  0.1363 -0.3952  0.2859
32750W        W48219  14.056  12.054   1.697  0.2015  0.0447  0.1434
32751W        W48220   3.710  12.570   0.775  0.4001 -0.1613 -0.2560
32752W        W48221  18.780   3.809  11.012  0.2239  0.1253  0.3620
32753W        W48222  18.194  16.046  11.584  0.3281  0.0307  0.1008
32754W        W48223  18.370  18.380  12.833 -0.2444  0.0698  0.0136
32755W        W48224  10.813   9.258  15.151 -0.1996 -0.0816 -0.5211
32756W        W48225  12.192  16.537   2.402 -0.1715 -0.0119  0.3734
32757W        W48226  16.432  11.378  14.005  0.0159 -0.0476 -0.1000
32758W        W48227  13.772  16.031   1.373  0.0204 -0.0127  0.1049
32759W        W48228   2.686  10.805  14.296 -0.0972 -0.2139  0.0471
32760W        W48229  10.995   0.831   3.359 -0.1975  0.5105  0.0689
32761W        W48230   6.151  13.749   4.681 -0.0772  0.1873 -0.1922
32762W        W48231  10.324   8.153  15.180 -0.4359 -0.4530 -0.2120
32763W        W48232   3.585  17.368   1.055 -0.2128 -0.1815  0.1458
32764W        W48233   3.599  15.057   1.563  0.0792 -0.4397  0.0316
32765W        W48234  14.278  13.151   1.985  0.1288 -0.0271 -0.2618
32766W        W48235  16.485   6.082   0.206 -0.2012 -0.1234  0.2281
32767W        W48236   8.784   0.085  12.902  0.0065  0.0019 -0.0587
32768W        W48237   1.573   3.035  11.080  0.1989  0.0012 -0.0501
32769W        W48238  12.148   3.884  15.451 -0.0301 -0.0604  0.2268
32770W        W48239  14.925   0.031   2.318  0.7279 -0.0309 -0.1779
32771W        W48240   4.134   3.473  15.411 -0.2302 -0.1334  0.2674
32772W        W48241  18.053  13.800   1.454  0.3551 -0.3003 -0.2684
32773W        W48242   2.514   3.560  12.967  0.0745  0.4233 -0.0285
32774W        W48243  17.760  18.430  12.393  0.1364 -0.1392 -0.2333
32775W        W48244   8.283   3.892   5.424 -0.1368 -0.0921 -0.1203
32776W        W48245   1.949  11.420   1.646  0.1968 -0.2811 -0.0221
32777W        W48246  13.844   5.229   3.169  0.4377  0.1588  0.0280
32778W        W48247   1.857   3.646   5.797  0.1851  0.3015 -0.1012
32779W        W48248  18.889   2.268   1.794 -0.0205  0.2215 -0.0582
32780W        W48249   0.479   2.895   0.984 -0.1525  0.2479  0.1114
32781W        W48250   7.850  14.733   2.130  0.0351  0.1397  0.4060
32782W        W48251  16.285   6.970   5.288  0.0194 -0.0388  0.0107
32783W        W48252   8.599  12.470   3.188  0.0598 -0.3791  0.0868
32784W        W48253  18.827   4.987  12.622 -0.0630  0.3760  0.2020
32785W        W48254  17.412   9.697  12.073 -0.2844 -0.4046  0.2201
32786W        W48255  12.117   5.914  12.401  0.0495 -0.0267 -0.2074
32787W        W48256   5.440  10.021   1.657 -0.2383  0.0892  0.1212
32788W        W48257  18.656  10.647   4.956 -0.1693  0.1319 -0.0367
32789W        W48258  13.808   0.887  14.660  0.1679  0.1776  0.2896
32790W        W48259   9.570   8.333  11.240 -0.1170  0.2907 -0.1905
32791W        W48260  16.374  12.876   3.518 -0.0465  0.1946  0.0240
32792W        W48261  15.674   9.939  13.767  0.0493 -0.1993  0.0119
32793W        W48262   4.165  13.533  11.543  0.0314  0.2166 -0.1922
32794W        W48263  16.691   0.118  13.578  0.1803  0.0243 -0.2881
32795W        W48264  11.156   2.044  12.836 -0.0531  0.3114 -0.3212
32796W        W48265  16.882   2.464  12.779  0.1207  0.1269 -0.2573
32797W        W48266   2.930   3.932  14.043 -0.0529 -0.0180 -0.2490
32798W        W48267   3.966   5.422  14.688  0.1173  0.2677  0.2045
32799W        W48268  12.758   1.125   1.327  0.3588 -0.0092 -0.1119
32800W        W48269  11.695  13.690  13.140 -0.0027  0.2885  0.1788
32801W        W48270   2.043  16.412   1.928  0.0576 -0.1047  0.0557
32802W        W48271   9.283   0.862   3.822 -0.2770  0.0070 -0.0006
32803W        W48272  16.824  13.901   4.748  0.2869 -0.0589 -0.1582
32804W        W48273   1.907  13.302   2.974 -0.0020  0.3077 -0.1794
32805W        W48274   1.750  13.095   2.068 -0.2075 -0.1588  0.2358
32806W        W48275   6.627   6.164   4.853  0.1387  0.0474  0.2208
32807W        W48276   0.349   8.540  13.197  0.3057  0.0113  0.1034
32808W        W48277   1.302  14.073  14.591  0.2238  0.3464 -0.1162
32809W        W48278  16.325  11.428   0.084  0.3555 -0.1798 -0.0733
32810W        W48279  18.394   0.585   1.846 -0.1448 -0.2371 -0.1738
32811W        W48280   4.201  13.145  10.481  0.2559 -0.1304 -0.1126
32812W        W48281  17.110   0.895   0.372  0.1487  0.3145  0.2307
32813W        W48282  17.891  11.165  15.090 -0.2706  0.0016  0.0025
32814W        W48283   4.691   6.548  14.192  0.1239  0.1724  0.0836
32815W        W48284  17.954   7.522  11.792  0.6181 -0.0473 -0.2639
32816W        W48285   6.038  13.000   0.367  0.1650  0.2862  0.0654
32817W        W48286  11.925   4.687  11.711  0.0194  0.2578  0.0379
32818W        W48287   2.987  15.371  13.688 -0.2368 -0.0683 -0.0327
32819W        W48288   4.112   2.151   1.244 -0.1485  0.1385 -0.1736
32820W        W48289   9.745   9.556  10.909 -0.1736 -0.4227 -0.0216
32821W        W48290  10.963   6.400   2.454  0.1904 -0.0080 -0.2630
32822W        W48291   0.022   4.968   4.582  0.1076  0.3371 -0.0360
32823W        W48292  12.285  16.431   1.481  0.1160 -0.1769  0.2933
32824W        W48293   4.182  10.969  14.347  0.3033  0.2444  0.0489
32825W        W48294   7.864   0.609  14.428  0.2407 -0.0694  0.0006
32826W        W48295   9.804   6.182  12.368  0.0807  0.0304  0.0448
32827W        W48296  14.891   0.290   4.940 -0.3227 -0.2180 -0.0511
32828W        W48297   4.781  18.063  13.206  0.2286 -0.0462 -0.0768
32829W        W48298   6.444   1.733   3.221 -0.1420  0.4056 -0.0489
32830W        W48299   6.721  13.166  12.378 -0.1566 -0.1550  0.1047
32831W        W48300   8.801  17.284   4.866 -0.1351 -0.1004  0.0443
32832W        W48301   9.422   0.520   2.056 -0.0160 -0.1719  0.0561
32833W        W48302   7.562  14.569  15.024  0.0280  0.1621 -0.2043
32834W        W48303   6.828   0.328  10.570 -0.4226  0.0046 -0.2430
32835W        W48304   5.003   0.602   5.400  0.0107 -0.0129 -0.0274
32836W        W48305  13.451   2.624   0.638  0.2108 -0.1872 -0.0077
32837W        W48306   3.035  18.593   3.281  0.0831 -0.0332 -0.1143
32838W        W48307   7.721   6.255  11.731 -0.0771 -0.1606  0.4749
32839W        W48308  12.002   6.038   1.989 -0.0758  0.1423  0.3216
32840W        W48309   4.407  10.412   3.688  0.1404 -0.0502  0.1266
32841W        W48310  11.219  13.661   2.895  0.3479  0.0788 -0.2005
32842W        W48311  18.431   7.341  13.103 -0.3788 -0.0641 -0.1707
32843W        W48312   0.414   7.946  15.356 -0.2273  0.1087 -0.2777
32844W        W48313   3.077   7.559   4.121  0.4478 -0.0381  0.2030
32845W        W48314   5.974  17.020   2.367 -0.1495 -0.2944  0.0309
32846W        W48315   2.672   4.508   0.196  0.1720  0.3881 -0.1180
32847W        W48316   6.569   1.429  14.365 -0.2725 -0.0283 -0.0010
32848W        W48317   3.703  10.856   1.231  0.0706  0.1253 -0.1480
32849W        W48318   6.171  14.666   2.140 -0.3570  0.4860  0.1831
32850W        W48319   5.373  10.938   0.113  0.1597  0.2939  0.1105
32851W        W48320   8.025   3.887  15.497  0.4938  0.6642  0.0555
32852W        W48321   8.959   5.589  13.934  0.4177 -0.2049 -0.3669
32853W        W48322  10.313  18.135  12.707  0.1352  0.3817  0.3343
32854W        W48323  18.726   1.769  10.047  0.1080  0.1967 -0.1322
32855W        W48324  15.695   3.229  12.020  0.2251  0.1665 -0.0733
32856W        W48325   4.511   9.172  13.956 -0.0023 -0.1943 -0.2282
32857W        W48326   6.641   5.331   2.900 -0.0245  0.2724  0.0085
32858W        W48327  17.170   7.127  13.655  0.2026 -0.2739 -0.0386
32859W        W48328   3.288  10.819  10.644 -0.3518  0.0574  0.0738
32860W        W48329  15.349  15.723   4.476  0.0539 -0.1341 -0.2833
32861W        W48330  14.291   7.207   0.124  0.0650  0.0994 -0.2272
32862W        W48331  14.585  12.842   0.738  0.2706 -0.3340 -0.0689
32863W        W48332   1.835  12.984   0.487 -0.2208 -0.3615 -0.1920
32864W        W48333  14.335  18.569  14.922  0.1155 -0.0838 -0.4018
32865W        W48334  14.275   5.740  14.753  0.0454  0.1125 -0.0671
32866W        W48335  17.839   3.350   4.857 -0.0913  0.3025  0.2255
32867W        W48336   9.721   7.940  13.600  0.2471  0.2257  0.2500
32868W        W48337  16.715  10.945  12.051 -0.0178 -0.0066 -0.1332
32869W        W48338  10.996   1.138  10.456  0.0553  0.1153  0.1934
32870W        W48339  10.454   5.378   4.315  0.1381  0.0406 -0.1146
32871W        W48340   4.296  12.370   4.979  0.2052 -0.0098 -0.0082
32872W        W48341   9.676  12.820  14.908 -0.1923 -0.2940  0.2638
32873W        W48342   2.045   2.531   2.045 -0.1119 -0.1676  0.2338
32874W        W48343  16.745  12.182   1.277 -0.2756  0.0415 -0.0511
32875W        W48344  12.541   1.502   4.472 -0.1234 -0.1597 -0.0664
32876W        W48345  13.325  15.738   1.261  0.2031  0.1475 -0.0210
32877W        W48346  16.149  11.179  12.149 -0.2566  0.0894  0.2238
32878W        W48347  12.029   0.071   4.898  0.0360  0.0400  0.0017
32879W        W48348  10.482   7.868   1.100  0.1685 -0.2188 -0.1380
32880W        W48349  15.848   2.632  14.462  0.0530  0.0239  0.2173
32881W        W48350   1.773  17.820   2.451 -0.0719  0.2698 -0.1390
32882W        W48351   2.003  12.044  13.939  0.1159  0.1002  0.1220
32883W        W48352   2.664   9.349   3.299 -0.0647  0.0320  0.0299
32884W        W48353   2.140   7.052   3.521 -0.1115 -0.4307 -0.1437
32885W        W48354  15.898  10.756  11.489 -0.1689 -0.1564 -0.3191
32886W        W48355   8.284  15.590  14.116  0.3315 -0.2164  0.1029
32887W        W48356   1.042   7.742  12.060 -0.1242 -0.2722  0.0897
32888W        W48357   2.111  11.628  12.416 -0.1121  0.3164 -0.1309
32889W        W48358  18.268  17.156  13.629 -0.0678 -0.1760  0.2514
32890W        W48359  11.480  17.871  11.780 -0.0036  0.0818  0.0746
32891W        W48360   5.525   2.387  12.025 -0.0692  0.0725  0.1562
32892W        W48361   4.749  10.866  12.974 -0.1064  0.0014  0.0998
32893W        W48362   5.115  12.833   4.646 -0.1699 -0.0653  0.1164
32894W        W48363   7.781   0.258  10.588 -0.0431  0.0650  0.2289
32895W        W48364   2.093  12.001   1.898 -0.3414  0.0841 -0.0665
32896W        W48365  17.318  12.526   3.822  0.2088 -0.0720 -0.2028
32897W        W48366  12.997   3.874  11.599 -0.0173  0.4313 -0.0948
32898W        W48367  13.667   7.103   1.043 -0.0175 -0.0943  0.1642
32899W        W48368  16.592   7.691   1.735  0.1918  0.0065  0.1865
32900ION     NA48369   3.112  10.144   1.828 -0.0462  0.0798  0.1027
32901ION     NA48370   7.676  13.749   9.942  0.1929  0.1043  0.1103
32902ION     NA48371   5.812   9.595   0.990  0.0090 -0.1206  0.4039
32903ION     NA48372  16.908  12.540  10.592  0.0505 -0.0985 -0.2142
32904ION     NA48373  10.593  15.323  12.381 -0.1217 -0.1901  0.0356
32905ION     NA48374  13.998   6.900   5.634  0.1713  0.3681  0.0298
32906ION     NA48375  10.912   2.048   9.461  0.0029  0.0665  0.3074
32907ION     NA48376  12.453  18.009  10.025  0.6319  0.1305  0.1326
32908ION     NA48377   0.195  17.274   9.979 -0.0757  0.1066 -0.0058
32909ION     NA48378  10.217   1.490   9.572  0.2327 -0.0850 -0.2042
32910ION     NA48379  13.461   6.427  12.466 -0.0793 -0.0128 -0.1967
32911ION     NA48380  10.824   6.434   9.299  0.0641  0.2809  0.0851
32912ION     NA48381  16.617  17.014  11.352  0.2061 -0.1372  0.2748
32913ION     NA48382   9.063   9.651   5.547 -0.2062 -0.1507  0.1097
32914ION     NA48383  12.639  15.492  14.096 -0.0040 -0.2568 -0.0489
32915ION     NA48384   7.483  14.529  10.291 -0.2787 -0.1177 -0.1207
32916ION     NA48385  12.834   6.151   5.229  0.0968 -0.2875  0.1074
32917ION     NA48386   6.075   4.719  11.950  0.0152 -0.0305 -0.0284
32918ION     NA48387  17.059   6.755   9.775  0.3129  0.0887  0.2425
32919ION     NA48388   6.877  13.972   0.184 -0.1416 -0.2438 -0.2557
32920ION     NA48389   8.595   0.128  13.994  0.2139 -0.0551 -0.0538
32921ION     NA48390   5.986  14.540   9.927 -0.2149  0.2027 -0.1054
32922ION     NA48391   1.700   1.944  10.063  0.1997 -0.1651  0.0311
32923ION     NA48392   6.175  17.864   1.734 -0.1567  0.0350 -0.0480
32924ION     NA48393  12.647  13.319   4.367 -0.2373  0.0132 -0.0544
32925ION     NA48394   4.725   7.727  11.652  0.2111 -0.2794  0.0236
32926ION     NA48395   7.729   7.600   5.144 -0.3707 -0.3019 -0.2369
32927ION     NA48396   2.824   7.921   9.507  0.1521  0.0361 -0.0398
32928ION     NA48397   4.249  16.537  15.150  0.1785 -0.0824  0.0171
32929ION     NA48398  15.526  15.855  14.455  0.1037  0.2520 -0.0017
32930ION     NA48399  15.436   1.603   9.658 -0.1363  0.1531 -0.2809
32931ION     NA48400  11.689   4.640   9.758  0.3722 -0.3319 -0.0638
32932ION     NA48401   2.393  18.389   5.537 -0.0140  0.2298 -0.1270
32933ION     NA48402  14.065  15.839  10.532 -0.0152  0.1805 -0.2015
32934ION     NA48403   7.414   6.686   9.575 -0.0885 -0.0096  0.2986
32935ION     NA48404   6.568   8.275   5.175  0.2103  0.1189  0.1950
32936ION     NA48405   9.274   6.054   3.479  0.2293  0.0783 -0.0014
32937ION     NA48406   6.339   7.957  12.622 -0.0154  0.0264 -0.1353
32938ION     NA48407   0.435  16.387  14.517  0.0479 -0.1328 -0.3317
32939ION     NA48408  16.387   0.206   3.841  0.0651  0.2618  0.1164
32940ION     NA48409  18.180   0.599   9.864 -0.0783 -0.3714  0.0696
32941ION     NA48410  17.667  14.408   4.901  0.0999  0.0022 -0.0269
32942ION     NA48411   9.963   9.719  11.858 -0.0616  0.1540 -0.6853
32943ION     NA48412  13.440  16.919   9.902  0.1098 -0.1791  0.1412
32944ION     NA48413  13.954  17.507   9.788  0.2278  0.1774  0.1460
32945ION     NA48414  13.029   2.806   0.402 -0.1584  0.4740  0.2818
32946ION     NA48415  16.480  14.751   5.250 -0.1992  0.4861 -0.1005
32947ION     NA48416  13.226  17.804  13.268  0.1638  0.1015  0.0696
32948ION     NA48417   0.953  14.990   9.993  0.3450 -0.1539  0.4656
32949ION     NA48418   5.630   2.076   9.559 -0.1176  0.1676  0.4797
32950ION     NA48419  13.086  10.256   9.966 -0.0494 -0.1686  0.0967
32951ION     NA48420   7.060  18.058  13.373 -0.0867  0.0372  0.0816
32952ION     NA48421   4.684   2.129   3.846  0.1912  0.2582  0.0227
32953ION     NA48422   5.762   6.242  11.763 -0.0550 -0.0417 -0.0945
32954ION     NA48423   7.860   2.773   9.694 -0.0984 -0.1794  0.0358
32955ION     NA48424   4.246  12.668  10.291  0.2179  0.0062  0.0146
32956ION     NA48425   6.418  16.182   1.481 -0.2572  0.0606  0.3851
32957ION     NA48426  17.520  13.914   9.897 -0.3551 -0.0904  0.0384
32958ION     NA48427   7.167   4.801  11.517 -0.2643  0.0984 -0.0862
32959ION     NA48428   7.680  11.346   9.937  0.0629  0.1882 -0.1528
32960ION     NA48429  16.479   0.653  14.392  0.3723 -0.3296 -0.2677
32961ION     NA48430  12.282   7.972   0.679  0.0517 -0.4034 -0.2662
32962ION     NA48431   9.782  17.792   0.519 -0.1183 -0.1403 -0.0220
32963ION     NA48432  14.377  15.163   9.788 -0.2736 -0.1155  0.2240
32964ION     NA48433  18.452  18.129  10.428  0.1319  0.0393 -0.2029
32965ION     NA48434  14.041  11.214   9.862  0.0787 -0.5835 -0.0719
32966ION     NA48435  17.039  17.066   5.701 -0.1687 -0.1404  0.0582
32967ION     NA48436   7.676  14.241  11.882  0.2407 -0.1997  0.0781
32968ION     NA48437  15.185  14.168  14.406 -0.0920  0.3830 -0.0868
32969ION     NA48438   0.412  11.727   9.965 -0.1784 -0.2508  0.0387
32970ION     NA48439  14.531  13.019   6.067 -0.0434  0.0434 -0.3390
32971ION     NA48440  12.465   9.018   9.553  0.1078  0.2235 -0.2216
32972ION     NA48441   5.129  14.248  10.082 -0.0017 -0.0782 -0.2960
32973ION     NA48442  15.609  17.859   9.974 -0.0038  0.3431  0.2191
32974ION     NA48443  18.337   7.837  10.082  0.2184 -0.2048 -0.0273
32975ION     NA48444   7.799  18.198  10.030  0.0945 -0.0308  0.2926
32976ION     NA48445   2.461   4.454  11.916  0.2478  0.3423 -0.2529
32977ION     NA48446  12.009  10.545   5.121 -0.0469 -0.2240  0.2029
32978ION     NA48447  12.676   6.147  11.496  0.3223  0.3289 -0.2842
32979ION     NA48448   3.063   7.306   2.221  0.0690  0.0438 -0.5140
32980ION     NA48449  17.121   1.289   3.619  0.5643 -0.3887 -0.1554
32981ION     NA48450   8.491   2.235   9.996  0.1171  0.1579 -0.1561
32982ION     NA48451   6.981   2.294   9.692 -0.2879  0.2059  0.0505
32983ION     NA48452   9.961  16.864   5.039  0.0508  0.2676  0.4822
32984ION     NA48453   3.212   5.186   9.908  0.0738 -0.1585  0.1837
32985ION     NA48454   9.481   8.108   9.647  0.0819  0.1878  0.2829
32986ION     NA48455  17.781   2.597  11.992  0.0796 -0.3625  0.0315
32987ION     NA48456  13.901  16.019   9.800  0.0528  0.0719 -0.1177
32988ION     NA48457   5.864   1.016   9.598  0.1179  0.1807  0.0815
32989ION     NA48458   5.652   7.573   9.516  0.3750 -0.1606  0.1645
32990ION     NA48459  18.872   2.470   9.977 -0.0013  0.2089 -0.0585
32991ION     NA48460   4.420  11.488   9.822 -0.2065  0.0548 -0.2274
32992ION     NA48461   7.337  12.704   9.837 -0.1209 -0.0287 -0.3642
32993ION     NA48462  10.321  10.137   9.838  0.1048 -0.2385 -0.0813
32994ION     NA48463   5.355   0.283   9.935  0.1956  0.2964  0.2890
32995ION     NA48464  10.501   4.839   0.081  0.1530 -0.3645 -0.1471
32996ION     NA48465  15.064   5.628  11.479  0.3863 -0.0488  0.0975
32997ION     NA48466  11.872  10.269   9.761 -0.3720 -0.0974  0.3269
32998ION     NA48467   0.823  15.338   5.630 -0.0333 -0.0061 -0.0566
32999ION     NA48468  14.265   3.762   2.432  0.0577 -0.0994  0.2548
33000ION     NA48469   2.182   0.252  10.201 -0.0344  0.1882 -0.1284
33001ION     NA48470  11.003   9.767  10.474  0.2675 -0.1074  0.0985
33002ION     NA48471  11.809   1.776   9.561 -0.1724 -0.1786  0.1653
33003ION     NA48472   1.709   1.215  10.516 -0.0052 -0.3303 -0.1337
33004ION     NA48473  11.350  11.580  12.739 -0.0106 -0.0612  0.0490
33005ION     NA48474  12.230   8.125   9.501  0.2787 -0.0853  0.0261
33006ION     NA48475   6.704  16.560   0.712 -0.3097  0.0790 -0.1357
33007ION     NA48476   5.183  11.436   9.766 -0.1814  0.1279  0.2119
33008ION     NA48477  13.910   7.442   9.759 -0.2206  0.0606  0.1919
33009ION     NA48478  12.173  16.683  13.267 -0.2126  0.0639  0.1687
33010ION     NA48479  13.836   6.548  10.052  0.1013  0.0773  0.1003
33011ION     NA48480  13.668  18.925  13.147  0.0992 -0.1143 -0.0628
33012ION     NA48481  12.410   3.130   9.614 -0.0075  0.1221 -0.0616
33013ION     NA48482  14.000   0.425   9.857 -0.3753  0.3558  0.2801
33014ION     NA48483  18.411  12.387  10.933  0.1781  0.0471 -0.0026
33015ION     NA48484   7.117   9.535   0.758  0.1531 -0.0720  0.1791
33016ION     NA48485  16.708  10.828   9.871 -0.0392 -0.1571  0.0658
33017ION     NA48486  12.038  11.097   2.102 -0.2388  0.0854 -0.0164
33018ION     NA48487  11.788  17.378   9.905  0.1653 -0.0339  0.1995
33019ION     NA48488  15.803   5.937   5.788 -0.1248  0.2813 -0.0558
33020ION     NA48489  10.789   6.920  10.063  0.3712 -0.1929  0.1197
33021ION     NA48490  13.748   8.731   9.742  0.0569  0.5272  0.0167
33022ION     NA48491  10.898   6.704  13.183  0.2221 -0.0373 -0.2318
33023ION     NA48492   4.725   8.686   9.678  0.0969 -0.0393 -0.1095
33024ION     NA48493  16.417  16.583  10.372  0.0227 -0.1300  0.0484
33025ION     NA48494  16.211   7.444   9.919 -0.1990 -0.0053 -0.1723
33026ION     NA48495   8.264   5.817  14.561 -0.2582 -0.1217  0.2236
33027ION     NA48496   9.577  18.552   9.986  0.2380  0.1738 -0.1625
33028ION     NA48497   3.253  17.727   9.988 -0.0713  0.0519 -0.1953
33029ION     NA48498  12.954  17.545   9.626 -0.0728  0.0248 -0.1803
33030ION     NA48499  12.331  16.315  13.816 -0.1461  0.0737 -0.5221
33031ION     NA48500   3.126  14.178   9.784 -0.0957 -0.1109  0.0310
33032ION     NA48501  12.432  14.943  10.299 -0.0354  0.3530  0.0822
33033ION     NA48502   4.008  13.634   0.932  0.0840 -0.2882  0.1589
33034ION     NA48503  13.404  15.201   9.926  0.5152 -0.0780  0.2568
33035ION     NA48504   7.909   4.777  10.441  0.1210  0.1866  0.1073
33036ION     NA48505  17.180  12.124  12.709  0.2468  0.2372 -0.2788
33037ION     NA48506  18.156   3.435   9.858 -0.0814 -0.1042 -0.0090
33038ION     NA48507  17.960   4.610   9.976 -0.0263 -0.1796  0.0813
33039ION     NA48508  14.007   4.647  11.893  0.3749 -0.1169  0.1076
33040ION     NA48509  10.999  16.711   9.932  0.2245  0.0127  0.3200
33041ION     NA48510   8.752  17.987  10.399 -0.1454  0.0662  0.2545
33042ION     NA48511   1.933  12.562   3.473  0.1990 -0.2559 -0.1804
33043ION     NA48512  11.479   6.416   9.404 -0.0657 -0.1201 -0.0052
33044ION     NA48513   4.588  16.033   9.753 -0.2146  0.1113 -0.2764
33045ION     NA48514   3.697  10.860   9.936  0.1472 -0.3693 -0.1063
33046ION     NA48515   2.374   4.799  10.825 -0.3591  0.1220  0.1985
33047ION     NA48516  15.717   9.104   9.786 -0.0973 -0.1013  0.0488
33048ION     NA48517   3.901   4.256   0.530 -0.0183 -0.0132 -0.2336
33049ION     NA48518  11.686   6.059  12.688  0.1821  0.2976 -0.0513
33050ION     NA48519   6.241  15.103   2.486 -0.1853 -0.2023 -0.3180
33051ION     NA48520   0.184   4.809   2.513 -0.1146 -0.0154 -0.2063
33052ION     NA48521   5.765  13.371  10.282  0.1645  0.2401 -0.1137
33053ION     NA48522   6.260  17.120   9.946 -0.3246 -0.1110 -0.0192
33054ION     NA48523   3.833   2.842  10.113  0.1360  0.1807  0.2512
33055ION     NA48524   4.354  18.363  10.248  0.1052 -0.0540  0.3223
33056ION     NA48525   6.230   0.582   9.850  0.0568  0.2437 -0.0044
33057ION     NA48526  15.550   6.731   9.923  0.0728 -0.1358 -0.1692
33058ION     NA48527  11.004   4.581   4.661  0.1248 -0.0291  0.2135
33059ION     NA48528   0.536   8.920   9.850  0.3091 -0.2600  0.1853
33060ION     NA48529   1.884  16.949  14.605 -0.2777 -0.0289  0.2428
33061ION     NA48530  11.115  11.171  14.071  0.4077 -0.4139  0.3400
33062ION     NA48531  14.478   1.690   9.734 -0.2046  0.1119  0.4271
33063ION     NA48532  14.365   7.384   9.683  0.0154 -0.4271  0.0281
33064ION     NA48533   7.073  13.136  12.840 -0.0022 -0.1042 -0.1376
33065ION     NA48534  16.404   4.278   4.606 -0.2142 -0.0615  0.0936
33066ION     NA48535   1.773   5.248   9.789 -0.1822  0.2464 -0.1417
33067ION     NA48536  14.802  16.098   9.903  0.1470  0.1871  0.4108
33068ION     NA48537  13.117   6.116   9.779  0.0295  0.3175  0.0703
33069ION     NA48538   9.957   5.690   5.014 -0.0565  0.0419  0.1859
33070ION     NA48539  11.927   9.025  15.076 -0.0795 -0.0088 -0.0991
33071ION     NA48540   1.738  15.354   9.779 -0.3673 -0.2748  0.0834
33072ION     NA48541   3.430   2.630   1.268 -0.0601 -0.2495 -0.0886
33073ION     NA48542   7.016  13.133   9.895 -0.0224  0.1176  0.1468
33074ION     NA48543   0.302  14.428   5.075  0.1066  0.1199  0.3418
33075ION     NA48544  17.474  10.325   3.552 -0.2056  0.0876 -0.0638
33076ION     NA48545   0.676   0.575   4.688  0.1001 -0.0811 -0.0919
33077ION     NA48546  15.234  13.490  10.056 -0.0717 -0.0206  0.0822
33078ION     NA48547   5.830   4.206  10.024  0.3974  0.0370  0.4325
33079ION     NA48548   8.795  13.145   4.513 -0.1218  0.0084  0.0478
33080ION     NA48549  17.302   3.759   5.242  0.4037 -0.1849 -0.1210
33081ION     NA48550   5.197   7.630  10.235 -0.1415 -0.3600 -0.3907
33082ION     NA48551  13.216  12.979  13.439 -0.1635 -0.2275  0.0677
33083ION     NA48552   7.074   6.485   5.409 -0.3441  0.0367  0.0359
33084ION     NA48553   7.800   5.808   9.489  0.0201  0.1908  0.0861
33085ION     NA48554  17.868  11.270   9.541 -0.2015 -0.0789 -0.2213
33086ION     NA48555  14.036   8.181  10.210  0.1832 -0.1153 -0.0755
33087ION     NA48556   7.228   3.214   3.933  0.0045  0.2006 -0.2433
33088ION     NA48557  14.002  10.044   5.247 -0.0539 -0.3759 -0.1755
33089ION     NA48558  10.594   2.986   9.574 -0.0323  0.0526 -0.0472
33090ION     NA48559   0.253   0.945  12.733 -0.0181  0.1166  0.1436
33091ION     NA48560  11.445  17.025   1.266 -0.1304 -0.1064  0.0101
33092ION     NA48561   1.632   2.862   5.132  0.0705 -0.0274 -0.2001
33093ION     NA48562   3.855  17.980   1.467 -0.2121 -0.1275 -0.1607
33094ION     NA48563   3.422  16.715   5.493  0.0120 -0.0309  0.0744
33095ION     NA48564  17.228  18.606  15.286  0.2390  0.0665  0.1399
33096ION     NA48565   8.601   4.835  12.317  0.2469  0.1084 -0.4189
33097ION     NA48566  10.196  16.841  10.023  0.2143 -0.0892 -0.0631
33098ION     NA48567   7.315   8.431   9.888  0.0603 -0.0694  0.0627
33099ION     NA48568  11.474  18.314  10.940  0.1676  0.1958  0.1829
33100ION     NA48569   3.165  18.792   2.882 -0.4299 -0.2167  0.1961
33101ION     NA48570  17.907  16.144  10.155 -0.0457  0.0504  0.0283
33102ION     NA48571  13.934  18.352   9.970  0.0087  0.1958 -0.1117
33103ION     NA48572  16.282   9.408  15.423 -0.1042  0.1498 -0.2208
33104ION     NA48573   8.916  17.683  11.300  0.2541 -0.0149 -0.2412
33105ION     NA48574  15.406   4.596   9.980 -0.1506  0.0081 -0.0478
33106ION     NA48575  10.922  14.030   5.575  0.1386  0.1349 -0.0708
33107ION     NA48576  15.694   8.978   5.299 -0.0653  0.3661 -0.0883
33108ION     NA48577   1.438   7.258   9.945 -0.1689  0.1789 -0.1696
33109ION     NA48578   0.410   5.780  10.310 -0.3085  0.0811 -0.0788
33110ION     NA48579  18.846  18.768  14.293  0.1258  0.0552 -0.3130
33111ION     NA48580  13.385  11.996  10.050  0.2491 -0.1161  0.3260
33112ION     NA48581   1.285   2.231   0.919  0.0864 -0.0888 -0.1157
33113ION     NA48582  11.055  13.815   5.959 -0.2941  0.1875  0.1083
33114ION     NA48583   4.723   7.645   9.463 -0.1915  0.1666  0.2609
33115ION     NA48584  18.059   9.078  14.129 -0.2683  0.1386 -0.1465
33116ION     NA48585  16.088  18.714   4.428 -0.0040 -0.0105 -0.0800
33117ION     NA48586  13.988   3.314  12.183  0.0353  0.0720 -0.1010
33118ION     NA48587  11.560   5.416   9.433 -0.0282 -0.0008 -0.1297
33119ION     NA48588  13.519  18.940   5.493 -0.1736  0.1658 -0.0700
33120ION     NA48589  12.943  15.408   9.794 -0.2910 -0.3366  0.0308
33121ION     NA48590   6.482  11.515  13.698 -0.2057  0.1561 -0.1042
33122ION     NA48591  12.888  11.978   6.067 -0.0556 -0.2410  0.0031
33123ION     NA48592  13.779  10.009  10.222 -0.0746 -0.0250 -0.1007
33124ION     NA48593  14.643  18.105   9.734 -0.0891 -0.0175  0.5012
33125ION     NA48594  11.333  11.108   9.881  0.1962 -0.2465 -0.2573
33126ION     NA48595  15.336  13.692   0.124  0.2272  0.1968  0.2776
33127ION     NA48596  13.800   6.057   5.503 -0.0945  0.3657 -0.0233
33128ION     NA48597  16.822   9.562  10.888  0.0638 -0.2845 -0.0418
33129ION     NA48598   8.033  10.469   9.951  0.1358  0.0955  0.1617
33130ION     NA48599  12.922  10.462   5.016 -0.5143 -0.1465  0.2141
33131ION     NA48600   0.896   3.794   9.503 -0.1191  0.1698  0.0564
33132ION     NA48601   8.047  16.145   6.131 -0.0013 -0.2471 -0.1132
33133ION     NA48602   1.835  16.559  10.056 -0.2852  0.1733 -0.0681
33134ION     NA48603   3.727  10.844  11.994 -0.2571  0.0744 -0.0676
33135ION     NA48604  18.504  13.268   9.647 -0.0447 -0.1710 -0.2182
33136ION     NA48605  18.409  14.459  10.303  0.0637  0.2044 -0.2458
33137ION     NA48606  11.591   7.989  11.540  0.1471 -0.0351 -0.1607
33138ION     NA48607  16.093  12.712  13.398 -0.1704 -0.1737  0.1341
33139ION     NA48608   4.426   3.698  10.084  0.0230 -0.2284  0.2552
33140ION     NA48609   7.764  16.481  10.121 -0.3476  0.0197  0.1288
33141ION     NA48610   3.023   8.774   9.738  0.2376 -0.0514  0.0649
33142ION     NA48611  15.593   1.715   2.249  0.1411 -0.0775  0.2333
33143ION     NA48612  15.275   2.377   9.653 -0.1222 -0.0774 -0.3083
33144ION     NA48613  13.917  15.351   5.280  0.1063 -0.1061  0.1621
33145ION     NA48614   8.084  12.873   9.838 -0.2423 -0.0869 -0.0157
33146ION     NA48615   1.097   4.715  12.464 -0.0581  0.2850  0.0325
33147ION     NA48616   0.912   8.668  11.086 -0.0355  0.5742 -0.0628
33148ION     NA48617   4.238  12.118  10.411 -0.1718  0.2922  0.3736
33149ION     NA48618  10.825  17.087   5.786 -0.2105 -0.2144 -0.2545
33150ION     NA48619  13.166   9.584   9.674  0.2891 -0.0561  0.0592
33151ION     NA48620   3.115  12.715  10.162 -0.0890 -0.0179  0.1113
33152ION     NA48621   7.014   7.001  14.468  0.2142 -0.1074  0.1220
33153ION     NA48622   3.692   7.095  11.573 -0.1705  0.1886 -0.0387
33154ION     NA48623  12.594   0.585   9.752  0.2577 -0.2042  0.2693
33155ION     NA48624   3.865  15.400  14.273 -0.1794 -0.0150  0.0630
33156ION     NA48625   0.281  13.771   9.969 -0.0424  0.0109 -0.2462
33157ION     NA48626   5.664   5.360   9.725  0.1654 -0.0530  0.1271
33158ION     NA48627   3.669  16.343  15.296 -0.1477 -0.0555  0.1159
33159ION     NA48628  17.290   2.110   9.776 -0.3533  0.0179  0.1298
33160ION     NA48629   1.496   6.138   9.845  0.2045 -0.0818  0.2935
33161ION     NA48630   2.426  14.751   9.755  0.1179 -0.0728 -0.3016
33162ION     NA48631  11.954  17.829   5.665  0.0946  0.1059  0.0721
33163ION     NA48632   5.107   4.497   9.613  0.2147 -0.2889  0.1193
33164ION     NA48633   0.901  18.873   2.472  0.2256 -0.0656  0.0516
33165ION     NA48634  15.871  11.099   9.699  0.4740  0.2598  0.1667
33166ION     NA48635  11.582  12.466   9.740 -0.6003 -0.3988  0.0730
33167ION     NA48636  15.969  11.694   5.463  0.0705 -0.2426  0.0044
33168ION     NA48637   1.867   7.974   9.645 -0.0502  0.4047 -0.0601
33169ION     NA48638  11.896   8.054   5.074  0.1403 -0.0161 -0.2426
33170ION     NA48639   4.147   7.557   2.349  0.0784  0.1219 -0.1466
33171ION     NA48640  14.363   2.703   9.776  0.2579  0.0320 -0.0040
33172ION     NA48641  16.207  13.067   9.930  0.0712 -0.0539  0.3226
33173ION     NA48642   1.584   3.019   2.033  0.0117  0.1358  0.2956
33174ION     NA48643  16.403   6.278   9.745  0.0119 -0.0951  0.1049
33175ION     NA48644  17.443  18.936  13.907 -0.0926 -0.2360  0.0502
33176ION     NA48645   5.753   9.761  10.070 -0.0002  0.2931  0.0515
33177ION     NA48646   9.437   5.443   2.236  0.1159  0.0373 -0.4033
33178ION     NA48647   5.720  10.703  10.263  0.0148  0.2352  0.1804
33179ION     NA48648  11.452   2.147   9.519  0.2001  0.4119 -0.2338
33180ION     NA48649  15.437   3.401   9.716 -0.1593  0.1053  0.0337
33181ION     NA48650  14.123  13.351   6.270 -0.1200 -0.0493  0.0325
33182ION     NA48651  12.015   4.257  10.098 -0.1125  0.0883 -0.1567
33183ION     NA48652   1.275   0.430  14.440  0.0165  0.1228  0.1398
33184ION     NA48653   6.289   7.464   9.619  0.1538 -0.1951 -0.3525
33185ION     NA48654   9.877   6.523  10.006 -0.0603  0.0237  0.0167
33186ION     NA48655  18.269  16.859  10.898 -0.0224 -0.5085  0.0519
33187ION     NA48656   5.216   3.635   9.897 -0.1481  0.2903 -0.0235
33188ION     NA48657  15.619  12.476   9.902 -0.3366  0.5328  0.3016
33189ION     NA48658  10.746  15.981  10.576 -0.1800 -0.2554 -0.0531
33190ION     NA48659   0.118   0.962  10.860 -0.1831  0.0557  0.1946
33191ION     NA48660   0.917  12.824   9.704  0.1421  0.3274 -0.1669
33192ION     NA48661   3.880   1.045  10.594  0.1475 -0.1478  0.0521
33193ION     NA48662   6.221   5.671  10.969  0.3684 -0.0007  0.1504
33194ION     NA48663   1.327   2.426   9.907  0.0018 -0.1246  0.1786
33195ION     NA48664   5.850  18.034   9.971 -0.3459  0.0902  0.0212
33196ION     NA48665   0.767  11.250   5.700  0.0122  0.1132 -0.2959
33197ION     NA48666  18.360   8.707   9.809 -0.1969 -0.2735 -0.1920
33198ION     NA48667  14.862  16.880   0.082 -0.2784 -0.1816  0.3348
33199ION     NA48668  18.231   6.810   9.877 -0.1186 -0.0710 -0.2128
33200ION     NA48669   6.582  17.745   9.770 -0.1400  0.2179 -0.0412
33201ION     NA48670   3.390   7.939  15.500 -0.3060 -0.2024  0.1444
33202ION     NA48671  15.680  16.500   5.577 -0.0254 -0.0803 -0.0462
33203ION     NA48672  12.409   5.146   9.649 -0.1363  0.1777  0.2155
33204ION     NA48673   2.542   2.033   1.585 -0.1310  0.0304  0.2320
33205ION     NA48674  14.268  13.263   9.929 -0.0154  0.0417  0.0012
33206ION     NA48675   3.558  11.813  10.078  0.3620  0.2455 -0.0467
33207ION     NA48676  10.125   2.469   9.872  0.1092  0.1053 -0.2953
33208ION     NA48677   2.307   9.556   9.713 -0.0297 -0.1360 -0.5031
33209ION     NA48678   6.402   8.759  12.344 -0.0595 -0.1585 -0.1175
33210ION     NA48679   1.531  10.071   4.321  0.0346  0.2040 -0.1345
33211ION     NA48680  12.789   5.434  14.868  0.1445 -0.1258 -0.2412
33212ION     NA48681   3.012   3.293   9.833 -0.4339 -0.0761 -0.3284
33213ION     NA48682   8.585   8.581  14.692  0.0109 -0.0630  0.0175
33214ION     NA48683   3.260   7.528   3.073 -0.2145  0.0123 -0.1682
33215ION     NA48684   8.801  12.374   9.728  0.4227 -0.4697 -0.2624
33216ION     NA48685  11.285  10.319   5.563 -0.0183  0.0775  0.1145
33217ION     NA48686   9.907   3.320   0.522  0.3764 -0.6460  0.0761
33218ION     NA48687   5.361   2.636   9.681  0.0201  0.1055  0.1096
33219ION     NA48688  18.793  15.603  10.002 -0.1870 -0.1521 -0.3903
33220ION     NA48689   7.679  17.850   4.564  0.4537  0.2215  0.1584
33221ION     NA48690   5.981  11.162   9.961 -0.5878 -0.0997 -0.0747
33222ION     NA48691   7.269   9.368   1.256  0.1270 -0.1393 -0.1762
33223ION     NA48692  14.723  12.429   4.503  0.1337 -0.2076 -0.0448
33224ION     NA48693   1.050  17.198   2.368  0.2607  0.2423  0.0490
33225ION     NA48694  14.342  16.683   9.919 -0.3557  0.0651  0.0830
33226ION     NA48695   8.396   7.903  10.006 -0.1815  0.1198 -0.0066
33227ION     NA48696  15.965   6.675  13.399 -0.3402 -0.3141 -0.2673
33228ION     NA48697   0.032   1.072   3.685  0.3288  0.0365  0.0988
33229ION     NA48698   1.688  10.270  10.022  0.3640  0.0564  0.0441
33230ION     NA48699   5.073  15.336  13.758  0.0298  0.3365 -0.0619
33231ION     NA48700   1.946   3.681   9.959  0.0727  0.0098  0.1881
33232ION     NA48701  11.825  15.763   5.690 -0.2046  0.0327  0.0660
33233ION     NA48702  18.900   1.119  10.024  0.1428 -0.0822 -0.0532
33234ION     NA48703   2.299   4.673   9.907 -0.1708  0.0996  0.1713
33235ION     NA48704   9.134   3.231  10.983  0.0792 -0.0382 -0.2830
33236ION     NA48705  10.225   9.408   9.635 -0.0589  0.1255  0.0094
33237ION     NA48706   3.135  10.641  10.128  0.2842 -0.1618  0.1565
33238ION     NA48707   2.376  17.681   9.783 -0.2202  0.0748  0.0350
33239ION     NA48708   7.045  15.821   9.921 -0.0295 -0.1158  0.2290
33240ION     NA48709   5.210   3.229  11.699 -0.1689 -0.2867 -0.1697
33241ION     NA48710  10.841   4.738   9.454  0.3176  0.0332 -0.0398
33242ION     NA48711   9.314  15.671  10.095  0.1744 -0.0857 -0.2760
33243ION     NA48712   8.927   6.607   9.454  0.0427  0.3075  0.1234
33244ION     NA48713   3.492  14.705  10.071  0.0937 -0.4167  0.0794
33245ION     NA48714   0.456  10.305   5.737 -0.0341  0.1709 -0.2636
33246ION     NA48715   1.644   4.162   0.514 -0.1396  0.0514  0.0492
33247ION     NA48716   9.842  13.973   1.318  0.1535 -0.1743  0.2411
33248ION     NA48717  14.997   3.168   9.631  0.0915  0.0882 -0.0386
33249ION     NA48718  16.252  18.679   9.790  0.2878 -0.3568  0.0210
33250ION     NA48719  11.622   8.697   9.566 -0.0280  0.2968  0.1177
33251ION     NA48720   9.711   2.896   5.165  0.1635  0.1560 -0.1146
33252ION     NA48721   1.540   4.304   9.761  0.1423  0.1122 -0.0873
33253ION     NA48722  10.484   7.470   5.465  0.0042  0.3474  0.1910
33254ION     NA48723  12.278   9.825   9.702  0.3095  0.0280  0.2278
33255ION     NA48724   9.778  12.282   9.607  0.0442 -0.0913 -0.1217
33256ION     NA48725  14.289   3.672  11.324  0.0768  0.2394  0.1460
33257ION     NA48726   4.920   9.056   2.453 -0.2668  0.0000  0.3280
33258ION     NA48727   3.051   4.389   9.841  0.0163 -0.3443 -0.0122
33259ION     NA48728   5.500  18.759   2.306  0.0694  0.3554  0.0372
33260ION     NA48729  10.335  13.376  10.127  0.2729 -0.0361 -0.2046
33261ION     NA48730   2.172   2.561  10.605 -0.1094 -0.2846 -0.0441
33262ION     NA48731   6.592   7.866  10.191 -0.0678 -0.3474 -0.1535
33263ION     NA48732   4.948  13.290   9.870  0.1583 -0.0477 -0.2249
33264ION     NA48733   6.303   3.858  13.429 -0.1710 -0.2147  0.2556
33265ION     NA48734  12.740  14.556   1.978  0.1603  0.2523  0.0195
33266ION     NA48735   7.585   3.219   5.240  0.0251  0.0360 -0.2259
33267ION     NA48736   2.451  17.089   5.410 -0.0044 -0.0849 -0.3685
33268ION     NA48737  18.441  13.967  10.126  0.2918  0.1627  0.0954
33269ION     NA48738   4.352   0.569   9.877 -0.0578 -0.0272 -0.0717
33270ION     NA48739  11.553   9.055   2.997 -0.0477 -0.1243  0.0127
33271ION     NA48740  16.183  17.447   0.277  0.0600 -0.2016 -0.0551
33272ION     NA48741   0.469  12.210   5.343  0.1392 -0.0990 -0.0347
33273ION     NA48742  10.081   0.163  10.099  0.2154 -0.1264  0.1159
33274ION     NA48743  12.681   1.743   9.723 -0.2524 -0.0013  0.0408
33275ION     NA48744  12.487   4.371   9.902 -0.0114  0.4960  0.1057
33276ION     NA48745  16.036   1.348  11.445  0.0029  0.0637  0.0652
33277ION     NA48746  17.220   9.938   9.692 -0.0702  0.2696 -0.0676
33278ION     NA48747  10.278   4.447   9.532 -0.1894 -0.1830 -0.0662
33279ION     NA48748   5.188   5.193   2.743  0.0417  0.1878 -0.0147
33280ION     NA48749   5.131  17.467   5.795 -0.0290  0.1105 -0.0246
33281ION     NA48750   5.822   7.443   5.245  0.0967  0.2385  0.1124
33282ION     NA48751   9.568  11.033   9.776 -0.2210 -0.1073  0.1555
33283ION     NA48752  15.596   5.921   9.707 -0.2662  0.0522 -0.3669
33284ION     NA48753   2.329  17.801   0.647  0.1202  0.2558 -0.5401
33285ION     NA48754  11.202  18.708   0.750 -0.1078 -0.1039  0.4179
33286ION     NA48755   3.806   7.808   9.815  0.4110 -0.0177 -0.0797
33287ION     NA48756  13.461  11.830   2.885  0.0432  0.0417  0.2114
33288ION     NA48757  16.133  14.691   9.811 -0.3047  0.0981  0.0275
33289ION     NA48758   7.781   8.873  11.381 -0.1370  0.3342 -0.0355
33290ION     NA48759  18.210  12.242   9.471  0.1284 -0.0476  0.2498
33291ION     NA48760   1.651  18.751   5.574 -0.1577  0.2100 -0.1885
33292ION     NA48761   7.754   1.852   9.756 -0.1226 -0.0353  0.1228
33293ION     NA48762   7.463  10.325   9.981  0.0114 -0.0672 -0.0880
33294ION     NA48763   4.373   3.804   4.349  0.2640 -0.0022 -0.2208
33295ION     NA48764   2.357  18.166   9.949  0.2216  0.1591  0.2400
33296ION     NA48765  17.361   3.619   9.717 -0.1141 -0.2141  0.1189
33297ION     NA48766   5.522   8.869   9.843 -0.1417  0.0098 -0.0642
33298ION     NA48767  13.118  12.330  14.738 -0.2351  0.5341 -0.0600
33299ION     NA48768   3.962   6.489  10.027 -0.3369  0.3061 -0.4638
33300ION     NA48769  18.924   3.738  13.569 -0.0969 -0.0482 -0.4016
33301ION     NA48770  11.654   2.724   9.554 -0.1616  0.0612 -0.1453
33302ION     NA48771  13.889  10.186   9.680 -0.0595 -0.4357  0.0433
33303ION     NA48772   5.625  16.417  10.090  0.1893 -0.2043  0.1361
33304ION     NA48773   3.131   4.619   2.779 -0.2879 -0.1833  0.1212
33305ION     NA48774  10.058   8.480   5.262 -0.1175  0.1508 -0.0413
33306ION     NA48775   9.029  13.422   9.951  0.1896 -0.0245 -0.0297
33307ION     NA48776   8.260   8.197   0.165 -0.0451  0.2221  0.5342
33308ION     NA48777   7.640   4.963   5.373  0.1624 -0.1773 -0.0571
33309ION     NA48778   8.247   6.086   9.349 -0.1158 -0.0984  0.0927
33310ION     NA48779   9.735   3.212   9.566  0.2392 -0.0448 -0.2318
33311ION     NA48780   2.614  12.910   9.421 -0.0152 -0.0585 -0.1001
33312ION     NA48781   2.664   3.241   3.087  0.1767 -0.2548  0.1414
33313ION     NA48782  16.808  14.068  10.998 -0.2610  0.2293  0.2377
33314ION     NA48783   0.830   6.601  14.827  0.2663 -0.1296 -0.0757
33315ION     NA48784  17.507  10.979  10.316  0.3366  0.0004 -0.1429
33316ION     NA48785  12.075  11.324  10.569  0.0895 -0.0466 -0.1379
33317ION     NA48786  12.495   9.162   5.062 -0.1946  0.0805 -0.0594
33318ION     NA48787  11.310   0.736   5.178  0.0739  0.0417  0.0328
33319ION     NA48788   4.671  15.037   2.413 -0.0921 -0.0925 -0.0550
33320ION     NA48789   1.992  11.019   5.452  0.3397 -0.0749 -0.1166
33321ION     NA48790   2.506   4.107   5.423  0.0862  0.0261  0.0085
33322ION     NA48791  13.692   9.541  15.179 -0.1496  0.1964 -0.2304
33323ION     NA48792  12.162   6.882   9.568  0.0679  0.1603 -0.1196
33324ION     NA48793   6.349   5.748   9.589 -0.0431 -0.1735  0.1699
33325ION     NA48794  12.631  12.367  10.059  0.1395  0.1403 -0.3097
33326ION     NA48795  17.162   4.416   4.282  0.0138  0.0420 -0.4347
33327ION     NA48796   8.661   7.169   5.368  0.0115 -0.1941  0.1811
33328ION     NA48797  10.124   3.393   5.266  0.1527 -0.3378 -0.0639
33329ION     NA48798   9.412   0.927   9.930  0.2497  0.0915 -0.0062
33330ION     NA48799  17.353   1.070   9.665  0.0362 -0.1433 -0.0247
33331ION     NA48800   2.032   2.906   9.850  0.0969  0.1373  0.0068
33332ION     NA48801  15.292  14.794  10.205 -0.1379 -0.2759 -0.2129
33333ION     NA48802  12.053   6.807  11.896 -0.2243 -0.0391  0.0657
33334ION     NA48803  10.407   3.409  14.293 -0.1744 -0.2534 -0.2390
33335ION     NA48804   8.258  13.384   0.242 -0.0157  0.1067 -0.1347
33336ION     NA48805  14.749  17.601  10.140  0.0591  0.3955 -0.5620
33337ION     NA48806  13.550   2.472   9.652 -0.0951 -0.5934 -0.0550
33338ION     NA48807  17.485   8.551   9.911  0.0642  0.0511  0.0440
33339ION     NA48808   9.412   3.971   9.842  0.4840 -0.1494 -0.3946
33340ION     NA48809   3.749  18.932  10.357 -0.1730 -0.3033 -0.0619
33341ION     NA48810   6.037   1.293   5.482 -0.0675  0.0580  0.0421
33342ION     NA48811   2.852  15.543  10.012  0.0545  0.1270  0.0370
33343ION     NA48812  18.606  10.831  11.046  0.2020 -0.2165 -0.0576
33344ION     NA48813   3.536   9.489   9.893  0.1180 -0.1582  0.0805
33345ION     NA48814  15.279   1.856   5.037 -0.3337  0.1647 -0.0529
33346ION     NA48815   2.583   5.174   5.606 -0.2575  0.2232  0.1619
33347ION     NA48816  18.522   8.017   5.501 -0.0897  0.2732  0.1269
33348ION     NA48817   4.052   6.410   1.922  0.2208  0.0091 -0.3505
33349ION     NA48818   4.427  18.146   5.584 -0.2026  0.0996 -0.1212
33350ION     NA48819  11.289   1.245   3.191 -0.0373  0.0925 -0.0041
33351ION     NA48820  10.463  10.833   9.845  0.0300  0.2135  0.0905
33352ION     NA48821  11.305   0.504  10.528  0.0148 -0.0750  0.2256
33353ION     NA48822   3.441  13.377   2.042 -0.0754  0.2071 -0.0864
33354ION     NA48823  14.303   3.401   5.402  0.1794 -0.2256  0.2867
33355ION     NA48824  18.323  11.341   9.429  0.3652 -0.4117 -0.0640
33356ION     NA48825  13.203  18.735   9.855  0.2142 -0.2059  0.0888
33357ION     NA48826   8.759  17.270  10.379  0.1102 -0.1139 -0.1204
33358ION     NA48827  12.259  16.199   0.317  0.3750  0.1210 -0.0061
33359ION     NA48828   9.643   4.381   5.133  0.1487  0.0486 -0.1309
33360ION     NA48829  10.489  12.781   5.148 -0.1749  0.1627  0.0068
33361ION     NA48830   6.149   0.671   1.944 -0.2332  0.1794 -0.0539
33362ION     NA48831   3.965  16.746   5.517 -0.3395 -0.0880 -0.1606
33363ION     NA48832  18.887  14.342  12.525 -0.2479 -0.3283 -0.1582
33364ION     NA48833  13.456   0.722   9.812  0.1171  0.2480 -0.0036
33365ION     NA48834   3.176  16.381  10.768  0.0516  0.2136  0.1257
33366ION     NA48835  11.610   9.590  14.255 -0.1041  0.2329 -0.0350
33367ION     NA48836   6.716   2.118  11.795  0.2418 -0.0624 -0.2055
33368ION     NA48837   9.516  17.855   5.578 -0.0702 -0.0832 -0.3540
33369ION     NA48838  13.262   1.701   9.950 -0.1195  0.2655  0.1652
33370ION     NA48839  13.041  11.300   1.646  0.0345 -0.0670 -0.1092
33371ION     NA48840   6.203   9.102   5.520  0.0113 -0.1760  0.0048
33372ION     NA48841   4.441   5.562  10.178  0.3636 -0.1188 -0.1027
33373ION     NA48842  18.633   2.607  15.281 -0.0474 -0.0629 -0.3045
33374ION     NA48843   8.811  16.350  13.334 -0.3768  0.1312  0.0060
33375ION     NA48844   7.576  12.824   1.208 -0.1338  0.1995 -0.0845
33376ION     NA48845  12.577   2.809   5.263 -0.0748  0.2102  0.2252
33377ION     NA48846   1.948  12.021   9.599 -0.1229 -0.0197 -0.2803
33378ION     NA48847   8.460   2.624   3.674  0.1792  0.1885 -0.1416
33379ION     NA48848  17.665  14.498  13.465  0.3874 -0.2651 -0.1396
33380ION     NA48849  13.151   7.029   9.647 -0.1966 -0.2956 -0.1535
33381ION     NA48850   3.314  16.059   9.797 -0.0044  0.0951  0.3877
33382ION     NA48851  13.678  13.925   1.000 -0.1702 -0.1809 -0.0107
33383ION     NA48852  15.917   4.955   5.754 -0.2889 -0.2440 -0.0983
33384ION     NA48853  11.310   3.708   9.645 -0.1885 -0.2359 -0.0658
33385ION     NA48854  13.097   1.721   5.225 -0.0845 -0.3235  0.1072
33386ION     NA48855  18.000  15.223  10.249  0.3577 -0.3224 -0.0190
33387ION     NA48856   1.585   8.886   9.595  0.3014 -0.0602 -0.2631
33388ION     NA48857  12.287  11.902   9.794 -0.2099 -0.1119 -0.2847
33389ION     NA48858  10.730   3.723   3.045 -0.2423 -0.2509 -0.0250
33390ION     NA48859   3.721  12.096   1.827 -0.1885 -0.1196 -0.1038
33391ION     NA48860  16.522   5.136   9.887 -0.1731 -0.2946  0.2205
33392ION     NA48861  15.543  18.848   5.627 -0.3698 -0.2842 -0.1357
33393ION     NA48862   4.465   9.767   0.149 -0.2276  0.3552  0.2784
33394ION     NA48863   2.895  13.590   0.368  0.1882  0.1052 -0.1319
33395ION     NA48864  11.011  10.446  13.415 -0.0715  0.0677  0.1063
33396ION     NA48865   7.467   4.098   5.038  0.2276  0.0768 -0.3118
33397ION     NA48866   2.586   1.551  10.423 -0.0174 -0.1700 -0.3448
33398ION     NA48867  13.680  15.363  14.816  0.0864  0.0694  0.2132
33399ION     NA48868  13.871  12.606   1.709  0.0712  0.0959  0.0275
33400ION     NA48869  16.290   2.824   9.914  0.3228  0.1823 -0.0233
33401ION     NA48870   0.627   1.813  10.165  0.1148  0.2156 -0.3051
33402ION     NA48871  17.643   5.021  10.060  0.0319 -0.2525 -0.1178
33403ION     NA48872  11.157   0.030   9.790  0.2569 -0.1090 -0.0228
33404ION     NA48873  14.716  10.334   9.690 -0.0763  0.0112 -0.2619
33405ION     NA48874   4.430   1.457   9.898  0.0672  0.1247 -0.1159
33406ION     NA48875  18.108  15.194  12.000  0.1531 -0.2684  0.0147
33407ION     NA48876  13.698  13.829   9.805  0.0952  0.2861  0.0483
33408ION     NA48877   2.390   8.961  11.566  0.0694  0.0291 -0.0891
33409ION     NA48878   1.450  17.563  10.003  0.0971  0.0914  0.3910
33410ION     NA48879  14.065  18.036  13.267  0.1118  0.1782 -0.2016
33411ION     NA48880   5.494  14.690   3.600  0.0203  0.0112  0.0289
33412ION     NA48881   8.478  17.900   5.641  0.2184 -0.0651 -0.0916
33413ION     NA48882  16.223  17.927   9.967  0.0993 -0.3229  0.1594
33414ION     NA48883   7.020  10.928   9.935 -0.1122 -0.1356  0.2908
33415ION     NA48884   2.030   7.279   4.078 -0.0331  0.2209  0.4442
33416ION     NA48885   8.789   8.698  11.249 -0.2198 -0.1726 -0.0944
33417ION     NA48886  11.719  15.331  10.835 -0.2604 -0.0109 -0.3608
33418ION     NA48887  12.386  11.428   5.944 -0.0965 -0.0036 -0.0282
33419ION     NA48888   0.294  16.054  12.041  0.1799  0.1649 -0.1023
33420ION     NA48889   2.430   2.715   5.037  0.1900 -0.1603 -0.3779
33421ION     NA48890  14.663  10.779  12.603  0.0535  0.1824 -0.0803
33422ION     NA48891  10.946  18.824   4.049  0.2113  0.3742  0.0624
33423ION     NA48892  14.980   6.367   5.466 -0.1893  0.3379 -0.1544
33424ION     NA48893   3.046  12.569  11.348  0.0036 -0.0911  0.0236
33425ION     NA48894   3.110  11.397   3.297  0.3509  0.0289 -0.2971
33426ION     NA48895   8.980   0.154  10.223  0.1051  0.0574 -0.1808
33427ION     NA48896  14.015   6.252   1.685 -0.0796 -0.1530  0.1572
33428ION     NA48897   6.265  15.541   9.772  0.0588 -0.2441 -0.0204
33429ION     NA48898  16.400   9.902  10.046 -0.0045  0.0903  0.1372
33430ION     NA48899   4.085   8.800   9.679  0.0561  0.1403  0.0004
33431ION     NA48900   6.315  16.244   5.498  0.0934 -0.1133 -0.0405
33432ION     NA48901   0.575  16.981   2.200  0.0320 -0.0352  0.0405
33433ION     NA48902   9.221   5.208   5.114  0.1203  0.0463 -0.0315
33434ION     NA48903   5.828  12.596  10.007  0.1470  0.2573 -0.0524
33435ION     NA48904   0.536   9.389  11.706 -0.0105  0.3436  0.1410
33436ION     NA48905   6.962  11.881   9.965 -0.3003  0.1752  0.4563
33437ION     NA48906  11.546   7.780  12.642 -0.0239  0.0185  0.3742
33438ION     NA48907   8.072  18.919  11.467 -0.0685  0.0837  0.0168
33439ION     NA48908   1.268   5.379  15.028  0.0206  0.0628 -0.2855
33440ION     NA48909  18.003  10.325   9.567 -0.0598 -0.2915  0.1157
33441ION     NA48910  14.570   4.502   9.698 -0.2674  0.2055 -0.1534
33442ION     NA48911  16.442  14.523  15.066 -0.1465 -0.0678  0.2704
33443ION     NA48912  13.320   9.668  11.360  0.0849 -0.2894  0.0997
33444ION     NA48913  10.363  12.499   2.447  0.2392 -0.1488 -0.1241
33445ION     NA48914   0.443   8.285   5.618  0.2375  0.1134  0.1055
33446ION     NA48915  12.300   7.409   2.631 -0.2133 -0.2722 -0.2702
33447ION     NA48916  16.891   9.975   4.780 -0.1557  0.0501  0.1005
33448ION     NA48917  16.539  14.057   9.951 -0.0668  0.1167 -0.2364
33449ION     NA48918   9.978  10.437   2.607  0.1578  0.0995  0.0232
33450ION     NA48919  16.364   6.674   3.246 -0.0117 -0.0031  0.0441
33451ION     NA48920  10.452  13.843  12.984 -0.0141  0.1395  0.1465
33452ION     NA48921   9.473  10.447  10.428  0.0008 -0.1030  0.1080
33453ION     NA48922  10.189   3.600   9.612 -0.0184 -0.0697 -0.2356
33454ION     NA48923   1.061   8.066   9.765 -0.3502 -0.0698 -0.0983
33455ION     NA48924  18.921   4.316   1.919  0.1202  0.2484  0.0645
33456ION     NA48925  16.557  15.303   5.596  0.0886  0.1576  0.0926
33457ION     NA48926   0.935  15.867   9.926  0.0628  0.1764 -0.0990
33458ION     NA48927  18.714  14.591   1.641  0.2494  0.0731 -0.0944
33459ION     NA48928  12.727  10.176   5.381 -0.2739  0.1573 -0.0714
33460ION     NA48929   4.008  17.998  10.012 -0.0187  0.0119 -0.1611
33461ION     NA48930   1.942  13.167   0.988 -0.2694 -0.1217  0.0533
33462ION     NA48931  18.924  11.304  10.304  0.3711 -0.0471  0.1502
33463ION     NA48932   9.285  11.702   3.324 -0.0231 -0.1305 -0.1739
33464ION     NA48933   0.126  14.996  10.628 -0.0314 -0.2528 -0.2102
33465ION     NA48934   8.097  10.100  14.117 -0.2467  0.2188  0.1293
33466ION     NA48935   9.658   5.602   9.577  0.2080 -0.0556 -0.0934
33467ION     NA48936  11.326   9.866  12.063 -0.0743 -0.1783 -0.4561
33468ION     NA48937  16.955  11.401   5.433 -0.3844 -0.3160 -0.0821
33469ION     NA48938   8.476   3.543   9.890  0.2361  0.2520 -0.2378
33470ION     NA48939  11.946  14.167  10.121 -0.1639 -0.2954 -0.1994
33471ION     NA48940   6.307   3.638   1.491 -0.2491 -0.2128  0.0966
33472ION     NA48941  10.591  18.522   9.972 -0.1079  0.0370 -0.0246
33473ION     NA48942   2.345   8.577  10.827  0.0733  0.1544 -0.0675
33474ION     NA48943   7.013   9.404  12.365 -0.0805 -0.4208 -0.2235
33475ION     NA48944   2.003   7.728   3.108 -0.1968  0.0709  0.0470
33476ION     NA48945  16.143  16.152  11.922  0.0064  0.0194  0.0921
33477ION     NA48946  17.503   0.442   1.562  0.0987 -0.3777  0.1731
33478ION     NA48947  17.842   5.978   9.903  0.0227  0.2853  0.1512
33479ION     NA48948   4.410   2.291   9.699  0.1815 -0.5841 -0.1492
33480ION     NA48949   9.806   7.164  11.926  0.1321  0.3753 -0.0345
33481ION     NA48950  14.583   0.236  14.145 -0.0176  0.0407 -0.1543
33482ION     NA48951   8.229   8.854   9.917  0.0745 -0.1791 -0.3190
33483ION     NA48952   7.306   5.355  12.680 -0.1628 -0.3407 -0.0359
33484ION     NA48953   4.300   9.666   9.634 -0.1058  0.2339 -0.0774
33485ION     NA48954   6.859   6.650   9.799 -0.1547  0.0502  0.1315
33486ION     NA48955  12.657  14.436   0.086  0.0722  0.1323  0.0971
33487ION     NA48956  14.679  14.253   9.882  0.0640 -0.3614 -0.0463
33488ION     NA48957   8.298   9.835   9.963 -0.0034  0.0411 -0.1863
33489ION     NA48958  14.881   9.038   5.519 -0.0078  0.1736  0.1657
33490ION     NA48959  10.086   5.236   9.143  0.2237  0.1713  0.4543
33491ION     NA48960  15.071   8.569   9.742  0.0287  0.1024  0.1784
33492ION     NA48961  15.486  18.714   9.992 -0.2816  0.2973 -0.2003
33493ION     NA48962  11.063  10.656  12.124  0.1083 -0.1142  0.0683
33494ION     NA48963   0.015  12.709   9.760  0.0856  0.3753  0.2702
33495ION     NA48964  12.673   7.076  10.255  0.2560  0.2925 -0.2377
33496ION     NA48965  18.884   4.529   9.820 -0.0936  0.0771  0.6228
33497ION     NA48966   5.611  14.909   4.779 -0.1035  0.1270 -0.1879
33498ION     NA48967  12.182   5.959   9.487  0.0662  0.1367  0.0261
33499ION     NA48968  13.479  12.777  10.269 -0.0948  0.0332  0.0596
33500ION     NA48969   8.015  11.968   9.961  0.2882 -0.0718 -0.1371
33501ION     NA48970   5.417  14.519   5.121  0.0013 -0.1334  0.2435
33502ION     NA48971   2.494   1.327  14.257  0.0996  0.0040 -0.1765
33503ION     NA48972   4.537  14.858   9.895 -0.0267  0.1559  0.1544
33504ION     NA48973   1.657  16.042   9.798 -0.3111 -0.3235  0.2671
33505ION     NA48974   1.735   9.373  14.791 -0.0627 -0.1767 -0.1986
33506ION     NA48975   7.008  17.485  10.380 -0.4110 -0.1759  0.1860
33507ION     NA48976  18.730  16.464  10.052 -0.0392  0.0711 -0.4991
33508ION     NA48977   3.795   2.574   0.181  0.3372 -0.0949  0.1967
33509ION     NA48978  18.792   8.730  11.649  0.1070 -0.2657  0.2032
33510ION     NA48979   4.068  17.189  10.268  0.4215 -0.1900 -0.2365
33511ION     NA48980  11.786   0.842   2.306  0.1506  0.0141  0.1652
33512ION     NA48981  16.959  12.254   0.682 -0.0390  0.3660 -0.3491
33513ION     NA48982  11.626   0.166  14.975  0.2921  0.0198  0.2804
33514ION     NA48983  16.370  17.041  10.056  0.0497  0.1675  0.0927
33515ION     NA48984  13.509   0.374   3.370 -0.0956 -0.1771 -0.1984
33516ION     NA48985   3.532  18.705   3.360 -0.2794 -0.0203 -0.0131
33517ION     NA48986  17.116  14.715  10.138  0.0592  0.2761  0.0874
33518ION     NA48987  13.962   9.858   1.701 -0.0269  0.0957  0.2259
33519ION     NA48988   2.716   4.305   1.614 -0.0256  0.3969 -0.1886
33520ION     NA48989  18.099  17.994  14.686 -0.0583 -0.0409  0.1993
33521ION     NA48990   0.209  17.163  14.980  0.3336  0.2197 -0.1634
33522ION     NA48991  18.233   1.681   9.969  0.0881 -0.3790  0.0444
33523ION     NA48992   1.731  17.252   0.635  0.2021  0.0470  0.3541
33524ION     NA48993  16.795  17.984   6.068  0.1456 -0.0920  0.1205
33525ION     NA48994  11.043  15.253   3.742  0.0343  0.1053  0.3412
33526ION     NA48995   3.142  13.859   3.775  0.0566 -0.3527 -0.0982
33527ION     NA48996   4.895  17.164   5.143  0.0822 -0.1875 -0.0747
33528ION     NA48997  10.069  14.229  10.068 -0.1734 -0.2968 -0.0136
33529ION     NA48998   7.699   1.004   9.816  0.4039 -0.0988 -0.5023
33530ION     NA48999   6.215   1.766   9.821  0.0093  0.0920  0.0230
33531ION     NA49000   4.760   6.720   9.409  0.1385 -0.3041 -0.0917
33532ION     NA49001   1.196   9.747   5.309  0.0244 -0.0490 -0.1445
33533ION     NA49002  15.206   5.586   9.620  0.1362  0.2168 -0.0710
33534ION     NA49003  15.333   8.991   0.355  0.4587 -0.2704  0.0778
33535ION     NA49004   7.269  13.565   9.666 -0.2961  0.0059 -0.1569
33536ION     NA49005   7.013  14.810   0.562 -0.0054 -0.0222 -0.0022
33537ION     NA49006  13.142   1.853  15.228  0.5161  0.1953 -0.0057
33538ION     NA49007   4.990   3.076   0.102 -0.2407  0.1488 -0.1292
33539ION     NA49008  10.527  13.848   2.565 -0.1174  0.2312 -0.2119
33540ION     NA49009  14.488   0.831   9.896 -0.5892 -0.3407  0.0154
33541ION     NA49010  12.489  16.334   9.857  0.0601 -0.3358  0.3474
33542ION     NA49011  16.488   1.896   9.736  0.0770 -0.0592 -0.0237
33543ION     NA49012   4.214  13.885   5.392  0.0466 -0.0556  0.1133
33544ION     NA49013   5.908   5.376   0.935 -0.0640 -0.2093 -0.2388
33545ION     NA49014   9.558   7.143   9.527  0.2070  0.0108  0.0100
33546ION     NA49015   1.260  17.298   5.867 -0.0322 -0.0603  0.0209
33547ION     NA49016  17.262   7.657   9.682 -0.0542 -0.0806 -0.1460
33548ION     NA49017  13.340   3.424   9.602  0.1459 -0.1320  0.0097
33549ION     NA49018  12.505  18.941  12.998  0.0255 -0.4501 -0.1884
33550ION     NA49019  16.979   0.394   9.682  0.0548  0.0696 -0.0540
33551ION     NA49020   9.365  13.185   6.043 -0.0056  0.4353  0.1341
33552ION     NA49021   9.095  14.215  10.116 -0.1797  0.0322 -0.1157
33553ION     NA49022   5.619   1.354  14.571 -0.2261 -0.1040 -0.1900
33554ION     NA49023   6.333  13.856   5.647 -0.3065 -0.2703 -0.4529
33555ION     NA49024   5.679   4.153   5.626  0.1522 -0.4580 -0.0108
33556ION     NA49025  18.087  15.932   5.535 -0.0294 -0.0468  0.1955
33557ION     NA49026   3.459  15.230   0.595 -0.1920  0.0340 -0.3650
33558ION     NA49027   8.369  15.690  10.371 -0.0297  0.0995  0.0932
33559ION     NA49028  15.192   6.162   2.605  0.2020 -0.0180  0.1187
33560ION     NA49029   5.535  16.184   9.641  0.0052 -0.1033 -0.2525
33561ION     NA49030  11.725  16.874   9.733  0.0293  0.1373  0.0826
33562ION     NA49031   9.322   1.934  13.450 -0.0245  0.2149  0.0217
33563ION     NA49032   2.657   3.409  11.606 -0.2964  0.2642  0.0951
33564ION     NA49033  11.268  18.455   2.226 -0.0947  0.1538 -0.0527
33565ION     NA49034  10.966  11.972  10.060  0.2668 -0.2311  0.0284
33566ION     NA49035   5.541   0.102  13.509  0.1397  0.1958  0.2759
33567ION     NA49036  14.971   0.069   9.927  0.0248  0.2314  0.4080
33568ION     NA49037   9.726  10.996   5.315  0.2422 -0.0285 -0.1234
33569ION     NA49038   6.688  16.055   4.571 -0.0433 -0.0839  0.2951
33570ION     NA49039  10.888   0.886   9.712  0.1013 -0.0907  0.1543
33571ION     NA49040   9.909   5.463  13.712  0.1563 -0.0061  0.0462
33572ION     NA49041  14.991   8.099   9.872 -0.3588  0.0392  0.2463
33573ION     NA49042  13.771  12.510   6.247  0.2591 -0.1233  0.2988
33574ION     NA49043  11.873   8.153  13.552  0.0635 -0.2185 -0.2160
33575ION     NA49044   1.164  10.687   4.902  0.1242  0.2188  0.0780
33576ION     NA49045  16.688   3.764   9.774 -0.3600 -0.0297  0.3550
33577ION     NA49046   0.468  16.713   5.730  0.1139  0.0808 -0.0928
33578ION     NA49047  15.969  13.531   5.633  0.2561  0.2401  0.4327
33579ION     NA49048  10.345  18.822  14.117 -0.0536  0.2396  0.1064
33580ION     NA49049   2.119  11.232   9.647 -0.0513  0.0785 -0.1560
33581ION     NA49050   7.249  17.013   5.485 -0.0608 -0.1214 -0.0710
33582ION     NA49051   1.740  13.417   9.653 -0.0582  0.1187  0.2009
33583ION     NA49052   6.801  14.177  10.155 -0.0534 -0.0540 -0.1874
33584ION     NA49053   5.442   8.757  15.168  0.0687 -0.1514 -0.0952
33585ION     NA49054  10.425  10.901   0.671 -0.0271  0.1178  0.1353
33586ION     NA49055  15.821   4.259   9.811  0.0303 -0.3241 -0.3366
33587ION     NA49056   5.549   5.787   2.294 -0.3615 -0.4268  0.0993
33588ION     NA49057   8.892  16.193   6.393  0.0533  0.0196 -0.3707
33589ION     NA49058  15.097  11.105   4.263 -0.0348  0.0103  0.0062
33590ION     NA49059  16.299  18.075   2.691  0.2205 -0.0375 -0.2115
33591ION     NA49060   0.434   1.535   2.426 -0.0745  0.0075  0.3900
33592ION     NA49061   4.739  14.878  14.546 -0.1366  0.1340 -0.3381
33593ION     NA49062  14.830   7.895   5.713  0.1642 -0.2168  0.0377
33594ION     NA49063   0.452  18.048  10.127 -0.1082 -0.2611 -0.3554
33595ION     NA49064   2.610   8.791   0.234  0.1669 -0.1588 -0.2319
33596ION     NA49065   0.885   9.806   9.766 -0.0051  0.0878 -0.1996
33597ION     NA49066   3.602   0.222  13.577  0.3931  0.1305 -0.3705
33598ION     NA49067  16.347   6.004   1.060  0.0699  0.0942  0.1238
33599ION     NA49068  17.972   2.284   9.852 -0.0133 -0.0285  0.1595
33600ION     NA49069   8.555   1.248   9.927 -0.1051  0.0443  0.1544
33601ION     NA49070  17.236  14.390  13.068 -0.1029  0.0822 -0.0077
33602ION     NA49071  11.855   4.940   0.037  0.0207 -0.0897  0.0777
33603ION     NA49072  17.095  18.333  11.395  0.1210 -0.0151 -0.0805
33604ION     NA49073   6.618  18.755   5.479 -0.1370 -0.2765  0.0854
33605ION     NA49074  10.009  17.774  10.325 -0.1100 -0.4465 -0.1677
  18.94275  18.94275  15.50815
