INSANE! Membrane UpperLeaflet>loPI:POPI:DPPI:PYPI:ERGO=30.0:5.0:3.0:2.0:10.0 LowerLeaflet>PSPI:POPI:POPS:YOPS:POPE:YOPE:POPC:YOPC:ERGO=6.0:14.0:21.0:9.0:9.0:21.0:12.0:48.0:60.0
49074
    1loPI    C1    1  13.651   3.878  10.330 -0.1466 -0.0256 -0.1689
    1loPI    C2    2  13.572   4.267  10.279 -0.0679  0.0131 -0.0012
    1loPI    C3    3  13.951   4.140  10.293 -0.0939 -0.0815 -0.1368
    1loPI   PO4    4  13.508   3.773  10.077  0.1691 -0.0719 -0.0580
    1loPI   GL1    5  13.617   3.601   9.740  0.3927 -0.0717 -0.0014
    1loPI   GL2    6  13.453   3.469   9.610  0.3500 -0.2003 -0.0178
    1loPI   C1A    7  13.776   3.683   9.331  0.0742 -0.2366  0.1028
    1loPI   C2A    8  13.722   3.562   8.843  0.0956  0.2371  0.0387
    1loPI   C3A    9  13.526   3.550   8.466  0.0050 -0.0084 -0.3170
    1loPI   C4A   10  13.474   3.252   8.104 -0.1027 -0.1551 -0.1623
    1loPI   C5A   11  13.361   3.026   7.845  0.0370 -0.2041  0.1593
    1loPI   C6A   12  12.953   3.162   7.591 -0.3188 -0.4360  0.1635
    1loPI   C1B   13  13.368   3.358   9.170  0.0253 -0.2327  0.0420
    1loPI   C2B   14  13.298   3.293   8.850  0.1091  0.0548  0.0246
    1loPI   C3B   15  13.070   3.351   8.453  0.0710  0.0858 -0.3467
    1loPI   C4B   16  12.841   3.240   8.079  0.2164  0.2528 -0.3703
    2loPI    C1   17   1.511   1.281  10.440 -0.0825  0.2013 -0.1558
    2loPI    C2   18   1.657   1.613  10.608  0.0608  0.0403  0.0431
    2loPI    C3   19   1.801   1.255  10.714 -0.0973 -0.0870 -0.1639
    2loPI   PO4   20   1.459   1.304  10.240  0.1022 -0.1262 -0.0212
    2loPI   GL1   21   1.627   1.348   9.760  0.0863  0.2350  0.1789
    2loPI   GL2   22   1.691   1.023   9.714  0.0325 -0.2396  0.0376
    2loPI   C1A   23   1.377   1.307   9.428 -0.3554 -0.1732 -0.2755
    2loPI   C2A   24   1.311   1.369   9.051 -0.0125  0.1516  0.0020
    2loPI   C3A   25   1.326   1.306   8.649 -0.2442  0.1539 -0.0892
    2loPI   C4A   26   1.493   1.134   8.340  0.1669 -0.1546 -0.0887
    2loPI   C5A   27   1.697   0.980   8.022  0.1025 -0.1513  0.0617
    2loPI   C6A   28   1.727   0.772   7.670  0.0141 -0.0499  0.0369
    2loPI   C1B   29   1.674   0.941   9.250  0.1847  0.0104 -0.0308
    2loPI   C2B   30   1.592   0.883   8.780  0.0392  0.0905  0.0721
    2loPI   C3B   31   1.481   0.609   8.453 -0.0836  0.0752 -0.2010
    2loPI   C4B   32   1.448   0.522   8.108  0.0960  0.1478  0.2644
    3loPI    C1   33  15.467  10.209  10.253  0.2659  0.1772 -0.0286
    3loPI    C2   34  15.403  10.409  10.594 -0.2296  0.0012 -0.0110
    3loPI    C3   35  15.436  10.010  10.599 -0.0632  0.0122 -0.1490
    3loPI   PO4   36  15.396  10.274  10.026  0.2857  0.0356  0.1596
    3loPI   GL1   37  15.274  10.296   9.671  0.0171  0.2349  0.0640
    3loPI   GL2   38  15.079  10.018   9.671 -0.1251 -0.0997 -0.3537
    3loPI   C1A   39  15.297  10.084   9.226 -0.0482 -0.1613  0.0977
    3loPI   C2A   40  15.423  10.151   8.841  0.2182  0.2571  0.1400
    3loPI   C3A   41  15.464  10.163   8.299  0.3196 -0.0091  0.2653
    3loPI   C4A   42  15.390  10.203   7.864 -0.1040  0.0121 -0.1590
    3loPI   C5A   43  15.326  10.194   7.448  0.1371 -0.3464 -0.2389
    3loPI   C6A   44  15.214   9.968   7.108  0.0323 -0.1886  0.3644
    3loPI   C1B   45  14.916  10.426   9.322  0.0697 -0.0383  0.1870
    3loPI   C2B   46  15.004  10.520   8.986 -0.0901  0.0501 -0.0459
    3loPI   C3B   47  15.200  10.603   8.581  0.2143  0.1436 -0.3732
    3loPI   C4B   48  15.182  10.658   8.174  0.1921 -0.0031 -0.1185
    4loPI    C1   49   5.387  15.156  10.238  0.1885 -0.1656  0.2011
    4loPI    C2   50   5.616  15.453  10.375  0.1203  0.0480 -0.1367
    4loPI    C3   51   5.247  15.402  10.521  0.1549  0.0898 -0.0333
    4loPI   PO4   52   5.609  15.004  10.092  0.3092 -0.2177  0.1508
    4loPI   GL1   53   5.667  14.861   9.712  0.1271 -0.3061  0.3620
    4loPI   GL2   54   5.521  14.641   9.625 -0.0738  0.2227 -0.0177
    4loPI   C1A   55   5.625  15.113   9.379  0.0840  0.2718 -0.1276
    4loPI   C2A   56   5.628  14.969   8.933  0.0871 -0.1065 -0.1226
    4loPI   C3A   57   5.690  15.105   8.510  0.3323 -0.0564  0.2273
    4loPI   C4A   58   5.719  15.159   8.099 -0.1493  0.1407 -0.1463
    4loPI   C5A   59   6.036  15.142   7.749 -0.1045 -0.4607  0.0385
    4loPI   C6A   60   6.347  14.948   7.560  0.2895 -0.1673 -0.1593
    4loPI   C1B   61   5.377  14.609   9.225  0.1657  0.4783  0.2433
    4loPI   C2B   62   5.397  14.571   8.774 -0.1219 -0.1021 -0.2551
    4loPI   C3B   63   5.285  14.703   8.421 -0.2365 -0.7269  0.2593
    4loPI   C4B   64   5.429  14.802   7.962 -0.0589  0.0498 -0.2468
    5loPI    C1   65   6.819  11.344  10.157  0.2437  0.2428 -0.0696
    5loPI    C2   66   7.004  11.005  10.264  0.1165  0.1427 -0.1638
    5loPI    C3   67   6.777  11.202  10.529 -0.1871 -0.0972 -0.2401
    5loPI   PO4   68   7.117  11.460   9.936 -0.1382 -0.1625 -0.3032
    5loPI   GL1   69   7.357  11.295   9.601  0.0552  0.2310 -0.2581
    5loPI   GL2   70   7.392  11.540   9.347  0.0251  0.1750  0.0355
    5loPI   C1A   71   7.077  11.049   9.297 -0.0055  0.0043  0.0869
    5loPI   C2A   72   6.870  10.915   8.929 -0.1700  0.0223  0.0004
    5loPI   C3A   73   6.844  10.902   8.526 -0.2049 -0.0980  0.0806
    5loPI   C4A   74   6.934  10.951   8.033 -0.0280 -0.2074 -0.0786
    5loPI   C5A   75   6.724  10.825   7.749 -0.0086 -0.3025  0.1604
    5loPI   C6A   76   6.783  10.762   7.208  0.0758 -0.0508 -0.0975
    5loPI   C1B   77   7.313  11.358   8.967  0.0938  0.3645 -0.0091
    5loPI   C2B   78   7.283  11.242   8.549  0.0840 -0.2144  0.1953
    5loPI   C3B   79   7.365  11.110   8.110 -0.0713  0.2997 -0.0557
    5loPI   C4B   80   7.527  11.009   7.812  0.3783  0.0291  0.0397
    6loPI    C1   81   5.704   8.506  10.508 -0.1964 -0.0224 -0.0448
    6loPI    C2   82   5.963   8.536  10.811  0.0781  0.0109 -0.2780
    6loPI    C3   83   5.570   8.557  10.881  0.1398  0.0831  0.0654
    6loPI   PO4   84   5.844   8.617  10.305  0.0474  0.2905 -0.1880
    6loPI   GL1   85   5.906   8.884   9.927 -0.4034  0.0416 -0.0346
    6loPI   GL2   86   5.752   9.010   9.738 -0.3087  0.1901  0.3417
    6loPI   C1A   87   6.194   8.789   9.567 -0.3292 -0.0016 -0.2632
    6loPI   C2A   88   6.154   8.797   9.155 -0.1742 -0.2604  0.2053
    6loPI   C3A   89   6.125   8.772   8.789  0.0420  0.2883  0.0420
    6loPI   C4A   90   6.032   8.961   8.339 -0.1121  0.1749 -0.1440
    6loPI   C5A   91   6.176   8.960   8.004  0.1003  0.2907  0.0218
    6loPI   C6A   92   6.373   8.670   7.785 -0.0695 -0.5600  0.2227
    6loPI   C1B   93   5.485   9.127   9.335  0.0113  0.0083 -0.0406
    6loPI   C2B   94   5.397   9.102   8.890  0.0439 -0.0165 -0.0868
    6loPI   C3B   95   5.211   9.223   8.487 -0.1780  0.1327 -0.1715
    6loPI   C4B   96   5.391   9.470   8.166  0.3501  0.3165  0.0038
    7loPI    C1   97  16.825   6.282  10.423 -0.0297 -0.0579  0.1699
    7loPI    C2   98  17.187   6.228  10.585  0.0459  0.0431  0.0361
    7loPI    C3   99  16.883   5.992  10.693  0.1147  0.0560  0.2629
    7loPI   PO4  100  16.808   6.269  10.095  0.1313 -0.3162 -0.2685
    7loPI   GL1  101  16.987   6.615   9.781 -0.0793 -0.1325  0.2072
    7loPI   GL2  102  16.964   6.927   9.782  0.0231 -0.1078 -0.0454
    7loPI   C1A  103  16.759   6.527   9.359 -0.0719  0.1229  0.1048
    7loPI   C2A  104  16.707   6.388   9.070 -0.1229  0.0942 -0.2200
    7loPI   C3A  105  16.739   6.344   8.644  0.3643 -0.3008 -0.1902
    7loPI   C4A  106  16.695   6.187   8.248 -0.3185  0.1111  0.5359
    7loPI   C5A  107  16.783   6.050   7.887 -0.3255  0.2196 -0.0773
    7loPI   C6A  108  16.815   5.554   7.806 -0.0711 -0.1627 -0.1291
    7loPI   C1B  109  17.086   6.916   9.379 -0.0095  0.3473 -0.1439
    7loPI   C2B  110  17.090   6.706   8.946 -0.3699 -0.3506 -0.1575
    7loPI   C3B  111  17.006   6.756   8.470  0.5184 -0.0141  0.1175
    7loPI   C4B  112  16.780   6.652   8.056 -0.1344 -0.0835 -0.0452
    8loPI    C1  113  17.721   9.422  10.557  0.0540 -0.1757 -0.0481
    8loPI    C2  114  17.622   9.619  10.890 -0.1965 -0.0558 -0.1906
    8loPI    C3  115  17.806   9.264  10.914 -0.0335  0.0438  0.0709
    8loPI   PO4  116  17.507   9.389  10.419 -0.1032  0.0838  0.0197
    8loPI   GL1  117  17.375   9.362   9.938  0.0527  0.0517  0.2905
    8loPI   GL2  118  17.734   9.493   9.940  0.1237 -0.0025 -0.1617
    8loPI   C1A  119  17.239   9.441   9.559  0.0666 -0.5925 -0.0316
    8loPI   C2A  120  17.192   9.460   9.198 -0.5140 -0.2521 -0.1730
    8loPI   C3A  121  17.140   9.548   8.763 -0.1391  0.0795  0.3075
    8loPI   C4A  122  17.141   9.614   8.360  0.0429  0.0029  0.0541
    8loPI   C5A  123  17.029   9.320   8.076  0.0903 -0.4356  0.2017
    8loPI   C6A  124  17.094   9.068   7.748  0.2031  0.2014  0.0052
    8loPI   C1B  125  18.105   9.432   9.815 -0.4408 -0.1907  0.0661
    8loPI   C2B  126  18.257   9.308   9.387 -0.2912  0.0449  0.2418
    8loPI   C3B  127  18.110   9.465   9.037  0.0179 -0.0521  0.3141
    8loPI   C4B  128  18.008   9.622   8.621  0.1086  0.2172  0.0484
    9loPI    C1  129   2.413  11.279  10.360 -0.1187 -0.0613  0.0361
    9loPI    C2  130   2.016  11.236  10.391 -0.1066 -0.1494  0.0711
    9loPI    C3  131   2.239  10.936  10.250 -0.0802 -0.0105 -0.1891
    9loPI   PO4  132   2.441  11.497  10.212  0.0323 -0.3187  0.1465
    9loPI   GL1  133   2.406  11.504   9.810 -0.0675 -0.1568  0.2838
    9loPI   GL2  134   2.340  11.812   9.728 -0.0130 -0.1913 -0.0297
    9loPI   C1A  135   2.387  11.448   9.417  0.4359  0.0853 -0.0028
    9loPI   C2A  136   2.511  11.557   9.007  0.2388  0.1797  0.1466
    9loPI   C3A  137   2.532  11.476   8.601 -0.0639 -0.1465  0.0124
    9loPI   C4A  138   2.514  11.411   8.133  0.0873  0.0919  0.0910
    9loPI   C5A  139   2.824  11.317   7.849 -0.1670  0.3254  0.0347
    9loPI   C6A  140   3.237  11.466   7.588  0.0661  0.1587 -0.1014
    9loPI   C1B  141   2.058  11.872   9.425  0.0270 -0.2736 -0.3589
    9loPI   C2B  142   1.953  11.967   8.975 -0.0045  0.3123  0.1035
    9loPI   C3B  143   1.907  12.113   8.637  0.0210  0.0870 -0.0073
    9loPI   C4B  144   1.861  12.103   8.205 -0.1690 -0.0565  0.0709
   10loPI    C1  145   8.832  11.242  10.459  0.0416  0.1077 -0.0542
   10loPI    C2  146   8.787  11.184  10.852 -0.1189  0.1824 -0.0608
   10loPI    C3  147   9.143  11.124  10.681 -0.0815  0.0168  0.0719
   10loPI   PO4  148   8.649  11.044  10.335  0.0681 -0.0940  0.0697
   10loPI   GL1  149   8.735  10.833  10.038 -0.2100  0.1285  0.0975
   10loPI   GL2  150   8.581  10.950   9.829 -0.1402 -0.1097 -0.1009
   10loPI   C1A  151   8.900  10.580   9.722 -0.2298  0.0396 -0.2443
   10loPI   C2A  152   8.883  10.385   9.384 -0.0020 -0.0315  0.1419
   10loPI   C3A  153   8.901  10.242   9.003 -0.0067 -0.2650 -0.1656
   10loPI   C4A  154   8.593  10.190   8.671 -0.0461  0.3234 -0.0725
   10loPI   C5A  155   8.579  10.068   8.245 -0.1031 -0.1785  0.2985
   10loPI   C6A  156   8.448  10.095   7.797 -0.3273  0.0325  0.0169
   10loPI   C1B  157   8.658  10.835   9.384 -0.1821  0.0152 -0.0634
   10loPI   C2B  158   8.661  10.873   8.892  0.3004 -0.0148 -0.0604
   10loPI   C3B  159   8.655  10.711   8.459  0.4361 -0.0413 -0.0946
   10loPI   C4B  160   8.697  10.566   8.019 -0.1476 -0.7003  0.0897
   11loPI    C1  161   0.581  17.246  10.389  0.2374 -0.0148  0.1416
   11loPI    C2  162   0.555  17.086  10.755  0.0096 -0.2073  0.0438
   11loPI    C3  163   0.616  17.479  10.713 -0.3853 -0.1141  0.2925
   11loPI   PO4  164   0.787  17.122  10.213 -0.2268  0.1340 -0.1114
   11loPI   GL1  165   0.685  16.938   9.857  0.0555 -0.1044  0.5266
   11loPI   GL2  166   0.951  16.977   9.736  0.2933 -0.0987  0.1285
   11loPI   C1A  167   0.507  16.927   9.522 -0.0082  0.2510 -0.2821
   11loPI   C2A  168   0.570  16.953   9.156  0.0926 -0.1125 -0.1659
   11loPI   C3A  169   0.533  16.883   8.755 -0.1946 -0.0797  0.3702
   11loPI   C4A  170   0.406  16.987   8.397 -0.3243 -0.1178 -0.1572
   11loPI   C5A  171   0.410  16.941   8.008  0.2338  0.2810  0.0423
   11loPI   C6A  172   0.652  16.777   7.615  0.0122  0.4107 -0.0574
   11loPI   C1B  173   0.942  17.230   9.322 -0.2053 -0.2729 -0.3723
   11loPI   C2B  174   0.942  17.197   8.813 -0.0561 -0.1517  0.1261
   11loPI   C3B  175   0.827  17.310   8.456  0.0058 -0.1215  0.1970
   11loPI   C4B  176   0.940  17.163   8.113  0.2127 -0.0546 -0.5542
   12loPI    C1  177   2.716  14.795  10.260 -0.1417 -0.1272 -0.1348
   12loPI    C2  178   2.698  14.395  10.256 -0.4642 -0.1157 -0.0660
   12loPI    C3  179   2.446  14.605  10.485 -0.1015  0.1201  0.1271
   12loPI   PO4  180   2.851  14.780   9.965  0.3008 -0.3993  0.1018
   12loPI   GL1  181   2.902  14.818   9.619  0.1701 -0.0341  0.0945
   12loPI   GL2  182   2.532  14.859   9.507  0.1726  0.1062 -0.2175
   12loPI   C1A  183   3.102  14.852   9.147 -0.0035  0.0369  0.1085
   12loPI   C2A  184   3.099  15.034   8.678 -0.0008 -0.1578 -0.1541
   12loPI   C3A  185   2.937  15.032   8.195 -0.4531  0.0878 -0.2122
   12loPI   C4A  186   2.535  15.246   7.929  0.1476  0.0303 -0.0855
   12loPI   C5A  187   2.130  15.435   7.804  0.2124  0.0283  0.0368
   12loPI   C6A  188   1.769  15.248   7.474  0.1227 -0.0419 -0.1515
   12loPI   C1B  189   2.609  14.905   9.064 -0.0481 -0.1012  0.2409
   12loPI   C2B  190   2.615  14.915   8.640  0.4107 -0.0700 -0.0839
   12loPI   C3B  191   2.494  14.799   8.246  0.1122 -0.5876  0.0762
   12loPI   C4B  192   2.450  14.773   7.766 -0.2614 -0.2299  0.4260
   13loPI    C1  193   8.072  16.027  10.105 -0.0057 -0.1011  0.0590
   13loPI    C2  194   7.908  16.375   9.997  0.1329 -0.0507  0.0090
   13loPI    C3  195   8.003  16.309  10.380  0.1489 -0.0156  0.0111
   13loPI   PO4  196   8.138  15.908   9.856 -0.1749 -0.1866  0.1935
   13loPI   GL1  197   8.167  15.838   9.562  0.0243  0.1676  0.1200
   13loPI   GL2  198   7.962  15.588   9.485 -0.3375  0.0383 -0.0923
   13loPI   C1A  199   8.251  16.059   9.217  0.1325  0.3157 -0.0718
   13loPI   C2A  200   8.108  16.021   8.807  0.1121 -0.0082  0.1104
   13loPI   C3A  201   8.173  16.111   8.469  0.2817 -0.0801  0.0369
   13loPI   C4A  202   8.172  16.304   8.011 -0.4174 -0.1704  0.3866
   13loPI   C5A  203   8.043  16.405   7.588  0.1329 -0.0683 -0.1785
   13loPI   C6A  204   8.128  16.310   7.187  0.1310  0.1040 -0.1775
   13loPI   C1B  205   7.998  15.629   9.051  0.0292 -0.1858  0.1562
   13loPI   C2B  206   8.098  15.614   8.563 -0.0427  0.0055  0.0234
   13loPI   C3B  207   8.116  15.690   8.133 -0.1734  0.1614 -0.0163
   13loPI   C4B  208   7.954  15.915   7.794  0.3003 -0.0157  0.2707
   14loPI    C1  209  15.666   3.015  10.669 -0.0716 -0.0478  0.0620
   14loPI    C2  210  15.487   2.659  10.699  0.2146 -0.1813  0.2310
   14loPI    C3  211  15.343   2.972  10.901 -0.1469 -0.1526 -0.0610
   14loPI   PO4  212  15.725   2.960  10.283  0.1436  0.0097 -0.1238
   14loPI   GL1  213  15.918   2.676   9.957 -0.0369  0.3202  0.0377
   14loPI   GL2  214  15.878   2.301   9.940  0.2560  0.0687 -0.2390
   14loPI   C1A  215  15.723   2.653   9.624 -0.0978  0.0795  0.0609
   14loPI   C2A  216  15.495   2.378   9.460 -0.1456 -0.2777 -0.3999
   14loPI   C3A  217  15.395   2.360   9.060  0.1434  0.0097  0.2075
   14loPI   C4A  218  15.448   2.257   8.770 -0.1002 -0.0613 -0.3196
   14loPI   C5A  219  15.503   2.189   8.300  0.0106 -0.1488 -0.3411
   14loPI   C6A  220  15.734   1.959   7.979 -0.0335  0.0596  0.0587
   14loPI   C1B  221  15.888   2.136   9.521  0.1588  0.4171 -0.0622
   14loPI   C2B  222  15.857   2.093   9.106 -0.0004 -0.1283  0.2656
   14loPI   C3B  223  15.918   2.081   8.714 -0.2327  0.3154  0.2356
   14loPI   C4B  224  15.830   1.777   8.417  0.4369 -0.0089 -0.1414
   15loPI    C1  225   3.537   6.390  10.514  0.0889 -0.0777  0.1424
   15loPI    C2  226   3.320   6.588  10.785  0.0050 -0.0489  0.0552
   15loPI    C3  227   3.294   6.190  10.762 -0.0376 -0.0457  0.0458
   15loPI   PO4  228   3.552   6.490  10.397  0.0799  0.0997 -0.0603
   15loPI   GL1  229   3.515   6.442   9.997 -0.0970  0.1968 -0.2832
   15loPI   GL2  230   3.395   6.682   9.840 -0.1944 -0.3556 -0.5083
   15loPI   C1A  231   3.728   6.281   9.568 -0.2001  0.0842 -0.0439
   15loPI   C2A  232   4.102   6.230   9.207  0.2720 -0.2367 -0.1234
   15loPI   C3A  233   4.444   6.218   8.861 -0.3302  0.2373 -0.2082
   15loPI   C4A  234   4.604   6.319   8.432  0.1009  0.0761 -0.1495
   15loPI   C5A  235   4.749   6.159   8.087 -0.0380 -0.1234  0.2145
   15loPI   C6A  236   4.897   6.210   7.670  0.0073 -0.0860 -0.0435
   15loPI   C1B  237   3.511   6.686   9.415 -0.3769 -0.1444 -0.1962
   15loPI   C2B  238   3.656   6.492   9.068 -0.1581 -0.1067  0.0193
   15loPI   C3B  239   3.708   6.413   8.623  0.2832  0.2989  0.3159
   15loPI   C4B  240   3.772   6.403   8.192  0.2118  0.0863  0.0202
   16loPI    C1  241   8.572  16.372  10.246 -0.3750 -0.0013 -0.2801
   16loPI    C2  242   8.428  16.069  10.464 -0.0474  0.0792  0.0600
   16loPI    C3  243   8.485  16.427  10.633  0.1974  0.1479 -0.1621
   16loPI   PO4  244   8.434  16.409  10.051  0.1904 -0.0492  0.2792
   16loPI   GL1  245   8.239  16.442   9.577 -0.2358 -0.0938  0.1313
   16loPI   GL2  246   8.568  16.246   9.570 -0.1421  0.1055  0.0236
   16loPI   C1A  247   8.033  16.594   9.127 -0.2603  0.1562  0.0068
   16loPI   C2A  248   8.065  16.584   8.765  0.0216 -0.0065  0.0289
   16loPI   C3A  249   8.008  16.648   8.337  0.1340  0.0915  0.1528
   16loPI   C4A  250   7.712  16.782   8.104  0.3716  0.0231 -0.1761
   16loPI   C5A  251   7.596  16.627   7.653  0.0830  0.0528  0.0663
   16loPI   C6A  252   7.539  16.268   7.417 -0.2093 -0.2013  0.0199
   16loPI   C1B  253   8.568  16.396   9.134  0.0018 -0.2057  0.1917
   16loPI   C2B  254   8.592  16.248   8.807 -0.3589 -0.0930 -0.0685
   16loPI   C3B  255   8.523  16.455   8.427 -0.1601 -0.0889 -0.1580
   16loPI   C4B  256   8.705  16.462   8.036  0.2139 -0.0020 -0.0413
   17loPI    C1  257   1.102   5.476  10.444  0.1230  0.0052  0.0720
   17loPI    C2  258   0.913   5.125  10.427 -0.0461  0.0997 -0.0279
   17loPI    C3  259   1.188   5.190  10.710 -0.1107 -0.0645  0.0749
   17loPI   PO4  260   1.193   5.473  10.161  0.1386 -0.1986  0.1920
   17loPI   GL1  261   1.018   5.611   9.733 -0.2876  0.1608  0.1910
   17loPI   GL2  262   1.322   5.608   9.529 -0.1882 -0.1969 -0.0019
   17loPI   C1A  263   0.793   5.625   9.283  0.2486 -0.3597  0.0773
   17loPI   C2A  264   0.782   5.626   8.875  0.2129 -0.0067 -0.3398
   17loPI   C3A  265   0.888   5.514   8.446 -0.0913 -0.0647  0.0042
   17loPI   C4A  266   0.911   5.827   8.123 -0.1256 -0.0016 -0.1163
   17loPI   C5A  267   0.772   6.282   8.116  0.0759  0.0800  0.0289
   17loPI   C6A  268   0.835   6.653   7.894  0.3723  0.0659 -0.2350
   17loPI   C1B  269   1.346   5.640   9.063  0.2118  0.0375  0.0969
   17loPI   C2B  270   1.319   5.336   8.808 -0.1364  0.1747  0.2294
   17loPI   C3B  271   1.242   5.134   8.375  0.2470  0.1745 -0.1738
   17loPI   C4B  272   1.049   5.017   7.981 -0.0875  0.1555  0.0132
   18loPI    C1  273   7.307  13.090   9.870 -0.2095 -0.0401 -0.2561
   18loPI    C2  274   7.557  12.862  10.083 -0.0539 -0.0403 -0.4370
   18loPI    C3  275   7.553  13.258  10.137 -0.3061 -0.0799 -0.1411
   18loPI   PO4  276   7.382  13.064   9.619  0.0775 -0.1653 -0.0461
   18loPI   GL1  277   7.369  13.321   9.221  0.0004  0.3981  0.1529
   18loPI   GL2  278   7.049  13.266   9.128  0.2149 -0.1437  0.0193
   18loPI   C1A  279   7.442  13.173   8.813 -0.1078  0.0193 -0.0152
   18loPI   C2A  280   7.322  13.226   8.423 -0.0251  0.0936  0.2508
   18loPI   C3A  281   7.275  13.143   7.988 -0.0683 -0.1285  0.0054
   18loPI   C4A  282   7.083  13.274   7.544  0.1146  0.1685 -0.0043
   18loPI   C5A  283   6.793  13.443   7.226  0.0507 -0.2066  0.3010
   18loPI   C6A  284   6.433  13.307   7.121  0.0943 -0.1798  0.2093
   18loPI   C1B  285   6.879  13.208   8.823  0.0173  0.0951 -0.2444
   18loPI   C2B  286   6.789  13.065   8.359  0.0161 -0.1058  0.2248
   18loPI   C3B  287   6.735  13.123   7.872  0.0010 -0.1414  0.2078
   18loPI   C4B  288   6.664  12.918   7.527  0.0622  0.1487  0.1187
   19loPI    C1  289  15.403  14.812  10.941 -0.0057  0.3229  0.0175
   19loPI    C2  290  15.210  15.145  11.048 -0.0193  0.3631 -0.1304
   19loPI    C3  291  15.172  14.813  11.268  0.0402  0.4742  0.0500
   19loPI   PO4  292  15.474  14.968  10.629  0.6692  0.2789 -0.0605
   19loPI   GL1  293  15.318  14.821  10.331 -0.0205  0.1175 -0.1440
   19loPI   GL2  294  14.994  14.652  10.279 -0.0180  0.1542  0.1862
   19loPI   C1A  295  15.304  14.888   9.924 -0.2061 -0.0756 -0.1103
   19loPI   C2A  296  15.408  15.129   9.564  0.1423 -0.1054  0.2107
   19loPI   C3A  297  15.439  15.154   9.119  0.0560 -0.0559  0.2439
   19loPI   C4A  298  15.390  15.318   8.724  0.0902  0.3803 -0.0346
   19loPI   C5A  299  15.349  15.326   8.214 -0.1183  0.0661 -0.1638
   19loPI   C6A  300  15.581  15.693   8.014  0.2437  0.0206 -0.0582
   19loPI   C1B  301  14.820  14.758   9.888 -0.2136 -0.2532 -0.3036
   19loPI   C2B  302  14.698  14.753   9.473 -0.1155 -0.0947  0.0416
   19loPI   C3B  303  14.704  14.582   9.115 -0.0427  0.3439  0.0365
   19loPI   C4B  304  14.864  14.478   8.683  0.0279 -0.1615  0.1326
   20loPI    C1  305  17.783  11.700  10.699 -0.1566 -0.0434  0.1174
   20loPI    C2  306  18.021  11.676  11.019  0.0138  0.2878  0.0202
   20loPI    C3  307  17.632  11.756  11.066 -0.0013  0.1413  0.1548
   20loPI   PO4  308  17.895  11.483  10.507 -0.4272  0.2375  0.1482
   20loPI   GL1  309  17.752  11.257  10.138  0.0744  0.1242 -0.2945
   20loPI   GL2  310  18.016  11.055  10.089 -0.2351  0.0346 -0.0237
   20loPI   C1A  311  17.482  11.147   9.798 -0.2490  0.0717 -0.0884
   20loPI   C2A  312  17.614  11.084   9.395  0.0429  0.1492  0.2909
   20loPI   C3A  313  17.765  10.826   9.056 -0.3411  0.1954  0.3169
   20loPI   C4A  314  17.727  10.539   8.738  0.0722 -0.1925  0.3429
   20loPI   C5A  315  17.659  10.361   8.342  0.2164  0.0128  0.1514
   20loPI   C6A  316  17.349  10.291   7.994  0.1628 -0.1034  0.1251
   20loPI   C1B  317  18.119  10.941   9.595 -0.0482  0.4129  0.2971
   20loPI   C2B  318  18.226  10.733   9.245  0.2847  0.1826  0.0531
   20loPI   C3B  319  18.167  10.639   8.779 -0.0156 -0.1529  0.2307
   20loPI   C4B  320  18.065  10.681   8.336 -0.1590  0.3395  0.2542
   21loPI    C1  321   5.552   3.149  10.560 -0.1571  0.0344  0.1689
   21loPI    C2  322   5.660   3.060  10.935 -0.0693  0.1183  0.1639
   21loPI    C3  323   5.668   3.440  10.809 -0.2604  0.1112  0.1281
   21loPI   PO4  324   5.665   2.983  10.399 -0.3042  0.2342 -0.1663
   21loPI   GL1  325   5.748   2.983   9.979  0.0225  0.2603  0.0908
   21loPI   GL2  326   5.480   2.877   9.946 -0.2415  0.2270 -0.2673
   21loPI   C1A  327   5.841   2.992   9.553  0.0978 -0.1567 -0.1913
   21loPI   C2A  328   5.842   2.889   9.180  0.0462 -0.1268  0.1193
   21loPI   C3A  329   5.889   2.861   8.824 -0.1492  0.4500  0.4365
   21loPI   C4A  330   5.846   3.079   8.434  0.2136 -0.1346  0.0699
   21loPI   C5A  331   6.054   3.243   8.089 -0.2739 -0.2566  0.3347
   21loPI   C6A  332   6.300   3.403   7.791  0.2849  0.0455 -0.0996
   21loPI   C1B  333   5.404   2.755   9.477 -0.3514  0.1081  0.0145
   21loPI   C2B  334   5.364   2.668   9.158 -0.1048  0.1624  0.1078
   21loPI   C3B  335   5.539   2.507   8.802 -0.2929  0.1371 -0.2828
   21loPI   C4B  336   5.607   2.447   8.359 -0.1306 -0.1227  0.0109
   22loPI    C1  337  13.575   8.595   9.988  0.1290 -0.1357  0.0151
   22loPI    C2  338  13.695   8.624   9.607 -0.1070 -0.0402 -0.0538
   22loPI    C3  339  13.932   8.755   9.902  0.0063  0.0390 -0.1789
   22loPI   PO4  340  13.308   8.722   9.980 -0.4279  0.0618 -0.1402
   22loPI   GL1  341  13.254   9.019   9.684 -0.2049  0.1683  0.2216
   22loPI   GL2  342  12.939   9.044   9.537  0.0726 -0.1898  0.2225
   22loPI   C1A  343  13.394   8.786   9.328 -0.0664  0.3556  0.0880
   22loPI   C2A  344  13.576   8.667   9.000  0.4548 -0.0911 -0.2405
   22loPI   C3A  345  13.711   8.636   8.642 -0.3711  0.0529  0.0217
   22loPI   C4A  346  13.602   8.571   8.264  0.1775 -0.0479 -0.1847
   22loPI   C5A  347  13.570   8.300   7.857  0.0626  0.1054  0.2981
   22loPI   C6A  348  13.715   8.107   7.465  0.0353 -0.4661 -0.1935
   22loPI   C1B  349  13.040   9.146   9.120  0.0241 -0.0230  0.1496
   22loPI   C2B  350  12.978   9.165   8.650  0.5099 -0.1200  0.1652
   22loPI   C3B  351  12.789   9.096   8.296 -0.1144 -0.0790  0.1326
   22loPI   C4B  352  12.339   9.101   8.073 -0.1419  0.2510  0.2944
   23loPI    C1  353   8.380   6.250  10.877 -0.1032 -0.0045  0.1756
   23loPI    C2  354   8.323   5.855  10.844  0.2874 -0.0431 -0.1147
   23loPI    C3  355   8.468   6.009  11.184  0.0600 -0.1364  0.0273
   23loPI   PO4  356   8.306   6.299  10.597  0.1436  0.3072  0.1075
   23loPI   GL1  357   8.449   6.390  10.197  0.3162  0.2501  0.0773
   23loPI   GL2  358   8.674   6.603  10.152  0.2397 -0.2280 -0.1265
   23loPI   C1A  359   8.309   6.153   9.904  0.1013  0.1971 -0.0171
   23loPI   C2A  360   8.416   6.027   9.539 -0.0251  0.0958  0.2587
   23loPI   C3A  361   8.497   6.083   9.131  0.3053 -0.1909  0.2152
   23loPI   C4A  362   8.462   6.106   8.770 -0.0688 -0.1805  0.3596
   23loPI   C5A  363   8.423   6.074   8.351 -0.0520  0.0483  0.0613
   23loPI   C6A  364   8.668   5.829   8.014 -0.2772 -0.0134 -0.3597
   23loPI   C1B  365   8.735   6.575   9.667  0.0983 -0.2400 -0.0739
   23loPI   C2B  366   8.731   6.555   9.204  0.0084 -0.5174  0.1414
   23loPI   C3B  367   8.716   6.671   8.814  0.2150  0.0316  0.2284
   23loPI   C4B  368   8.589   6.699   8.432  0.0564  0.1418  0.0817
   24loPI    C1  369  13.007   2.421  10.190  0.0898 -0.0976 -0.2156
   24loPI    C2  370  13.252   2.105  10.193  0.1084 -0.0825 -0.0114
   24loPI    C3  371  13.327   2.418  10.430  0.0099  0.0138 -0.1066
   24loPI   PO4  372  12.778   2.352  10.244 -0.1586  0.0694  0.0513
   24loPI   GL1  373  12.682   2.089   9.960 -0.0001  0.1725 -0.0073
   24loPI   GL2  374  12.868   1.911   9.962 -0.0369  0.2640  0.2644
   24loPI   C1A  375  12.515   1.959   9.564 -0.1058 -0.1224  0.1583
   24loPI   C2A  376  12.534   1.993   9.189 -0.3651 -0.2180  0.1066
   24loPI   C3A  377  12.576   2.016   8.759 -0.0621 -0.4695  0.0121
   24loPI   C4A  378  12.493   1.889   8.275  0.0033 -0.2031  0.0367
   24loPI   C5A  379  12.129   1.847   7.904  0.0134  0.3920 -0.0590
   24loPI   C6A  380  11.864   1.804   7.561 -0.1417 -0.0049  0.0563
   24loPI   C1B  381  13.091   2.013   9.644  0.1485  0.0128  0.1348
   24loPI   C2B  382  13.049   1.905   9.216  0.0239 -0.1217 -0.1601
   24loPI   C3B  383  13.118   1.953   8.817  0.0995  0.0773  0.0750
   24loPI   C4B  384  12.992   1.962   8.313 -0.0147 -0.1104  0.0458
   25loPI    C1  385  12.894   6.059  10.432  0.1269 -0.3331  0.0517
   25loPI    C2  386  13.197   6.032  10.692  0.1760  0.0221  0.0356
   25loPI    C3  387  12.844   6.179  10.810  0.0801 -0.1726 -0.0049
   25loPI   PO4  388  12.865   5.849  10.365  0.0468  0.1637  0.0309
   25loPI   GL1  389  12.750   5.792   9.913 -0.2096 -0.0032  0.0651
   25loPI   GL2  390  13.021   5.673   9.824  0.3729  0.3276  0.3325
   25loPI   C1A  391  12.685   6.081   9.631 -0.0741 -0.0100  0.0848
   25loPI   C2A  392  12.585   6.114   9.205  0.0188  0.0052 -0.1615
   25loPI   C3A  393  12.529   6.036   8.796  0.1288  0.4208 -0.1096
   25loPI   C4A  394  12.542   5.994   8.325 -0.2347  0.1388 -0.0924
   25loPI   C5A  395  12.555   6.152   7.955  0.0670 -0.2460  0.3366
   25loPI   C6A  396  12.459   6.049   7.509 -0.1039 -0.1033 -0.1841
   25loPI   C1B  397  13.039   5.840   9.449 -0.1147  0.1144 -0.0565
   25loPI   C2B  398  12.968   5.818   9.086  0.0089 -0.0436 -0.0620
   25loPI   C3B  399  12.928   5.732   8.721 -0.1427 -0.1253  0.0140
   25loPI   C4B  400  13.078   5.846   8.426 -0.1597 -0.2300 -0.0665
   26loPI    C1  401   7.551  14.948   9.897  0.0298  0.2201  0.0279
   26loPI    C2  402   7.648  15.144  10.231  0.2674  0.0484  0.0619
   26loPI    C3  403   7.474  14.785  10.254  0.1725  0.0902  0.0004
   26loPI   PO4  404   7.402  15.081   9.718 -0.0345 -0.1661 -0.0816
   26loPI   GL1  405   7.254  15.361   9.445 -0.0896  0.2848  0.0333
   26loPI   GL2  406   6.970  15.382   9.425 -0.4661 -0.1945 -0.3556
   26loPI   C1A  407   7.519  15.482   9.138 -0.1349  0.1074  0.2795
   26loPI   C2A  408   7.591  15.549   8.708 -0.0882 -0.0524  0.3526
   26loPI   C3A  409   7.536  15.485   8.364 -0.0764  0.0909 -0.1529
   26loPI   C4A  410   7.633  15.573   7.969  0.2231  0.4535  0.0835
   26loPI   C5A  411   7.816  15.375   7.600  0.0170 -0.0301 -0.1765
   26loPI   C6A  412   7.670  15.033   7.295  0.2927  0.0939 -0.2979
   26loPI   C1B  413   6.961  15.474   8.994 -0.1016  0.2320 -0.1782
   26loPI   C2B  414   7.102  15.599   8.624  0.1025 -0.0816 -0.0968
   26loPI   C3B  415   7.113  15.596   8.132  0.0371  0.3978  0.0717
   26loPI   C4B  416   6.817  15.660   7.741 -0.2134  0.2219  0.2787
   27loPI    C1  417   3.796  12.042   9.785 -0.2743 -0.0641 -0.0895
   27loPI    C2  418   3.770  11.873  10.146 -0.2221  0.1060 -0.0051
   27loPI    C3  419   3.954  11.680   9.848 -0.0149  0.0843  0.1346
   27loPI   PO4  420   3.536  12.189   9.871  0.0876 -0.0480  0.1255
   27loPI   GL1  421   3.491  12.385   9.456  0.5043 -0.6052 -0.1349
   27loPI   GL2  422   3.737  12.230   9.325 -0.0099  0.1575  0.0540
   27loPI   C1A  423   3.424  12.368   8.995 -0.2334  0.1685 -0.5446
   27loPI   C2A  424   3.633  12.460   8.511 -0.0674 -0.1515  0.0183
   27loPI   C3A  425   3.543  12.462   8.153  0.1288 -0.0359  0.2922
   27loPI   C4A  426   3.219  12.580   7.869 -0.1050 -0.2327 -0.3621
   27loPI   C5A  427   2.856  12.787   7.590  0.1562  0.0411 -0.3515
   27loPI   C6A  428   2.625  13.093   7.402  0.1419  0.1682  0.1775
   27loPI   C1B  429   3.890  12.154   8.912  0.0306  0.2771  0.1310
   27loPI   C2B  430   4.077  12.173   8.561  0.2937  0.0973 -0.3318
   27loPI   C3B  431   4.025  12.324   8.242  0.0295  0.0571 -0.1513
   27loPI   C4B  432   3.902  12.412   7.829 -0.1818 -0.0754  0.0087
   28loPI    C1  433   7.813  14.305   9.998  0.2762 -0.3287 -0.0617
   28loPI    C2  434   7.973  14.599  10.217  0.1782 -0.2518 -0.0925
   28loPI    C3  435   7.721  14.338  10.386 -0.3393  0.1411 -0.2311
   28loPI   PO4  436   7.661  14.478   9.780  0.1038  0.1957  0.1889
   28loPI   GL1  437   7.659  14.740   9.429 -0.0044 -0.0292 -0.1087
   28loPI   GL2  438   7.712  15.040   9.340 -0.0830 -0.0128 -0.1638
   28loPI   C1A  439   7.660  14.554   9.102 -0.0971 -0.0007 -0.0303
   28loPI   C2A  440   7.613  14.525   8.714  0.1494  0.0521  0.4083
   28loPI   C3A  441   7.495  14.583   8.308 -0.0372 -0.2125  0.0746
   28loPI   C4A  442   7.691  14.370   8.062  0.1909  0.4011 -0.0472
   28loPI   C5A  443   8.086  14.366   7.765  0.1330 -0.0046  0.1606
   28loPI   C6A  444   8.093  14.261   7.346  0.0018  0.0645  0.1487
   28loPI   C1B  445   7.931  15.118   8.982 -0.0394 -0.0836 -0.0596
   28loPI   C2B  446   7.922  15.141   8.552  0.1201  0.0005 -0.2027
   28loPI   C3B  447   7.787  15.118   8.149 -0.2258  0.0263  0.0603
   28loPI   C4B  448   7.590  14.789   7.837  0.1103  0.1977  0.1195
   29loPI    C1  449  13.557  13.958  10.466 -0.2284 -0.1422  0.0446
   29loPI    C2  450  13.847  14.228  10.526 -0.0972 -0.2960  0.1107
   29loPI    C3  451  13.577  14.156  10.813 -0.1784 -0.1805  0.0639
   29loPI   PO4  452  13.439  14.102  10.253  0.1814 -0.0828  0.1393
   29loPI   GL1  453  13.403  14.348   9.940  0.1375 -0.2077  0.1248
   29loPI   GL2  454  13.422  14.655   9.892  0.0932 -0.3872  0.3716
   29loPI   C1A  455  13.369  14.141   9.528 -0.0250  0.0816  0.1079
   29loPI   C2A  456  13.394  14.100   8.985  0.2112  0.2088  0.1047
   29loPI   C3A  457  13.400  14.188   8.633 -0.0088 -0.1083  0.1239
   29loPI   C4A  458  13.280  14.455   8.239 -0.2785 -0.0921 -0.1872
   29loPI   C5A  459  13.373  14.772   7.929  0.2669  0.0530  0.1208
   29loPI   C6A  460  13.139  15.128   7.873  0.0950 -0.0648  0.1917
   29loPI   C1B  461  13.667  14.569   9.567  0.0592  0.0516 -0.0743
   29loPI   C2B  462  13.678  14.506   9.218 -0.0999 -0.0484  0.2004
   29loPI   C3B  463  13.673  14.587   8.859 -0.0065 -0.1648  0.0987
   29loPI   C4B  464  13.595  14.781   8.534 -0.2048 -0.0222  0.2813
   30loPI    C1  465   0.129   2.075  10.618 -0.1920  0.0304  0.0448
   30loPI    C2  466   0.045   2.405  10.407 -0.5183 -0.0794 -0.0026
   30loPI    C3  467   0.050   2.419  10.807 -0.0776  0.0865 -0.0088
   30loPI   PO4  468   0.097   1.861  10.513 -0.1187  0.1011  0.1568
   30loPI   GL1  469  -0.175   2.004  10.198  0.1040  0.2563  0.1886
   30loPI   GL2  470  -0.021   1.734   9.930  0.3212  0.0979 -0.0535
   30loPI   C1A  471  -0.135   2.219   9.841  0.0995  0.2555  0.0488
   30loPI   C2A  472  -0.175   2.388   9.430 -0.2698 -0.2761  0.0288
   30loPI   C3A  473  -0.237   2.423   8.924 -0.3503 -0.1287  0.2924
   30loPI   C4A  474  -0.189   2.707   8.569  0.0681  0.5319 -0.1077
   30loPI   C5A  475  -0.177   3.096   8.402  0.1942  0.1148  0.3468
   30loPI   C6A  476   0.192   3.334   8.344 -0.2595  0.2107 -0.0861
   30loPI   C1B  477   0.190   1.885   9.597 -0.0569 -0.0743  0.0465
   30loPI   C2B  478   0.141   2.088   9.231  0.0658  0.1449 -0.0139
   30loPI   C3B  479   0.082   1.939   8.771  0.1025 -0.1845 -0.3210
   30loPI   C4B  480   0.090   1.874   8.285  0.0611 -0.1606  0.2200
   31loPI    C1  481   9.786  13.971  10.095 -0.2152  0.1267  0.1347
   31loPI    C2  482   9.736  13.582  10.172  0.0592  0.0819  0.0965
   31loPI    C3  483   9.905  13.820  10.446  0.1787  0.1104 -0.0012
   31loPI   PO4  484   9.865  14.016   9.860 -0.2242  0.2105  0.1972
   31loPI   GL1  485   9.928  14.066   9.537  0.1581  0.1011  0.1386
   31loPI   GL2  486  10.317  13.893   9.481 -0.2992  0.0467  0.1265
   31loPI   C1A  487  10.009  13.980   9.110  0.1026 -0.0766 -0.2390
   31loPI   C2A  488   9.800  14.024   8.780  0.2542 -0.0216 -0.0832
   31loPI   C3A  489   9.643  14.021   8.361  0.2318 -0.1527 -0.1064
   31loPI   C4A  490   9.724  13.943   7.965  0.1824  0.0080 -0.0310
   31loPI   C5A  491   9.606  14.053   7.564 -0.0189  0.2797  0.2007
   31loPI   C6A  492   9.845  14.109   7.286  0.1079 -0.1099 -0.3269
   31loPI   C1B  493  10.526  13.731   9.179 -0.4096 -0.0648 -0.0059
   31loPI   C2B  494  10.578  13.720   8.696 -0.2337 -0.4675 -0.1630
   31loPI   C3B  495  10.561  13.467   8.393  0.1140  0.1743 -0.0708
   31loPI   C4B  496  10.820  13.349   8.037  0.0307 -0.1362 -0.1253
   32loPI    C1  497   4.032   5.074  10.152  0.2296 -0.1206  0.0084
   32loPI    C2  498   4.297   5.273  10.376  0.0226  0.1410  0.0257
   32loPI    C3  499   4.166   4.914  10.494  0.0647  0.1888  0.2229
   32loPI   PO4  500   3.825   5.243  10.182 -0.0024  0.1701  0.1588
   32loPI   GL1  501   3.679   5.369   9.848 -0.3237  0.0237  0.2874
   32loPI   GL2  502   3.309   5.369   9.712  0.0405  0.0777 -0.1593
   32loPI   C1A  503   3.863   5.359   9.530 -0.0935  0.2508  0.0977
   32loPI   C2A  504   3.843   5.373   9.107 -0.0257 -0.5394 -0.2448
   32loPI   C3A  505   3.914   5.255   8.734 -0.2384 -0.0437 -0.0035
   32loPI   C4A  506   3.845   4.970   8.324  0.0232  0.1259 -0.2947
   32loPI   C5A  507   3.848   4.584   8.196 -0.2007 -0.1209  0.0537
   32loPI   C6A  508   4.178   4.345   7.883  0.2532  0.1923 -0.1338
   32loPI   C1B  509   3.377   5.371   9.254  0.4381  0.4221 -0.1458
   32loPI   C2B  510   3.432   5.346   8.821 -0.0081  0.3887 -0.1872
   32loPI   C3B  511   3.588   5.598   8.400 -0.0454 -0.0837  0.0426
   32loPI   C4B  512   3.707   5.919   8.186 -0.3078 -0.0997  0.2401
   33loPI    C1  513  12.338   1.998  10.478 -0.0857  0.0333 -0.1370
   33loPI    C2  514  11.966   1.998  10.626 -0.0159  0.0087  0.0413
   33loPI    C3  515  12.256   1.797  10.814  0.0348 -0.1815 -0.2342
   33loPI   PO4  516  12.304   1.898  10.276 -0.0505  0.0186 -0.0412
   33loPI   GL1  517  12.305   1.662  10.005 -0.2423  0.2804  0.3009
   33loPI   GL2  518  12.578   1.497  10.092  0.2934 -0.0032  0.1128
   33loPI   C1A  519  12.125   1.646   9.622  0.1076 -0.1733  0.1505
   33loPI   C2A  520  12.156   1.669   9.180 -0.0727  0.2669  0.0329
   33loPI   C3A  521  12.207   1.631   8.728 -0.1253 -0.1845  0.3555
   33loPI   C4A  522  12.126   1.475   8.300  0.0300 -0.0286  0.1496
   33loPI   C5A  523  12.038   1.238   7.969 -0.1085 -0.2013 -0.0441
   33loPI   C6A  524  11.889   1.205   7.510  0.0039  0.1463  0.0048
   33loPI   C1B  525  12.705   1.503   9.688  0.1755  0.3504  0.4672
   33loPI   C2B  526  12.624   1.549   9.327  0.2862  0.2054 -0.4003
   33loPI   C3B  527  12.779   1.570   8.855 -0.4991  0.1162 -0.2307
   33loPI   C4B  528  12.671   1.467   8.483  0.0351  0.2217  0.0927
   34loPI    C1  529   5.087   2.285  10.794 -0.4228  0.0961  0.2025
   34loPI    C2  530   5.265   1.987  10.993 -0.1465  0.0304 -0.1338
   34loPI    C3  531   4.871   2.044  11.028 -0.1750 -0.2692  0.0635
   34loPI   PO4  532   5.120   2.251  10.494 -0.3093  0.2774 -0.3262
   34loPI   GL1  533   5.139   2.241  10.054 -0.1324 -0.1282 -0.0683
   34loPI   GL2  534   5.421   2.380   9.860 -0.0236  0.2829  0.1361
   34loPI   C1A  535   5.000   1.956   9.651 -0.1709 -0.1433 -0.0258
   34loPI   C2A  536   4.949   1.762   9.246 -0.4328 -0.0637 -0.1192
   34loPI   C3A  537   4.997   1.785   8.825  0.2111  0.0427 -0.0265
   34loPI   C4A  538   4.823   1.891   8.375  0.3840  0.2443 -0.0953
   34loPI   C5A  539   4.743   1.963   7.953  0.1237  0.1526 -0.1292
   34loPI   C6A  540   4.857   1.703   7.500 -0.0187 -0.1633  0.0799
   34loPI   C1B  541   5.354   2.225   9.422  0.1889  0.4668 -0.2388
   34loPI   C2B  542   5.340   2.090   9.010 -0.0185 -0.0015  0.0443
   34loPI   C3B  543   5.260   2.103   8.562 -0.1722  0.2805  0.0762
   34loPI   C4B  544   5.140   2.206   8.121  0.2242 -0.1249  0.0868
   35loPI    C1  545  10.824   9.819  10.587 -0.1616  0.0489  0.2559
   35loPI    C2  546  10.854  10.202  10.697  0.2057  0.0717  0.0905
   35loPI    C3  547  11.018   9.916  10.923  0.2714  0.0481  0.0134
   35loPI   PO4  548  10.734   9.682  10.393  0.1011  0.4226  0.2273
   35loPI   GL1  549  10.567   9.753  10.020  0.4078  0.0051 -0.2960
   35loPI   GL2  550  10.469  10.030   9.868  0.4192  0.0317  0.2776
   35loPI   C1A  551  10.703   9.719   9.571 -0.1789 -0.0986  0.1429
   35loPI   C2A  552  10.462   9.757   9.217 -0.0106  0.1014  0.0855
   35loPI   C3A  553  10.525   9.867   8.846  0.1318  0.2225 -0.0218
   35loPI   C4A  554  10.320  10.022   8.560  0.2595  0.1738 -0.2372
   35loPI   C5A  555  10.312  10.238   8.154 -0.2006 -0.0592  0.2235
   35loPI   C6A  556  10.099  10.383   7.737 -0.0500 -0.1870  0.0178
   35loPI   C1B  557  10.439  10.233   9.542  0.3283 -0.1198 -0.1500
   35loPI   C2B  558  10.402  10.299   9.086 -0.0352  0.1151 -0.0154
   35loPI   C3B  559  10.426  10.478   8.695  0.0237 -0.2309  0.2104
   35loPI   C4B  560  10.670  10.625   8.365 -0.1158  0.1265 -0.0435
   36loPI    C1  561   9.860  10.899  10.179  0.2719 -0.0148  0.1532
   36loPI    C2  562   9.638  10.978  10.502  0.2163 -0.0789  0.1310
   36loPI    C3  563   9.830  11.274  10.314 -0.0012  0.0065  0.0400
   36loPI   PO4  564   9.705  10.859   9.995  0.1350 -0.0337  0.3653
   36loPI   GL1  565   9.766  10.936   9.585 -0.0273  0.0971  0.2283
   36loPI   GL2  566   9.833  11.310   9.815 -0.0517 -0.1987  0.0607
   36loPI   C1A  567   9.617  10.665   9.301 -0.1782 -0.3062 -0.2042
   36loPI   C2A  568   9.543  10.677   8.941 -0.0903 -0.3208 -0.2634
   36loPI   C3A  569   9.505  10.702   8.434 -0.0042  0.1526 -0.3087
   36loPI   C4A  570   9.535  10.894   8.047  0.1430  0.0344  0.2699
   36loPI   C5A  571   9.182  11.094   7.678  0.1290  0.0436 -0.5565
   36loPI   C6A  572   8.833  11.022   7.378 -0.0057 -0.0509  0.0982
   36loPI   C1B  573   9.611  11.431   9.470 -0.0958 -0.0272 -0.1232
   36loPI   C2B  574   9.207  11.528   9.271 -0.0479 -0.0045  0.0418
   36loPI   C3B  575   9.123  11.723   8.940  0.0916  0.2341 -0.2981
   36loPI   C4B  576   9.200  11.658   8.451  0.1597 -0.1850  0.1288
   37loPI    C1  577  14.514  15.157  11.153  0.1559  0.1285  0.0003
   37loPI    C2  578  14.812  15.319  11.363 -0.0400 -0.0469  0.4246
   37loPI    C3  579  14.693  14.945  11.440 -0.0070 -0.1775 -0.1184
   37loPI   PO4  580  14.689  15.147  10.918 -0.1095 -0.2500 -0.0504
   37loPI   GL1  581  14.927  15.156  10.516 -0.2769 -0.0813  0.1778
   37loPI   GL2  582  14.597  14.960  10.383  0.0953  0.4983 -0.2874
   37loPI   C1A  583  14.969  15.309  10.101  0.1089 -0.1058  0.5942
   37loPI   C2A  584  14.839  15.264   9.661  0.2791 -0.0856  0.0020
   37loPI   C3A  585  14.879  15.157   9.316  0.0558 -0.1426  0.0850
   37loPI   C4A  586  14.858  15.160   8.810  0.1553  0.3727  0.0885
   37loPI   C5A  587  14.763  15.001   8.410  0.2589 -0.0943 -0.1196
   37loPI   C6A  588  14.882  14.536   8.222  0.5206 -0.3614 -0.0857
   37loPI   C1B  589  14.442  15.101   9.957 -0.2347  0.2048 -0.0618
   37loPI   C2B  590  14.359  15.144   9.582 -0.2956 -0.0853 -0.0610
   37loPI   C3B  591  14.412  15.092   9.181  0.1192  0.1342  0.1145
   37loPI   C4B  592  14.443  14.893   8.749  0.2246  0.0245  0.0804
   38loPI    C1  593   9.285  12.743  10.326  0.3911  0.0189  0.0240
   38loPI    C2  594   9.468  12.617  10.658  0.2005 -0.0771  0.0939
   38loPI    C3  595   9.371  13.003  10.617  0.0477 -0.0986  0.2374
   38loPI   PO4  596   9.338  12.577  10.072 -0.3581 -0.1496 -0.3346
   38loPI   GL1  597   9.378  12.644   9.702 -0.0214 -0.3166  0.2694
   38loPI   GL2  598   9.141  12.790   9.610 -0.1145  0.0765 -0.0068
   38loPI   C1A  599   9.427  12.414   9.386  0.0368  0.0994  0.2795
   38loPI   C2A  600   9.611  12.536   8.885 -0.0690  0.1802  0.1976
   38loPI   C3A  601   9.525  12.535   8.412 -0.3544  0.1768 -0.1149
   38loPI   C4A  602   9.722  12.602   7.969 -0.0232  0.2241 -0.0436
   38loPI   C5A  603   9.634  12.726   7.526 -0.0464  0.1069 -0.0148
   38loPI   C6A  604   9.438  12.935   7.205 -0.2519  0.1446 -0.2774
   38loPI   C1B  605   9.205  12.773   9.173  0.0183 -0.2223 -0.0327
   38loPI   C2B  606   9.240  12.821   8.662 -0.0937  0.0584 -0.1285
   38loPI   C3B  607   9.118  12.783   8.195  0.0546 -0.1727 -0.1812
   38loPI   C4B  608   9.240  12.543   7.812 -0.0661 -0.0086  0.0995
   39loPI    C1  609   1.842   0.026  10.206 -0.2316 -0.0163  0.1493
   39loPI    C2  610   1.671   0.381  10.138  0.2734  0.1713 -0.2017
   39loPI    C3  611   1.993   0.356  10.374  0.0007 -0.1212  0.1518
   39loPI   PO4  612   1.916  -0.079   9.915 -0.4218  0.0788  0.0688
   39loPI   GL1  613   1.811   0.048   9.487 -0.1355  0.1000 -0.1219
   39loPI   GL2  614   1.854   0.362   9.644  0.1215  0.3448  0.1083
   39loPI   C1A  615   1.741  -0.056   9.088  0.2734 -0.2158 -0.4077
   39loPI   C2A  616   1.712  -0.056   8.767 -0.0093  0.0162  0.1451
   39loPI   C3A  617   1.633   0.100   8.454 -0.0207  0.0600  0.2930
   39loPI   C4A  618   1.460   0.062   8.084  0.1989  0.1135  0.1886
   39loPI   C5A  619   1.261   0.060   7.695 -0.0693 -0.1219 -0.1956
   39loPI   C6A  620   0.868  -0.130   7.790  0.1100  0.0736  0.2104
   39loPI   C1B  621   1.879   0.450   9.215  0.1319  0.3420  0.1153
   39loPI   C2B  622   1.864   0.490   8.776  0.0529  0.0834  0.2835
   39loPI   C3B  623   1.940   0.484   8.300 -0.0122 -0.0327  0.1329
   39loPI   C4B  624   1.834   0.308   7.910 -0.2448  0.1648 -0.0933
   40loPI    C1  625  13.895   9.626  10.404 -0.2128  0.0452  0.1708
   40loPI    C2  626  13.673   9.304  10.489 -0.3193  0.0410 -0.1130
   40loPI    C3  627  13.909   9.464  10.769 -0.2886 -0.2649  0.0394
   40loPI   PO4  628  13.870   9.614  10.143  0.0975 -0.1413  0.0435
   40loPI   GL1  629  13.629   9.771   9.725 -0.3114 -0.0545  0.1401
   40loPI   GL2  630  13.332   9.578   9.848 -0.1514 -0.0360  0.1031
   40loPI   C1A  631  13.753   9.763   9.258  0.1332 -0.0332 -0.1437
   40loPI   C2A  632  13.785   9.706   8.838  0.1515 -0.2141  0.0788
   40loPI   C3A  633  13.731   9.676   8.460 -0.3084 -0.0165  0.0283
   40loPI   C4A  634  13.882   9.558   8.140 -0.1345  0.0237 -0.0348
   40loPI   C5A  635  13.839   9.219   7.860 -0.1940  0.0931 -0.3678
   40loPI   C6A  636  13.675   8.811   7.792 -0.0634  0.0657 -0.1125
   40loPI   C1B  637  13.558   9.320   9.442 -0.1600 -0.2369 -0.0997
   40loPI   C2B  638  13.526   9.129   8.986 -0.1908  0.0553 -0.2097
   40loPI   C3B  639  13.464   9.072   8.500 -0.3334 -0.4922  0.0544
   40loPI   C4B  640  13.287   9.316   8.173 -0.0591 -0.0375 -0.0979
   41loPI    C1  641   7.117   1.333  10.464  0.0867  0.1781 -0.0718
   41loPI    C2  642   7.327   1.154  10.753  0.2117  0.0961 -0.2124
   41loPI    C3  643   7.037   0.954  10.565  0.1484  0.1407 -0.1626
   41loPI   PO4  644   7.259   1.417  10.328  0.0219 -0.3762  0.1418
   41loPI   GL1  645   7.563   1.308   9.957 -0.2276  0.2021 -0.1025
   41loPI   GL2  646   7.901   1.232   9.883  0.0611  0.0922  0.0698
   41loPI   C1A  647   7.347   1.118   9.681  0.0376 -0.0293 -0.2550
   41loPI   C2A  648   7.370   0.956   9.319  0.1553 -0.3702 -0.0917
   41loPI   C3A  649   7.298   1.029   8.861 -0.1746 -0.0498 -0.0897
   41loPI   C4A  650   7.155   0.836   8.584 -0.1749 -0.2170  0.2807
   41loPI   C5A  651   6.821   0.660   8.352  0.0680 -0.1187  0.0240
   41loPI   C6A  652   6.471   0.771   8.129 -0.0540 -0.4048 -0.3453
   41loPI   C1B  653   7.838   1.277   9.505 -0.1366 -0.2612  0.2614
   41loPI   C2B  654   7.842   1.290   9.091 -0.1960 -0.3496  0.1092
   41loPI   C3B  655   7.857   1.183   8.616  0.1521  0.1473  0.0825
   41loPI   C4B  656   7.935   1.343   8.133  0.1226  0.0228  0.0940
   42loPI    C1  657  10.462   7.442  10.289  0.1410 -0.1828 -0.1257
   42loPI    C2  658  10.380   7.654  10.618 -0.0500  0.0841 -0.3404
   42loPI    C3  659  10.734   7.472  10.581 -0.1135 -0.1479  0.1127
   42loPI   PO4  660  10.226   7.349  10.236  0.3602  0.1426 -0.1350
   42loPI   GL1  661   9.950   7.546   9.890 -0.0627 -0.0803 -0.0225
   42loPI   GL2  662   9.570   7.418   9.944  0.1363 -0.0350  0.1856
   42loPI   C1A  663   9.815   7.408   9.519 -0.1567 -0.1335  0.2274
   42loPI   C2A  664   9.968   7.496   9.117  0.0305 -0.0412 -0.3795
   42loPI   C3A  665   9.883   7.440   8.841  0.0338 -0.1075 -0.0127
   42loPI   C4A  666   9.711   7.470   8.440  0.0388  0.1519  0.0241
   42loPI   C5A  667   9.728   7.763   8.087  0.1420  0.2317 -0.0324
   42loPI   C6A  668   9.732   8.246   7.868 -0.0373 -0.0021 -0.1760
   42loPI   C1B  669   9.327   7.553   9.540 -0.1940 -0.2198 -0.0132
   42loPI   C2B  670   9.179   7.469   9.110  0.2263 -0.0581  0.2179
   42loPI   C3B  671   9.266   7.468   8.652 -0.2222 -0.0597  0.0228
   42loPI   C4B  672   9.273   7.588   8.229  0.2580  0.2180 -0.0956
   43loPI    C1  673  14.118  13.288  10.416  0.0210 -0.0781  0.1383
   43loPI    C2  674  14.322  13.322  10.759  0.0657  0.0132  0.1029
   43loPI    C3  675  13.939  13.207  10.765  0.0840 -0.0444  0.1787
   43loPI   PO4  676  14.271  13.089  10.261 -0.0628  0.1331  0.1606
   43loPI   GL1  677  14.313  12.931   9.775 -0.0732 -0.0121  0.2934
   43loPI   GL2  678  14.317  12.742   9.852 -0.0239 -0.2097  0.0768
   43loPI   C1A  679  14.500  12.984   9.260  0.0382 -0.1150 -0.0526
   43loPI   C2A  680  14.470  13.117   8.783 -0.1049  0.2845 -0.1746
   43loPI   C3A  681  14.647  13.174   8.364  0.1559  0.2604 -0.1368
   43loPI   C4A  682  14.835  13.283   8.014  0.0889 -0.2196 -0.3296
   43loPI   C5A  683  15.110  13.294   7.668  0.0202  0.2788  0.0232
   43loPI   C6A  684  15.528  13.508   7.610 -0.0730  0.0732  0.0487
   43loPI   C1B  685  14.371  12.526   9.402  0.1215  0.0466 -0.0621
   43loPI   C2B  686  14.324  12.572   9.001 -0.2450  0.0726  0.2431
   43loPI   C3B  687  14.400  12.623   8.626 -0.1587  0.3402  0.0826
   43loPI   C4B  688  14.353  12.724   8.244  0.0705 -0.1040 -0.1222
   44loPI    C1  689   2.905  13.345  10.228 -0.2375  0.2289  0.0581
   44loPI    C2  690   3.191  13.147  10.424 -0.3850  0.0741  0.1202
   44loPI    C3  691   2.924  12.946  10.205 -0.3655  0.2279 -0.0466
   44loPI   PO4  692   2.964  13.500  10.077 -0.1548 -0.0651  0.1490
   44loPI   GL1  693   3.122  13.702   9.699  0.0514 -0.3049  0.2722
   44loPI   GL2  694   2.767  13.633   9.618 -0.0610 -0.0341 -0.2806
   44loPI   C1A  695   3.015  14.042   9.467 -0.0088  0.0477 -0.3864
   44loPI   C2A  696   3.094  14.151   8.996  0.0219  0.0216  0.1729
   44loPI   C3A  697   3.053  14.071   8.553 -0.0154  0.1564  0.2109
   44loPI   C4A  698   3.050  14.027   8.114 -0.4214 -0.2300  0.0695
   44loPI   C5A  699   3.194  14.030   7.749  0.1763 -0.4141  0.1866
   44loPI   C6A  700   3.438  14.393   7.669 -0.1737 -0.0168  0.2452
   44loPI   C1B  701   2.885  13.642   9.189 -0.1954 -0.1128  0.4794
   44loPI   C2B  702   2.867  13.648   8.709  0.1910  0.0944 -0.0171
   44loPI   C3B  703   2.892  13.509   8.345  0.1071 -0.1015 -0.0047
   44loPI   C4B  704   2.833  13.492   7.893 -0.1998 -0.1467 -0.1068
   45loPI    C1  705   3.848   7.903  10.718 -0.1587 -0.0287 -0.0615
   45loPI    C2  706   3.667   8.257  10.761 -0.1679 -0.0314 -0.0777
   45loPI    C3  707   4.006   8.180  10.959 -0.1680 -0.0150 -0.0712
   45loPI   PO4  708   3.661   7.794  10.539  0.1096 -0.0319  0.2023
   45loPI   GL1  709   3.538   7.837  10.110 -0.2542 -0.1234 -0.1279
   45loPI   GL2  710   3.782   8.100  10.132  0.0913  0.3766  0.0916
   45loPI   C1A  711   3.540   7.681   9.588 -0.1515  0.0925 -0.1217
   45loPI   C2A  712   3.351   7.537   9.254 -0.2142  0.2649 -0.2527
   45loPI   C3A  713   3.316   7.456   8.929 -0.2769  0.0806  0.4176
   45loPI   C4A  714   3.227   7.372   8.491  0.0337  0.0187  0.0373
   45loPI   C5A  715   3.217   7.133   8.293  0.0638  0.1561 -0.0237
   45loPI   C6A  716   3.033   7.067   7.932  0.2068 -0.1051  0.2871
   45loPI   C1B  717   3.438   8.140   9.725  0.1258  0.2116  0.0263
   45loPI   C2B  718   3.434   8.084   9.416 -0.0766  0.0177 -0.1826
   45loPI   C3B  719   3.478   8.011   8.983  0.1437  0.5213 -0.2687
   45loPI   C4B  720   3.471   7.928   8.574 -0.1309  0.1704  0.2717
   46loPI    C1  721  12.562  15.759  10.572  0.1256 -0.1430  0.0979
   46loPI    C2  722  12.869  15.717  10.825  0.2257 -0.4248 -0.0653
   46loPI    C3  723  12.509  15.821  10.964  0.3880 -0.1066  0.1299
   46loPI   PO4  724  12.602  15.573  10.377 -0.0985 -0.0425  0.1217
   46loPI   GL1  725  12.517  15.659   9.969 -0.3498 -0.1791  0.0119
   46loPI   GL2  726  12.645  15.951   9.831  0.1757 -0.0845  0.0792
   46loPI   C1A  727  12.882  15.518   9.711 -0.1733 -0.1301  0.0605
   46loPI   C2A  728  13.069  15.577   9.306  0.3251 -0.3847 -0.0267
   46loPI   C3A  729  13.186  15.594   8.894  0.1085 -0.0215  0.1274
   46loPI   C4A  730  13.332  15.697   8.410  0.3537 -0.2361 -0.1910
   46loPI   C5A  731  13.492  16.062   8.211 -0.2534 -0.0289 -0.0914
   46loPI   C6A  732  13.722  16.361   8.040  0.1675 -0.0655 -0.1263
   46loPI   C1B  733  12.735  15.957   9.336  0.1018  0.0876 -0.0335
   46loPI   C2B  734  12.997  16.052   9.013  0.0376  0.3293  0.1604
   46loPI   C3B  735  13.329  16.120   8.734  0.0604  0.0310  0.0256
   46loPI   C4B  736  13.387  16.479   8.485 -0.3309 -0.0597  0.3534
   47loPI    C1  737   5.123   4.789  10.811  0.0313  0.0553  0.1221
   47loPI    C2  738   4.865   4.647  11.081 -0.0221  0.0337  0.0599
   47loPI    C3  739   5.234   4.750  11.193 -0.0880  0.1561  0.1677
   47loPI   PO4  740   5.036   4.733  10.594 -0.0835  0.1677  0.0286
   47loPI   GL1  741   4.991   4.446  10.220  0.0219 -0.1586 -0.1379
   47loPI   GL2  742   4.777   4.211  10.051 -0.2548  0.2155 -0.1363
   47loPI   C1A  743   4.910   4.654   9.773  0.1149 -0.3361 -0.0004
   47loPI   C2A  744   5.057   4.685   9.404 -0.3555  0.2428 -0.2340
   47loPI   C3A  745   5.124   4.671   9.011  0.1792  0.0375  0.2811
   47loPI   C4A  746   5.266   4.783   8.626 -0.0621  0.1357 -0.1690
   47loPI   C5A  747   5.344   4.938   8.198  0.0344 -0.1056  0.0305
   47loPI   C6A  748   5.226   4.790   7.845  0.2278 -0.2245 -0.2561
   47loPI   C1B  749   4.992   4.211   9.577  0.1056  0.3786  0.1763
   47loPI   C2B  750   4.861   4.111   9.096 -0.0853 -0.0073  0.4390
   47loPI   C3B  751   4.793   4.006   8.642  0.0171  0.0665  0.1052
   47loPI   C4B  752   4.935   3.889   8.297 -0.0679  0.0603 -0.0868
   48loPI    C1  753  17.920   3.822  10.459 -0.0050  0.0268 -0.0160
   48loPI    C2  754  18.184   3.864  10.757 -0.0006 -0.2864  0.0276
   48loPI    C3  755  18.050   4.187  10.561  0.0814 -0.0878  0.2931
   48loPI   PO4  756  17.995   3.680  10.264 -0.0048 -0.1978 -0.0067
   48loPI   GL1  757  18.080   3.818   9.750 -0.1509  0.0764  0.0841
   48loPI   GL2  758  17.990   3.501   9.673 -0.2755  0.1597 -0.1411
   48loPI   C1A  759  18.288   4.039   9.494  0.1111  0.2496  0.4149
   48loPI   C2A  760  18.395   3.878   9.020  0.3994 -0.1042  0.2622
   48loPI   C3A  761  18.318   3.635   8.696 -0.0901  0.0383 -0.0444
   48loPI   C4A  762  18.127   3.759   8.395  0.2837 -0.0393  0.1788
   48loPI   C5A  763  17.993   4.032   8.066 -0.1100 -0.0292 -0.0733
   48loPI   C6A  764  17.966   4.371   7.875 -0.1687  0.0108  0.0614
   48loPI   C1B  765  17.994   3.624   9.269 -0.0624  0.1599  0.0273
   48loPI   C2B  766  17.856   3.617   8.874 -0.1097 -0.2441 -0.1571
   48loPI   C3B  767  17.660   3.639   8.405  0.2189  0.0356 -0.4014
   48loPI   C4B  768  17.447   3.705   8.098 -0.2219  0.0578 -0.1574
   49loPI    C1  769   6.433   3.207  10.540  0.0855 -0.0132  0.2766
   49loPI    C2  770   6.239   3.467  10.773 -0.0886 -0.0414  0.1645
   49loPI    C3  771   6.094   3.097  10.723 -0.0809 -0.0188 -0.0296
   49loPI   PO4  772   6.488   3.357  10.325 -0.1230 -0.2399  0.1403
   49loPI   GL1  773   6.404   3.515   9.946 -0.0194  0.1357 -0.0338
   49loPI   GL2  774   6.601   3.382   9.711  0.2259  0.1159 -0.2409
   49loPI   C1A  775   6.263   3.758   9.685 -0.1759 -0.0763 -0.0577
   49loPI   C2A  776   6.280   3.873   9.360 -0.0389 -0.3324  0.0330
   49loPI   C3A  777   6.310   3.777   9.060  0.1255 -0.0255 -0.1160
   49loPI   C4A  778   6.522   3.809   8.581 -0.0753 -0.0506  0.0152
   49loPI   C5A  779   6.566   4.047   8.244  0.5240  0.0851  0.0054
   49loPI   C6A  780   6.653   3.909   7.946  0.1071 -0.0192  0.2215
   49loPI   C1B  781   6.564   3.402   9.240 -0.1436  0.5931 -0.0379
   49loPI   C2B  782   6.676   3.405   8.892 -0.0129  0.0383 -0.0767
   49loPI   C3B  783   6.761   3.343   8.575 -0.1227  0.2816 -0.0745
   49loPI   C4B  784   6.536   3.418   8.211  0.1319 -0.1494 -0.1039
   50loPI    C1  785  11.409   8.923  10.270  0.1094 -0.1041  0.1223
   50loPI    C2  786  11.217   9.029  10.605 -0.1751  0.4180 -0.1916
   50loPI    C3  787  11.586   9.166  10.534 -0.0485  0.1736 -0.0229
   50loPI   PO4  788  11.210   8.899  10.099 -0.0848  0.1510  0.0177
   50loPI   GL1  789  11.204   9.033   9.703  0.1043  0.1052 -0.2399
   50loPI   GL2  790  10.906   9.304   9.766  0.0094 -0.1767  0.0483
   50loPI   C1A  791  11.250   8.702   9.329  0.2617 -0.0174 -0.2347
   50loPI   C2A  792  11.314   8.621   8.865 -0.0005  0.1052 -0.1147
   50loPI   C3A  793  11.331   8.632   8.468 -0.5150 -0.0538 -0.0085
   50loPI   C4A  794  11.458   8.648   8.032 -0.0265 -0.0261 -0.1093
   50loPI   C5A  795  11.519   8.295   7.793 -0.0617 -0.2663 -0.2500
   50loPI   C6A  796  11.893   8.046   8.008  0.0505  0.0704 -0.1786
   50loPI   C1B  797  10.767   9.278   9.263 -0.2406 -0.0495 -0.1748
   50loPI   C2B  798  10.714   9.305   8.886  0.2288  0.2423 -0.0085
   50loPI   C3B  799  10.755   9.511   8.425  0.2174 -0.0163  0.2121
   50loPI   C4B  800  10.666   9.882   8.187  0.2880 -0.1135 -0.4295
   51loPI    C1  801   9.979  17.786  10.604 -0.1071  0.1818 -0.1811
   51loPI    C2  802   9.732  17.693  10.904  0.2644  0.0939  0.1046
   51loPI    C3  803  10.116  17.776  10.979  0.3044  0.3228 -0.3218
   51loPI   PO4  804   9.811  17.682  10.368  0.0967 -0.0935 -0.2416
   51loPI   GL1  805   9.557  17.592   9.973  0.2108  0.2719  0.0582
   51loPI   GL2  806   9.654  17.921   9.916  0.1697 -0.1445  0.0220
   51loPI   C1A  807   9.527  17.387   9.657  0.0850  0.1450 -0.0512
   51loPI   C2A  808   9.474  17.402   9.250 -0.2751 -0.0284  0.2163
   51loPI   C3A  809   9.531  17.285   8.950  0.1470  0.3473  0.0299
   51loPI   C4A  810   9.398  17.272   8.497 -0.0865  0.0010  0.5881
   51loPI   C5A  811   9.522  17.203   8.163 -0.1624  0.0476  0.0796
   51loPI   C6A  812   9.920  17.267   8.000 -0.1506 -0.0158  0.2636
   51loPI   C1B  813   9.687  17.862   9.411 -0.1601 -0.1571 -0.0955
   51loPI   C2B  814   9.740  17.972   9.027  0.1716  0.0075  0.0849
   51loPI   C3B  815   9.614  17.711   8.657 -0.1535 -0.2635 -0.0652
   51loPI   C4B  816   9.440  17.777   8.248 -0.1362  0.4207  0.1601
   52loPI    C1  817   4.938   7.291  10.491 -0.0506  0.2962  0.0326
   52loPI    C2  818   4.559   7.393  10.565 -0.0245  0.3252  0.1288
   52loPI    C3  819   4.826   7.388  10.863 -0.0601 -0.1831  0.1610
   52loPI   PO4  820   5.009   7.378  10.301 -0.0572  0.0989 -0.1991
   52loPI   GL1  821   4.852   7.317   9.892  0.1589  0.1395 -0.2460
   52loPI   GL2  822   4.563   7.514   9.853  0.1081  0.0948  0.4568
   52loPI   C1A  823   4.798   7.146   9.494 -0.0472 -0.0631 -0.0877
   52loPI   C2A  824   4.821   7.182   9.015 -0.1885 -0.0945  0.1851
   52loPI   C3A  825   4.894   7.371   8.727  0.2260  0.1696  0.1323
   52loPI   C4A  826   4.620   7.406   8.287  0.0894 -0.1619  0.0097
   52loPI   C5A  827   4.377   7.188   7.936 -0.1375 -0.1270 -0.1293
   52loPI   C6A  828   3.945   7.095   7.694  0.0236 -0.1378 -0.3250
   52loPI   C1B  829   4.459   7.529   9.471 -0.1342  0.1269  0.1861
   52loPI   C2B  830   4.447   7.604   9.068 -0.2707 -0.1352  0.1713
   52loPI   C3B  831   4.590   7.781   8.650 -0.3163 -0.2759 -0.0106
   52loPI   C4B  832   4.593   7.852   8.194  0.1120 -0.1638 -0.0923
   53loPI    C1  833   4.854  16.387  10.171 -0.0759 -0.0394  0.0679
   53loPI    C2  834   5.178  16.351  10.403 -0.1683  0.1365  0.2274
   53loPI    C3  835   5.122  16.684  10.189 -0.1211  0.0052  0.0077
   53loPI   PO4  836   4.864  16.205  10.006  0.0061 -0.0545 -0.1025
   53loPI   GL1  837   5.265  16.104   9.798  0.2311  0.3173  0.0498
   53loPI   GL2  838   5.336  16.365   9.881 -0.1900  0.2468  0.1771
   53loPI   C1A  839   5.239  16.095   9.311  0.3743  0.1403  0.1606
   53loPI   C2A  840   5.238  15.957   8.959 -0.1480 -0.2184 -0.1955
   53loPI   C3A  841   5.153  16.034   8.493 -0.2737  0.0356 -0.0327
   53loPI   C4A  842   5.268  16.176   8.094  0.1963 -0.1888  0.1553
   53loPI   C5A  843   5.286  16.331   7.773  0.2209  0.1389  0.0452
   53loPI   C6A  844   5.277  16.481   7.320  0.0516 -0.0566 -0.0539
   53loPI   C1B  845   5.369  16.551   9.547  0.3045 -0.1085  0.0950
   53loPI   C2B  846   5.407  16.544   9.156 -0.1479 -0.1559  0.1828
   53loPI   C3B  847   5.410  16.493   8.693  0.1429  0.0294  0.1008
   53loPI   C4B  848   5.617  16.404   8.347 -0.0530  0.2626  0.0011
   54loPI    C1  849   4.560  12.839  10.003  0.0328 -0.1770 -0.0721
   54loPI    C2  850   4.828  12.786  10.295  0.0688 -0.2886 -0.1249
   54loPI    C3  851   4.937  12.961   9.952 -0.0364  0.0848  0.0277
   54loPI   PO4  852   4.493  12.538   9.987 -0.0948  0.1769  0.0400
   54loPI   GL1  853   4.459  12.215   9.638 -0.0209 -0.1209 -0.0320
   54loPI   GL2  854   4.345  12.015   9.635 -0.3853  0.1583  0.0372
   54loPI   C1A  855   4.295  12.203   9.196  0.2193 -0.1526  0.1610
   54loPI   C2A  856   4.532  12.305   8.836 -0.0290 -0.2634  0.1158
   54loPI   C3A  857   4.557  12.399   8.399 -0.2946 -0.1051  0.1244
   54loPI   C4A  858   4.532  12.375   7.994 -0.0348  0.1439  0.2396
   54loPI   C5A  859   4.540  12.577   7.592  0.1940 -0.0134 -0.2408
   54loPI   C6A  860   4.268  12.562   7.254  0.0703  0.2160 -0.1129
   54loPI   C1B  861   4.019  11.785   9.371  0.0113  0.1658 -0.1685
   54loPI   C2B  862   3.859  11.662   9.069 -0.2947  0.0216  0.1224
   54loPI   C3B  863   3.786  11.519   8.604  0.2703 -0.0733  0.1259
   54loPI   C4B  864   3.777  11.490   8.147 -0.2327 -0.0030  0.2182
   55loPI    C1  865  13.874   7.724  10.139 -0.0804 -0.0548  0.2582
   55loPI    C2  866  14.060   7.390  10.023 -0.1840 -0.0614  0.1090
   55loPI    C3  867  14.118   7.533  10.391  0.3199  0.0793 -0.0180
   55loPI   PO4  868  13.847   7.784   9.961 -0.2432 -0.3750 -0.1103
   55loPI   GL1  869  13.745   8.149   9.823 -0.0578 -0.2667  0.1588
   55loPI   GL2  870  13.419   8.157   9.756 -0.1409  0.0540  0.0112
   55loPI   C1A  871  13.902   8.126   9.394 -0.0108 -0.2631 -0.1717
   55loPI   C2A  872  14.116   7.846   9.076  0.0545  0.2291  0.1296
   55loPI   C3A  873  14.137   7.834   8.744  0.0955 -0.1257 -0.2871
   55loPI   C4A  874  14.266   7.698   8.328  0.2440  0.3464  0.1438
   55loPI   C5A  875  14.657   7.463   8.304 -0.0890  0.0108  0.0198
   55loPI   C6A  876  15.134   7.555   8.362 -0.0174 -0.0191  0.0509
   55loPI   C1B  877  13.429   8.262   9.448 -0.4147  0.3495  0.0892
   55loPI   C2B  878  13.418   8.198   9.084  0.0250 -0.2623 -0.1357
   55loPI   C3B  879  13.445   8.243   8.610 -0.2313  0.1473  0.0490
   55loPI   C4B  880  13.268   8.228   8.233 -0.1416  0.0120  0.1713
   56loPI    C1  881  15.910  11.543  10.595 -0.0010 -0.0210  0.1755
   56loPI    C2  882  15.862  11.874  10.815 -0.1385  0.0447  0.0484
   56loPI    C3  883  15.725  11.523  10.950  0.0269  0.0347  0.1932
   56loPI   PO4  884  16.162  11.644  10.453 -0.2732  0.2106 -0.2375
   56loPI   GL1  885  16.399  11.803  10.201 -0.0989 -0.3578  0.0502
   56loPI   GL2  886  16.324  12.100  10.009  0.1627  0.2031  0.2287
   56loPI   C1A  887  16.498  11.587   9.903 -0.2788  0.0194  0.1699
   56loPI   C2A  888  16.686  11.555   9.483 -0.1933 -0.1314 -0.1213
   56loPI   C3A  889  16.666  11.526   9.070 -0.0884 -0.0525  0.1663
   56loPI   C4A  890  16.684  11.438   8.639  0.0682  0.2282  0.2069
   56loPI   C5A  891  16.825  11.420   8.211  0.0398  0.0918 -0.0576
   56loPI   C6A  892  16.753  11.305   7.821  0.2436 -0.0436 -0.1105
   56loPI   C1B  893  16.474  12.045   9.599  0.1348 -0.0761 -0.3783
   56loPI   C2B  894  16.525  11.996   9.189 -0.0923 -0.2193  0.2613
   56loPI   C3B  895  16.436  11.865   8.762  0.2035  0.0753 -0.0623
   56loPI   C4B  896  16.408  11.790   8.375  0.0160 -0.0074 -0.0889
   57loPI    C1  897   2.582  10.551  10.767 -0.1324 -0.0582 -0.0024
   57loPI    C2  898   2.359  10.882  10.752 -0.0589 -0.0060  0.0508
   57loPI    C3  899   2.496  10.750  11.104 -0.0806 -0.0881  0.0286
   57loPI   PO4  900   2.493  10.438  10.499  0.0113 -0.1032 -0.1180
   57loPI   GL1  901   2.541  10.526  10.160 -0.3543  0.1839  0.1885
   57loPI   GL2  902   2.861  10.585  10.003  0.0625 -0.4805  0.0013
   57loPI   C1A  903   2.392  10.376   9.756 -0.1313 -0.0827 -0.1901
   57loPI   C2A  904   2.283  10.593   9.390 -0.0440 -0.1801 -0.0044
   57loPI   C3A  905   2.082  10.583   9.112  0.0127  0.2791 -0.1757
   57loPI   C4A  906   1.990  10.596   8.632 -0.2071 -0.0011 -0.3099
   57loPI   C5A  907   1.857  10.626   8.193  0.1677 -0.0979  0.1263
   57loPI   C6A  908   1.692  10.408   7.846 -0.1647 -0.0666  0.0211
   57loPI   C1B  909   2.883  10.615   9.696  0.1450 -0.2431  0.0669
   57loPI   C2B  910   2.758  10.525   9.385 -0.1466 -0.0970  0.0923
   57loPI   C3B  911   2.660  10.710   8.988 -0.0744  0.0093 -0.1197
   57loPI   C4B  912   2.831  10.722   8.574  0.0501  0.0759  0.5014
   58loPI    C1  913  10.686  14.735  10.156 -0.1388  0.2455 -0.2183
   58loPI    C2  914  10.702  14.820  10.547 -0.1416  0.1408 -0.1951
   58loPI    C3  915  10.457  14.533  10.414  0.2713 -0.2194 -0.2029
   58loPI   PO4  916  10.969  14.593  10.055  0.0936 -0.0756 -0.1927
   58loPI   GL1  917  10.859  14.422   9.707  0.0592 -0.3375  0.1669
   58loPI   GL2  918  10.679  14.271   9.566  0.1146  0.2227  0.0826
   58loPI   C1A  919  11.031  14.691   9.360 -0.2746  0.0697  0.0012
   58loPI   C2A  920  11.042  14.734   8.887 -0.0155 -0.1024  0.0232
   58loPI   C3A  921  11.222  14.680   8.533  0.3616 -0.2802 -0.2024
   58loPI   C4A  922  11.226  14.796   8.113 -0.2881 -0.0973 -0.1314
   58loPI   C5A  923  11.479  14.830   7.802 -0.1176  0.1949 -0.2439
   58loPI   C6A  924  11.608  14.952   7.303  0.1210  0.0630  0.0361
   58loPI   C1B  925  10.775  14.380   9.153 -0.2577  0.1030  0.0962
   58loPI   C2B  926  10.822  14.324   8.668 -0.0433 -0.0991 -0.0430
   58loPI   C3B  927  10.858  14.159   8.217  0.3113 -0.0877  0.0489
   58loPI   C4B  928  10.767  14.306   7.760 -0.1450 -0.1296  0.2879
   59loPI    C1  929   3.278  10.088  10.722 -0.2948  0.1761 -0.1966
   59loPI    C2  930   2.968  10.244  10.921 -0.1672  0.2747 -0.0725
   59loPI    C3  931   3.315  10.442  10.903 -0.0011  0.0049  0.0902
   59loPI   PO4  932   3.308  10.041  10.441  0.0388 -0.0595 -0.0236
   59loPI   GL1  933   3.168  10.088   9.984  0.1317  0.3247  0.1614
   59loPI   GL2  934   3.074   9.801  10.054 -0.0233 -0.0564  0.1600
   59loPI   C1A  935   3.022  10.164   9.583 -0.0718  0.0706  0.1571
   59loPI   C2A  936   3.107  10.207   9.155  0.1347 -0.2523 -0.4223
   59loPI   C3A  937   2.920  10.302   8.798 -0.1463  0.2168 -0.0519
   59loPI   C4A  938   2.913  10.260   8.444  0.1175 -0.3872 -0.0920
   59loPI   C5A  939   2.742  10.392   8.072  0.0651  0.1048  0.1680
   59loPI   C6A  940   2.920  10.766   7.878 -0.1207  0.0219  0.1104
   59loPI   C1B  941   2.933   9.705   9.708 -0.1956 -0.0604  0.0829
   59loPI   C2B  942   3.046   9.357   9.405 -0.2117  0.2931 -0.0387
   59loPI   C3B  943   3.171   9.277   8.907 -0.3738  0.3339  0.0458
   59loPI   C4B  944   3.310   9.179   8.561  0.2511 -0.2728 -0.0489
   60loPI    C1  945   1.512  11.469  10.380 -0.0197 -0.0160  0.0692
   60loPI    C2  946   1.574  11.163  10.630  0.0387 -0.0231  0.0464
   60loPI    C3  947   1.743  11.518  10.703  0.0548 -0.0248  0.0175
   60loPI   PO4  948   1.508  11.421  10.219  0.0555 -0.2075  0.2623
   60loPI   GL1  949   1.108  11.290   9.919 -0.0335  0.1376  0.1639
   60loPI   GL2  950   0.888  11.051   9.737  0.4320  0.1421 -0.0033
   60loPI   C1A  951   1.206  11.229   9.462 -0.0527  0.0321 -0.0837
   60loPI   C2A  952   1.261  11.161   9.011  0.3907 -0.1853  0.1404
   60loPI   C3A  953   1.245  11.369   8.619  0.0829  0.1687 -0.0878
   60loPI   C4A  954   1.065  11.770   8.580  0.1837 -0.1181  0.1854
   60loPI   C5A  955   0.902  12.178   8.622  0.2713  0.3174 -0.1167
   60loPI   C6A  956   0.800  12.409   8.197  0.2893  0.0120 -0.0279
   60loPI   C1B  957   0.784  11.031   9.241 -0.0215 -0.0141 -0.0112
   60loPI   C2B  958   0.802  11.110   8.822  0.1905 -0.0788 -0.0227
   60loPI   C3B  959   0.630  11.327   8.466 -0.1585  0.2903 -0.2647
   60loPI   C4B  960   0.495  11.258   8.087  0.2943  0.0147  0.2149
   61loPI    C1  961   9.979   5.637  11.108  0.1823 -0.1159  0.0671
   61loPI    C2  962  10.359   5.710  11.206  0.2505 -0.2558 -0.0888
   61loPI    C3  963  10.205   5.345  11.261  0.0940 -0.1613  0.1116
   61loPI   PO4  964   9.953   5.645  10.810 -0.2545 -0.2653  0.2071
   61loPI   GL1  965   9.872   5.599  10.350 -0.0138  0.1504 -0.0410
   61loPI   GL2  966   9.659   5.860  10.197  0.2490 -0.1493  0.1794
   61loPI   C1A  967  10.147   5.574  10.004 -0.1152 -0.1315  0.0723
   61loPI   C2A  968  10.123   5.500   9.544  0.0798  0.2905  0.4038
   61loPI   C3A  969  10.301   5.530   9.052 -0.1101 -0.0847 -0.1478
   61loPI   C4A  970  10.281   5.570   8.660  0.1045 -0.2148  0.0316
   61loPI   C5A  971  10.248   5.431   8.309 -0.0117  0.1577  0.0386
   61loPI   C6A  972  10.053   5.240   7.919  0.1343 -0.3641  0.0135
   61loPI   C1B  973   9.878   6.038   9.845  0.0156  0.4117 -0.3217
   61loPI   C2B  974  10.002   6.021   9.425 -0.3746 -0.0166 -0.1088
   61loPI   C3B  975  10.030   5.997   9.014  0.3046 -0.1234 -0.2062
   61loPI   C4B  976  10.029   6.188   8.568 -0.2508  0.4260 -0.0144
   62loPI    C1  977   7.517  10.414  10.723 -0.0934 -0.2486  0.1412
   62loPI    C2  978   7.663  10.077  10.565  0.1256 -0.0669 -0.0518
   62loPI    C3  979   7.528  10.079  10.942  0.0924 -0.3761 -0.0592
   62loPI   PO4  980   7.394  10.543  10.502 -0.1182 -0.2361  0.1645
   62loPI   GL1  981   7.427  10.712  10.104 -0.1281  0.0601  0.4452
   62loPI   GL2  982   7.146  10.506   9.931 -0.0480 -0.1545 -0.0844
   62loPI   C1A  983   7.420  10.846   9.660  0.1947  0.1392 -0.0248
   62loPI   C2A  984   7.352  10.586   9.220  0.2365  0.1438 -0.1965
   62loPI   C3A  985   7.347  10.285   8.864  0.3965  0.4208 -0.0339
   62loPI   C4A  986   7.269  10.217   8.515 -0.2132  0.0368 -0.1019
   62loPI   C5A  987   7.406  10.007   8.108  0.1881 -0.2213  0.0284
   62loPI   C6A  988   7.240   9.617   7.837 -0.3179 -0.1224 -0.4797
   62loPI   C1B  989   7.340  10.234   9.618  0.2358  0.3702  0.1422
   62loPI   C2B  990   7.242  10.005   9.266  0.0425  0.0868  0.0975
   62loPI   C3B  991   7.603   9.858   9.001  0.1471 -0.1124  0.1433
   62loPI   C4B  992   7.716   9.723   8.664 -0.0569 -0.2524 -0.2325
   63loPI    C1  993   3.963  13.776  10.063  0.1634  0.0598  0.0282
   63loPI    C2  994   4.354  13.858  10.057  0.1985 -0.1140 -0.2064
   63loPI    C3  995   4.087  14.156  10.054  0.3270  0.0091  0.1093
   63loPI   PO4  996   3.934  13.521   9.969  0.2903  0.1029  0.3208
   63loPI   GL1  997   3.912  13.385   9.571 -0.2455  0.0827  0.1249
   63loPI   GL2  998   3.554  13.390   9.554  0.1315 -0.2978  0.0293
   63loPI   C1A  999   3.763  13.521   9.098 -0.0414 -0.1322  0.2631
   63loPI   C2A 1000   3.780  13.479   8.719  0.2093  0.0652 -0.1267
   63loPI   C3A 1001   3.863  13.610   8.339 -0.2433  0.3020 -0.0351
   63loPI   C4A 1002   4.010  13.699   7.962 -0.3981  0.1317  0.1435
   63loPI   C5A 1003   4.207  13.834   7.643  0.2238 -0.1240 -0.0060
   63loPI   C6A 1004   4.440  13.740   7.365 -0.0790 -0.3837  0.3648
   63loPI   C1B 1005   3.256  13.261   9.277 -0.0532 -0.0626  0.1393
   63loPI   C2B 1006   3.291  13.258   8.804  0.0564 -0.0569 -0.2731
   63loPI   C3B 1007   3.368  13.198   8.347 -0.0565 -0.0090 -0.0096
   63loPI   C4B 1008   3.224  13.068   7.935 -0.2550  0.0387 -0.0884
   64loPI    C1 1009   2.064   4.491  10.209  0.1603  0.0651  0.2051
   64loPI    C2 1010   2.145   4.327  10.565  0.2755  0.3052  0.2921
   64loPI    C3 1011   1.904   4.646  10.542 -0.2358 -0.0809  0.0888
   64loPI   PO4 1012   2.009   4.233  10.056  0.2642 -0.1770  0.0026
   64loPI   GL1 1013   1.853   4.234   9.631 -0.1903 -0.1406 -0.0226
   64loPI   GL2 1014   2.202   4.287   9.596  0.0397 -0.1274  0.0834
   64loPI   C1A 1015   1.733   4.439   9.258 -0.1862  0.1581 -0.1408
   64loPI   C2A 1016   1.734   4.528   8.858  0.1292  0.0622 -0.0615
   64loPI   C3A 1017   1.985   4.306   8.464 -0.1844 -0.1750 -0.4294
   64loPI   C4A 1018   2.178   3.953   8.259 -0.0197  0.0336 -0.0199
   64loPI   C5A 1019   2.003   3.655   8.068 -0.5111 -0.0670 -0.3592
   64loPI   C6A 1020   1.587   3.483   8.219  0.0950 -0.0441 -0.2345
   64loPI   C1B 1021   2.228   4.246   9.088  0.2007 -0.1569 -0.0299
   64loPI   C2B 1022   2.164   3.982   8.840 -0.1586  0.1080  0.1125
   64loPI   C3B 1023   1.826   3.690   8.605 -0.0750 -0.1036 -0.1175
   64loPI   C4B 1024   1.287   3.624   8.589  0.0569 -0.1556  0.0543
   65loPI    C1 1025   1.822   3.249  10.417  0.3245  0.2809 -0.0032
   65loPI    C2 1026   1.808   3.372  10.037 -0.0294  0.1537 -0.0344
   65loPI    C3 1027   1.530   3.495  10.298  0.2921  0.3541  0.2213
   65loPI   PO4 1028   1.888   2.917  10.350 -0.0249 -0.1836 -0.0278
   65loPI   GL1 1029   2.072   2.810   9.936 -0.0735  0.2826 -0.0150
   65loPI   GL2 1030   2.367   2.930   9.881 -0.1291  0.0593 -0.1440
   65loPI   C1A 1031   1.614   2.574   9.806 -0.0616 -0.0569 -0.0603
   65loPI   C2A 1032   1.584   2.275   9.353  0.0114  0.0411 -0.0631
   65loPI   C3A 1033   1.403   2.416   8.959  0.0252 -0.2945 -0.1717
   65loPI   C4A 1034   1.371   2.350   8.550  0.2021  0.0761  0.2789
   65loPI   C5A 1035   1.394   2.552   8.238  0.2708 -0.0200  0.1437
   65loPI   C6A 1036   1.574   2.583   7.845 -0.4044  0.2814 -0.0219
   65loPI   C1B 1037   2.273   2.813   9.466  0.1270 -0.1147  0.3466
   65loPI   C2B 1038   2.192   2.982   9.156 -0.3212  0.2987 -0.1654
   65loPI   C3B 1039   2.073   3.222   8.742 -0.1520 -0.0057  0.0016
   65loPI   C4B 1040   1.830   3.128   8.437  0.1670  0.0638  0.1085
   66loPI    C1 1041  10.582   4.028  10.614  0.0818  0.0542  0.0845
   66loPI    C2 1042  10.533   3.678  10.427 -0.0220  0.1383 -0.0471
   66loPI    C3 1043  10.380   3.731  10.792 -0.1181  0.0893 -0.0798
   66loPI   PO4 1044  10.807   4.108  10.505 -0.0409 -0.2976 -0.1717
   66loPI   GL1 1045  10.989   4.064  10.150  0.1803 -0.0997  0.2247
   66loPI   GL2 1046  11.034   3.814  10.160  0.0236  0.0259  0.1953
   66loPI   C1A 1047  10.914   4.174   9.673  0.1132  0.0138 -0.1966
   66loPI   C2A 1048  10.930   4.111   9.197  0.0116  0.2103 -0.2233
   66loPI   C3A 1049  10.894   4.102   8.719  0.0564 -0.1063  0.0710
   66loPI   C4A 1050  10.852   4.095   8.314  0.2028  0.1566 -0.1975
   66loPI   C5A 1051  10.433   3.982   7.998 -0.2164 -0.0829  0.1331
   66loPI   C6A 1052  10.007   3.869   7.743 -0.3478  0.1237  0.3186
   66loPI   C1B 1053  10.702   3.692   9.871 -0.1888  0.0705 -0.0136
   66loPI   C2B 1054  10.641   3.686   9.503 -0.2428 -0.4144 -0.1247
   66loPI   C3B 1055  10.661   3.683   9.032 -0.2335 -0.0963 -0.0851
   66loPI   C4B 1056  10.598   3.724   8.533  0.1719  0.0159 -0.3854
   67loPI    C1 1057  11.787  12.099  10.174 -0.0183 -0.4660  0.1136
   67loPI    C2 1058  12.045  12.298  10.405  0.1540 -0.2582 -0.2479
   67loPI    C3 1059  11.665  12.421  10.377  0.1263 -0.2977 -0.0623
   67loPI   PO4 1060  11.798  11.996   9.900  0.1337 -0.1010 -0.0024
   67loPI   GL1 1061  11.759  12.177   9.462  0.0133  0.0175 -0.1928
   67loPI   GL2 1062  11.499  12.099   9.507  0.1732  0.4022 -0.0540
   67loPI   C1A 1063  11.792  12.263   9.036  0.1956 -0.0156 -0.3365
   67loPI   C2A 1064  11.930  12.096   8.618 -0.0072  0.1189 -0.1282
   67loPI   C3A 1065  12.071  11.730   8.383  0.0316  0.0563 -0.3266
   67loPI   C4A 1066  12.341  11.478   8.185  0.1594 -0.0065 -0.6069
   67loPI   C5A 1067  12.515  11.216   7.873  0.3165  0.2552  0.0108
   67loPI   C6A 1068  12.697  10.945   7.476  0.0908 -0.2506 -0.0692
   67loPI   C1B 1069  11.357  12.014   9.075 -0.0292  0.3007  0.1461
   67loPI   C2B 1070  11.432  12.034   8.728 -0.1335  0.1959  0.2441
   67loPI   C3B 1071  11.525  11.805   8.401  0.0933  0.1158  0.3518
   67loPI   C4B 1072  11.680  11.885   8.017  0.0125 -0.1260  0.1486
   68loPI    C1 1073  11.690  10.759   9.981  0.0767 -0.0621  0.0236
   68loPI    C2 1074  12.034  10.580   9.881  0.0063 -0.0330 -0.2804
   68loPI    C3 1075  11.962  10.956   9.764  0.0896  0.1490  0.2278
   68loPI   PO4 1076  11.401  10.594   9.932 -0.0138  0.0560  0.0548
   68loPI   GL1 1077  11.265  10.747   9.605 -0.1438  0.2008 -0.0408
   68loPI   GL2 1078  11.571  10.618   9.447  0.4899 -0.3219 -0.0581
   68loPI   C1A 1079  11.141  10.619   9.227 -0.3610 -0.0751  0.2126
   68loPI   C2A 1080  11.094  10.632   8.738  0.0672  0.0242 -0.0421
   68loPI   C3A 1081  11.205  10.613   8.406 -0.1187 -0.0967 -0.1422
   68loPI   C4A 1082  11.048  10.647   8.009  0.1916  0.2557  0.1239
   68loPI   C5A 1083  10.669  10.500   7.883  0.0370  0.0911 -0.1094
   68loPI   C6A 1084  10.474  10.835   7.589 -0.0143 -0.0651  0.0060
   68loPI   C1B 1085  11.627  10.643   9.134  0.1544  0.0280  0.1218
   68loPI   C2B 1086  11.563  10.771   8.752 -0.0496 -0.0508  0.3326
   68loPI   C3B 1087  11.484  10.993   8.347  0.0687  0.0884 -0.1218
   68loPI   C4B 1088  11.367  11.081   7.932 -0.2416 -0.0202  0.4633
   69loPI    C1 1089   6.636   1.251  10.538  0.2093 -0.0369  0.3128
   69loPI    C2 1090   6.505   1.621  10.614 -0.0897 -0.0961  0.1040
   69loPI    C3 1091   6.348   1.309  10.810 -0.0648 -0.1423  0.0507
   69loPI   PO4 1092   6.651   1.273  10.247  0.3836  0.1653 -0.0507
   69loPI   GL1 1093   6.839   1.545   9.982 -0.0848 -0.1600 -0.0065
   69loPI   GL2 1094   7.173   1.648   9.823  0.4530  0.2980 -0.2530
   69loPI   C1A 1095   6.549   1.592   9.623  0.0413  0.0165 -0.2559
   69loPI   C2A 1096   6.489   1.576   9.178 -0.0787  0.1900 -0.0376
   69loPI   C3A 1097   6.345   1.642   8.728  0.0723  0.1061 -0.0184
   69loPI   C4A 1098   6.228   1.587   8.299  0.0345  0.0463  0.2236
   69loPI   C5A 1099   6.153   1.224   8.090  0.1299  0.3707 -0.2288
   69loPI   C6A 1100   5.999   0.804   8.041  0.0357 -0.0444  0.0857
   69loPI   C1B 1101   7.445   1.574   9.477 -0.2177  0.2195 -0.0204
   69loPI   C2B 1102   7.435   1.519   9.101 -0.3244  0.1383  0.3869
   69loPI   C3B 1103   7.457   1.506   8.701  0.1065 -0.0047  0.1055
   69loPI   C4B 1104   7.061   1.387   8.335 -0.3899  0.1750  0.3981
   70loPI    C1 1105   0.038  13.749  10.398 -0.0238 -0.1777 -0.1175
   70loPI    C2 1106   0.343  13.699  10.653 -0.0049  0.0103 -0.1019
   70loPI    C3 1107   0.042  13.945  10.747 -0.0413  0.0130 -0.2235
   70loPI   PO4 1108   0.090  13.854  10.172 -0.1245  0.0046 -0.0271
   70loPI   GL1 1109   0.046  13.771   9.727 -0.1944  0.0979 -0.2739
   70loPI   GL2 1110  -0.259  13.760   9.809  0.3467 -0.0111 -0.3868
   70loPI   C1A 1111   0.056  13.548   9.380  0.1059 -0.0096  0.1440
   70loPI   C2A 1112   0.169  13.495   8.899  0.0163 -0.1905 -0.1792
   70loPI   C3A 1113   0.349  13.330   8.438 -0.2593 -0.0132 -0.0691
   70loPI   C4A 1114   0.320  13.136   8.060 -0.2919  0.1695  0.4977
   70loPI   C5A 1115   0.464  12.712   7.849 -0.0605  0.0877  0.0637
   70loPI   C6A 1116   0.822  12.653   7.669 -0.0766 -0.2356 -0.3721
   70loPI   C1B 1117  -0.392  13.742   9.413 -0.1449 -0.0176  0.1144
   70loPI   C2B 1118  -0.492  13.590   9.019  0.1327  0.0322 -0.0611
   70loPI   C3B 1119  -0.468  13.530   8.606  0.0781  0.1606  0.0765
   70loPI   C4B 1120  -0.481  13.457   8.133  0.0694  0.3258  0.1900
   71loPI    C1 1121   5.329  18.226  10.522  0.0891 -0.0639 -0.0011
   71loPI    C2 1122   5.087  18.199  10.839 -0.0126 -0.0578 -0.0775
   71loPI    C3 1123   5.030  18.487  10.568  0.0749 -0.0623 -0.1010
   71loPI   PO4 1124   5.456  18.034  10.374 -0.1427 -0.3223  0.1342
   71loPI   GL1 1125   5.552  18.256  10.017  0.0163 -0.4010  0.0151
   71loPI   GL2 1126   5.684  18.502   9.868 -0.0939  0.4083 -0.0777
   71loPI   C1A 1127   5.304  18.258   9.617  0.1153  0.1686 -0.0422
   71loPI   C2A 1128   5.362  18.215   9.263  0.2726 -0.0879 -0.0907
   71loPI   C3A 1129   5.349  18.304   8.823 -0.0443  0.1644  0.0678
   71loPI   C4A 1130   5.386  18.442   8.430 -0.0340  0.2602 -0.0658
   71loPI   C5A 1131   5.342  18.507   8.061  0.2564 -0.0090 -0.0794
   71loPI   C6A 1132   5.276  18.361   7.642 -0.2843 -0.3570 -0.0230
   71loPI   C1B 1133   5.802  18.325   9.474 -0.4173  0.3125  0.2157
   71loPI   C2B 1134   5.845  18.349   9.088  0.0769  0.1713  0.2008
   71loPI   C3B 1135   5.852  18.218   8.674  0.1005 -0.1686 -0.4203
   71loPI   C4B 1136   5.808  18.334   8.228  0.1441 -0.1595  0.1269
   72loPI    C1 1137  12.567  13.570  10.368 -0.0391  0.2285 -0.0408
   72loPI    C2 1138  12.660  13.811  10.673 -0.0340  0.4436 -0.2100
   72loPI    C3 1139  12.359  13.550  10.709  0.1584  0.2557  0.0828
   72loPI   PO4 1140  12.584  13.628  10.095 -0.1638  0.1793 -0.1121
   72loPI   GL1 1141  12.374  13.610   9.729 -0.3185 -0.0584 -0.0232
   72loPI   GL2 1142  12.198  13.451   9.568 -0.0080  0.2319 -0.0606
   72loPI   C1A 1143  12.641  13.713   9.391  0.2736 -0.3016  0.1851
   72loPI   C2A 1144  12.647  13.743   8.980  0.1540 -0.3654  0.2602
   72loPI   C3A 1145  12.603  13.783   8.577 -0.1228  0.0427  0.3257
   72loPI   C4A 1146  12.375  13.615   8.183 -0.4168 -0.1404 -0.1174
   72loPI   C5A 1147  12.325  13.808   7.790 -0.0281 -0.0171  0.0456
   72loPI   C6A 1148  11.827  13.949   7.679 -0.0078 -0.0132 -0.0803
   72loPI   C1B 1149  12.297  13.350   9.257 -0.1973 -0.0777 -0.0027
   72loPI   C2B 1150  12.308  13.322   8.898 -0.1530  0.0785  0.0059
   72loPI   C3B 1151  12.384  13.214   8.488 -0.2582 -0.0209 -0.1053
   72loPI   C4B 1152  12.175  13.002   8.154  0.0415  0.0303 -0.1020
   73loPI    C1 1153   7.519  11.190  10.108  0.0669 -0.1006 -0.0184
   73loPI    C2 1154   7.433  11.453  10.397  0.2718 -0.0871  0.0322
   73loPI    C3 1155   7.441  11.061  10.479 -0.1274 -0.1199 -0.0650
   73loPI   PO4 1156   7.692  11.289   9.993  0.1069  0.1300  0.2003
   73loPI   GL1 1157   7.835  11.192   9.594  0.1203 -0.3151  0.1568
   73loPI   GL2 1158   8.186  11.212   9.672  0.0680 -0.1797 -0.1030
   73loPI   C1A 1159   7.635  11.038   9.249 -0.2616 -0.2905 -0.2965
   73loPI   C2A 1160   7.449  10.839   8.862 -0.1655  0.2270 -0.0462
   73loPI   C3A 1161   7.300  10.744   8.412  0.0761  0.3488 -0.2493
   73loPI   C4A 1162   7.309  10.518   8.042  0.0260 -0.2440  0.2852
   73loPI   C5A 1163   7.590  10.518   7.614 -0.0518 -0.3229  0.0860
   73loPI   C6A 1164   7.878  10.696   7.383 -0.1911  0.1921 -0.1308
   73loPI   C1B 1165   8.179  11.004   9.302  0.0452  0.0325 -0.2113
   73loPI   C2B 1166   8.148  10.996   8.827  0.2856  0.0928  0.4216
   73loPI   C3B 1167   7.847  10.821   8.529  0.0463 -0.3222 -0.0399
   73loPI   C4B 1168   7.758  10.701   8.177  0.0734 -0.0632 -0.3732
   74loPI    C1 1169   6.674   2.782  10.474 -0.1184 -0.0111  0.1095
   74loPI    C2 1170   6.511   2.732  10.836  0.0612  0.1652  0.2167
   74loPI    C3 1171   6.902   2.810  10.801  0.0244  0.2578 -0.0093
   74loPI   PO4 1172   6.650   2.526  10.318 -0.0022 -0.1173 -0.0447
   74loPI   GL1 1173   6.623   2.479   9.929  0.1026 -0.2478 -0.2871
   74loPI   GL2 1174   6.949   2.619   9.732  0.2163 -0.2763 -0.2327
   74loPI   C1A 1175   6.638   2.468   9.432 -0.0904 -0.1655 -0.0968
   74loPI   C2A 1176   6.787   2.512   9.073 -0.3355 -0.1983  0.1583
   74loPI   C3A 1177   6.721   2.572   8.679 -0.0328 -0.0404  0.0212
   74loPI   C4A 1178   6.713   2.491   8.242 -0.0669  0.0859 -0.1480
   74loPI   C5A 1179   6.668   2.118   7.946 -0.1234 -0.0687 -0.0521
   74loPI   C6A 1180   6.665   1.913   7.564 -0.1289  0.3932  0.1617
   74loPI   C1B 1181   6.899   2.899   9.462 -0.1446 -0.1447  0.0276
   74loPI   C2B 1182   6.922   3.001   8.932 -0.1523  0.0713 -0.1094
   74loPI   C3B 1183   7.024   2.869   8.433  0.2082 -0.2056  0.0237
   74loPI   C4B 1184   6.928   2.834   8.001 -0.1385  0.0089 -0.0995
   75loPI    C1 1185  16.633   0.964  10.423  0.3373 -0.1358 -0.0342
   75loPI    C2 1186  16.709   0.585  10.322  0.0818 -0.2836  0.3076
   75loPI    C3 1187  16.793   0.714  10.691  0.1306 -0.0166  0.2055
   75loPI   PO4 1188  16.790   1.075  10.247  0.2840  0.1372 -0.1705
   75loPI   GL1 1189  16.603   0.987   9.879 -0.2853  0.0166 -0.1695
   75loPI   GL2 1190  16.776   0.687   9.838  0.0659 -0.1952 -0.1986
   75loPI   C1A 1191  16.725   1.070   9.466  0.1706  0.2069  0.0196
   75loPI   C2A 1192  16.804   0.924   9.048  0.1537 -0.0389 -0.1931
   75loPI   C3A 1193  16.675   0.823   8.746  0.0763  0.0619  0.1284
   75loPI   C4A 1194  16.483   0.455   8.372 -0.3587  0.1167 -0.2796
   75loPI   C5A 1195  16.284   0.282   7.984 -0.2236 -0.0891  0.0325
   75loPI   C6A 1196  16.374   0.275   7.589  0.3191  0.0924 -0.0510
   75loPI   C1B 1197  16.513   0.622   9.438 -0.2168  0.0349  0.0458
   75loPI   C2B 1198  16.294   0.497   8.944  0.1281 -0.1095 -0.1813
   75loPI   C3B 1199  16.045   0.443   8.577  0.0551 -0.1078  0.0228
   75loPI   C4B 1200  15.769   0.537   8.204 -0.0773 -0.1752 -0.2670
   76loPI    C1 1201   8.847  17.445  10.496 -0.1922  0.2514 -0.0908
   76loPI    C2 1202   8.951  17.831  10.498 -0.1117  0.2295  0.0154
   76loPI    C3 1203   8.732  17.682  10.797  0.1241  0.1217  0.1378
   76loPI   PO4 1204   8.783  17.330  10.227  0.0296 -0.0603 -0.0336
   76loPI   GL1 1205   9.118  17.217   9.922  0.1863  0.3989  0.0387
   76loPI   GL2 1206   8.984  17.171   9.738  0.1732 -0.2013 -0.1833
   76loPI   C1A 1207   9.429  16.886   9.655 -0.1468 -0.2201  0.0398
   76loPI   C2A 1208   9.458  16.896   9.207 -0.0622  0.0142 -0.0915
   76loPI   C3A 1209   9.390  16.824   8.739 -0.1133  0.0308  0.1394
   76loPI   C4A 1210   9.482  16.724   8.316  0.2263  0.2546 -0.4765
   76loPI   C5A 1211   9.773  16.770   7.998 -0.0510 -0.0834  0.2738
   76loPI   C6A 1212  10.060  16.890   7.655 -0.0624  0.1129  0.0942
   76loPI   C1B 1213   9.060  17.166   9.398  0.2343 -0.2746 -0.3441
   76loPI   C2B 1214   9.054  17.085   8.956  0.1348  0.0522  0.0691
   76loPI   C3B 1215   8.917  17.237   8.491  0.0713 -0.0198 -0.0346
   76loPI   C4B 1216   9.013  17.491   8.116 -0.0110  0.0034 -0.0259
   77loPI    C1 1217   6.741   9.793  10.340  0.1486  0.2453 -0.0034
   77loPI    C2 1218   6.752   9.979  10.694  0.1286 -0.1068  0.1870
   77loPI    C3 1219   6.624   9.601  10.671 -0.1901  0.0202 -0.2477
   77loPI   PO4 1220   6.782   9.966  10.112 -0.2180  0.0544 -0.0395
   77loPI   GL1 1221   6.899   9.913   9.757 -0.1435  0.2086  0.0516
   77loPI   GL2 1222   7.204   9.911   9.938  0.1671 -0.1208  0.1271
   77loPI   C1A 1223   6.792  10.199   9.510 -0.0525 -0.1571  0.1827
   77loPI   C2A 1224   6.878  10.445   9.163  0.3516 -0.0874  0.1648
   77loPI   C3A 1225   6.843  10.442   8.751  0.0502  0.1234 -0.1140
   77loPI   C4A 1226   6.803  10.465   8.216 -0.2784  0.0738  0.2674
   77loPI   C5A 1227   6.437  10.647   8.098 -0.0195  0.1206  0.2824
   77loPI   C6A 1228   6.086  10.819   7.821 -0.2173  0.0739 -0.0337
   77loPI   C1B 1229   7.295   9.642   9.561  0.0461  0.1776 -0.3288
   77loPI   C2B 1230   7.167   9.533   9.218  0.1213  0.1489 -0.0756
   77loPI   C3B 1231   7.149   9.466   8.851 -0.1190  0.0583  0.0626
   77loPI   C4B 1232   6.895   9.420   8.464 -0.0464 -0.0749  0.2593
   78loPI    C1 1233  13.253   6.517  10.833 -0.1063 -0.0227  0.2408
   78loPI    C2 1234  12.965   6.763  10.962 -0.0531  0.0973  0.1335
   78loPI    C3 1235  13.334   6.790  11.113  0.0106  0.2420 -0.0453
   78loPI   PO4 1236  13.154   6.515  10.566  0.0234  0.2182 -0.1388
   78loPI   GL1 1237  13.098   6.478  10.097  0.1252 -0.1140 -0.2150
   78loPI   GL2 1238  13.094   6.168   9.996 -0.0228 -0.1542  0.1082
   78loPI   C1A 1239  13.001   6.806   9.714 -0.1553  0.0064  0.1383
   78loPI   C2A 1240  13.001   6.966   9.269 -0.1720 -0.2456 -0.0993
   78loPI   C3A 1241  12.995   6.919   8.907 -0.1101  0.1783  0.0021
   78loPI   C4A 1242  12.750   6.876   8.498  0.2611 -0.2887  0.3287
   78loPI   C5A 1243  12.596   6.902   8.181  0.1324 -0.2779 -0.3455
   78loPI   C6A 1244  12.376   6.964   7.825  0.1875  0.0375 -0.0957
   78loPI   C1B 1245  13.106   6.309   9.654 -0.0182  0.0648  0.0601
   78loPI   C2B 1246  13.022   6.328   9.222 -0.4997 -0.1227  0.2093
   78loPI   C3B 1247  13.045   6.305   8.815  0.2196 -0.0873  0.0197
   78loPI   C4B 1248  12.997   6.393   8.352  0.1919 -0.1705 -0.0177
   79loPI    C1 1249   0.107   5.432  10.564 -0.0472  0.2533  0.0313
   79loPI    C2 1250   0.507   5.433  10.556 -0.0434 -0.1041 -0.0250
   79loPI    C3 1251   0.313   5.564  10.881  0.1137  0.1855 -0.0435
   79loPI   PO4 1252   0.016   5.485  10.342 -0.1700 -0.0905  0.1474
   79loPI   GL1 1253   0.343   5.668  10.071 -0.2228 -0.0551 -0.0987
   79loPI   GL2 1254   0.625   5.447  10.043 -0.0947  0.2378  0.2009
   79loPI   C1A 1255   0.598   5.897   9.825  0.4345 -0.1569  0.0322
   79loPI   C2A 1256   0.517   6.014   9.421 -0.2134 -0.0772 -0.0128
   79loPI   C3A 1257   0.544   6.076   9.041 -0.0834  0.0578  0.1833
   79loPI   C4A 1258   0.629   6.131   8.752 -0.0890 -0.0661 -0.2688
   79loPI   C5A 1259   0.513   5.876   8.369  0.3060  0.2035 -0.1676
   79loPI   C6A 1260   0.462   5.486   8.141  0.4584  0.0577  0.1713
   79loPI   C1B 1261   0.421   5.485   9.583 -0.1828 -0.2554 -0.1076
   79loPI   C2B 1262   0.242   5.662   9.124  0.0890  0.0425  0.0680
   79loPI   C3B 1263  -0.245   5.684   8.993 -0.2325  0.0528  0.2035
   79loPI   C4B 1264  -0.616   5.725   9.240 -0.3351 -0.0343  0.5167
   80loPI    C1 1265   7.096  15.943  10.029 -0.0887 -0.0888  0.0157
   80loPI    C2 1266   6.745  16.128  10.081 -0.1026 -0.0669 -0.1518
   80loPI    C3 1267   6.897  15.902  10.374 -0.1208  0.1494  0.0268
   80loPI   PO4 1268   7.332  16.238   9.882 -0.0563  0.2298  0.1270
   80loPI   GL1 1269   7.586  16.596   9.529  0.1051  0.1692  0.3070
   80loPI   GL2 1270   7.819  16.849   9.585  0.0301 -0.1501  0.1135
   80loPI   C1A 1271   7.293  16.964   9.448  0.1485  0.1122  0.1464
   80loPI   C2A 1272   7.254  17.091   8.989 -0.2397  0.0322  0.3354
   80loPI   C3A 1273   7.353  17.240   8.649 -0.3063  0.0758 -0.0372
   80loPI   C4A 1274   7.324  17.183   8.158  0.2144 -0.2213 -0.0510
   80loPI   C5A 1275   7.199  17.043   7.744 -0.3194 -0.0169  0.1601
   80loPI   C6A 1276   7.363  17.164   7.311 -0.1403 -0.1471 -0.1739
   80loPI   C1B 1277   7.678  16.890   9.126 -0.1024 -0.2846  0.1481
   80loPI   C2B 1278   7.600  16.804   8.750  0.1809 -0.1018 -0.1008
   80loPI   C3B 1279   7.441  16.548   8.519 -0.0060 -0.2101 -0.0476
   80loPI   C4B 1280   7.234  16.574   8.128 -0.1446  0.2766  0.1866
   81loPI    C1 1281  15.316  15.891  10.778  0.0683 -0.0300  0.0931
   81loPI    C2 1282  15.258  15.505  10.692 -0.1143 -0.0021  0.0869
   81loPI    C3 1283  15.221  15.634  11.069 -0.0768  0.0136  0.0853
   81loPI   PO4 1284  15.522  15.941  10.499 -0.0352 -0.1187  0.0593
   81loPI   GL1 1285  15.688  15.763  10.125  0.0861 -0.0768 -0.0543
   81loPI   GL2 1286  15.342  15.797  10.045  0.0393  0.0822  0.3216
   81loPI   C1A 1287  15.718  15.752   9.686 -0.2396  0.0510 -0.3597
   81loPI   C2A 1288  15.574  15.619   9.372 -0.0278  0.0700  0.0879
   81loPI   C3A 1289  15.515  15.761   8.912 -0.3829 -0.0290  0.0594
   81loPI   C4A 1290  15.481  15.781   8.499 -0.1178 -0.0337  0.1114
   81loPI   C5A 1291  15.117  15.787   8.186 -0.0501  0.0863 -0.1982
   81loPI   C6A 1292  14.702  15.881   8.072  0.0565  0.0700  0.4416
   81loPI   C1B 1293  15.096  15.681   9.660 -0.0344  0.1431 -0.3875
   81loPI   C2B 1294  15.111  15.628   9.284 -0.1258 -0.0355  0.2660
   81loPI   C3B 1295  14.954  15.647   8.837  0.4592  0.2012  0.0405
   81loPI   C4B 1296  14.691  15.529   8.480  0.2662  0.0150  0.0346
   82loPI    C1 1297  16.068   5.213   9.927  0.2622 -0.0509  0.2316
   82loPI    C2 1298  15.921   5.177  10.297  0.0984  0.1328  0.1861
   82loPI    C3 1299  15.681   5.131   9.980  0.2374 -0.0214  0.1011
   82loPI   PO4 1300  16.238   5.008   9.883 -0.3062 -0.0113  0.0512
   82loPI   GL1 1301  16.399   4.967   9.353  0.0893 -0.1405 -0.0182
   82loPI   GL2 1302  16.210   5.194   9.369 -0.0439 -0.3387  0.2316
   82loPI   C1A 1303  16.333   4.946   8.948  0.1927  0.2677  0.1393
   82loPI   C2A 1304  16.277   5.155   8.546  0.0498  0.1519 -0.0078
   82loPI   C3A 1305  16.297   5.202   8.128 -0.2220 -0.3100 -0.2761
   82loPI   C4A 1306  16.311   5.404   7.865  0.0746 -0.2228 -0.1538
   82loPI   C5A 1307  16.474   5.718   7.535  0.3336 -0.1933 -0.0965
   82loPI   C6A 1308  16.696   6.133   7.400  0.0710 -0.1761 -0.0092
   82loPI   C1B 1309  16.200   5.384   9.017 -0.1715  0.0088  0.0379
   82loPI   C2B 1310  16.076   5.671   8.729  0.2552 -0.2561 -0.0605
   82loPI   C3B 1311  16.077   5.666   8.281 -0.0210  0.1517  0.1146
   82loPI   C4B 1312  15.814   5.706   7.951 -0.1105  0.2118 -0.1406
   83loPI    C1 1313   2.527   1.712  10.446  0.1207  0.1187  0.1941
   83loPI    C2 1314   2.227   1.517  10.624  0.0728  0.1317  0.1282
   83loPI    C3 1315   2.529   1.662  10.842  0.0905  0.0162  0.1817
   83loPI   PO4 1316   2.435   1.738  10.169 -0.0696  0.2103 -0.0632
   83loPI   GL1 1317   2.724   1.609   9.832 -0.1310 -0.0850  0.1741
   83loPI   GL2 1318   2.621   1.348   9.703 -0.1855 -0.1364 -0.0867
   83loPI   C1A 1319   2.666   1.772   9.435  0.0258 -0.1059 -0.0542
   83loPI   C2A 1320   2.674   1.730   9.027 -0.1168  0.0621  0.2463
   83loPI   C3A 1321   2.753   1.832   8.546  0.0227 -0.1189 -0.3603
   83loPI   C4A 1322   2.609   2.132   8.186 -0.1951  0.1833  0.1975
   83loPI   C5A 1323   2.515   2.389   7.855  0.0913 -0.2962 -0.0919
   83loPI   C6A 1324   2.488   2.650   7.494  0.3132  0.0635  0.1387
   83loPI   C1B 1325   2.383   1.378   9.230  0.0910 -0.1197 -0.1552
   83loPI   C2B 1326   2.308   1.468   8.724  0.2129 -0.0833 -0.1581
   83loPI   C3B 1327   2.442   1.432   8.264 -0.2896  0.2682  0.4032
   83loPI   C4B 1328   2.561   1.255   7.913 -0.3895 -0.3603  0.0774
   84loPI    C1 1329   5.490  13.671  10.039 -0.0184 -0.0834 -0.2690
   84loPI    C2 1330   5.364  14.025   9.900 -0.0559 -0.0221 -0.0819
   84loPI    C3 1331   5.524  13.999  10.266  0.3876 -0.1157 -0.2757
   84loPI   PO4 1332   5.701  13.594   9.881 -0.2164  0.1493  0.0237
   84loPI   GL1 1333   5.799  13.483   9.571  0.0653 -0.0213  0.1500
   84loPI   GL2 1334   6.064  13.496   9.356 -0.0604  0.2791  0.0364
   84loPI   C1A 1335   5.535  13.323   9.156  0.0268  0.2231  0.3771
   84loPI   C2A 1336   5.523  13.381   8.772  0.3268 -0.6407 -0.0190
   84loPI   C3A 1337   5.536  13.512   8.321 -0.1265 -0.1847 -0.0496
   84loPI   C4A 1338   5.598  13.876   8.027 -0.1179 -0.0152  0.0207
   84loPI   C5A 1339   5.504  14.179   7.754  0.0176  0.3929 -0.1734
   84loPI   C6A 1340   5.242  14.314   7.444  0.0699 -0.0707 -0.1134
   84loPI   C1B 1341   5.979  13.543   8.951  0.0347  0.0054  0.3689
   84loPI   C2B 1342   5.967  13.620   8.551  0.0518  0.0758 -0.1775
   84loPI   C3B 1343   6.075  13.720   8.186 -0.2751 -0.0409 -0.0121
   84loPI   C4B 1344   5.992  13.913   7.728  0.2218  0.1338  0.5104
   85loPI    C1 1345  17.864   1.380  10.310  0.1705  0.0964 -0.0739
   85loPI    C2 1346  18.241   1.369  10.443  0.1506 -0.2725 -0.0380
   85loPI    C3 1347  17.950   1.195  10.654 -0.0860  0.2317  0.0655
   85loPI   PO4 1348  17.842   1.602  10.264 -0.1724 -0.0859 -0.0622
   85loPI   GL1 1349  17.762   1.681   9.870  0.1110  0.0703 -0.1006
   85loPI   GL2 1350  17.570   1.451   9.698  0.2217 -0.2243 -0.2213
   85loPI   C1A 1351  17.846   1.986   9.563 -0.3106 -0.0464 -0.1907
   85loPI   C2A 1352  17.776   2.064   9.132  0.2051 -0.1835 -0.2449
   85loPI   C3A 1353  17.840   2.044   8.722 -0.0018  0.3110 -0.2405
   85loPI   C4A 1354  18.070   2.254   8.387  0.0128  0.0157 -0.0805
   85loPI   C5A 1355  18.100   2.057   7.909 -0.0623 -0.3668  0.0695
   85loPI   C6A 1356  18.265   1.740   7.803  0.3372  0.2918 -0.1700
   85loPI   C1B 1357  17.549   1.620   9.283 -0.0052 -0.0633  0.0712
   85loPI   C2B 1358  17.575   1.522   8.878  0.1902  0.0485  0.0075
   85loPI   C3B 1359  17.613   1.387   8.395  0.0196 -0.3485 -0.4208
   85loPI   C4B 1360  17.790   1.314   8.033 -0.0488 -0.1215 -0.0559
   86loPI    C1 1361   8.768   7.998  10.686 -0.0957  0.4532  0.0888
   86loPI    C2 1362   8.474   7.768  10.830  0.0941  0.1664  0.0288
   86loPI    C3 1363   8.707   7.976  11.081  0.1068  0.0628  0.1035
   86loPI   PO4 1364   8.770   8.221  10.488  0.0537  0.2392 -0.0522
   86loPI   GL1 1365   8.953   8.288  10.175 -0.2736 -0.1182  0.5308
   86loPI   GL2 1366   8.629   8.217   9.999 -0.1768 -0.1333 -0.3848
   86loPI   C1A 1367   9.053   7.982   9.738  0.0102  0.0555 -0.1485
   86loPI   C2A 1368   8.956   7.881   9.337  0.0548 -0.1439 -0.0549
   86loPI   C3A 1369   8.899   7.976   8.957 -0.1653 -0.0062 -0.1053
   86loPI   C4A 1370   9.063   7.884   8.519 -0.1714 -0.0236 -0.1448
   86loPI   C5A 1371   9.242   8.048   8.057 -0.1040 -0.1379  0.3013
   86loPI   C6A 1372   9.224   8.332   7.740 -0.2232 -0.0098  0.0218
   86loPI   C1B 1373   8.510   8.021   9.732 -0.1427  0.0418  0.0852
   86loPI   C2B 1374   8.431   7.971   9.357  0.2558  0.3348  0.0617
   86loPI   C3B 1375   8.421   8.008   8.973 -0.0822 -0.1445  0.0632
   86loPI   C4B 1376   8.345   7.896   8.525 -0.1841 -0.0669  0.0563
   87loPI    C1 1377   8.149   3.514  10.803  0.0895 -0.0632 -0.1484
   87loPI    C2 1378   8.275   3.218  11.040  0.1163  0.1036  0.0490
   87loPI    C3 1379   8.364   3.597  11.130 -0.1373  0.1910 -0.0600
   87loPI   PO4 1380   8.167   3.347  10.562  0.1788  0.3528 -0.2450
   87loPI   GL1 1381   7.950   3.282  10.239 -0.1184  0.0693  0.1325
   87loPI   GL2 1382   7.889   3.108  10.033  0.0624  0.2489  0.0300
   87loPI   C1A 1383   8.047   3.602   9.892  0.1378 -0.1841  0.1362
   87loPI   C2A 1384   8.094   3.817   9.504 -0.0201  0.0141 -0.0176
   87loPI   C3A 1385   8.474   3.805   9.299 -0.0064  0.2684 -0.0927
   87loPI   C4A 1386   8.561   3.977   8.974 -0.0941  0.1887 -0.0865
   87loPI   C5A 1387   8.258   4.229   8.734 -0.0460 -0.2339 -0.2342
   87loPI   C6A 1388   8.182   4.601   8.510 -0.0023 -0.2570 -0.1750
   87loPI   C1B 1389   7.956   2.918   9.581  0.2441  0.1550 -0.2550
   87loPI   C2B 1390   7.942   2.953   9.144 -0.0864  0.2272  0.0314
   87loPI   C3B 1391   8.055   2.811   8.697  0.1880 -0.1358  0.3189
   87loPI   C4B 1392   8.019   2.701   8.310 -0.0581  0.0607 -0.0520
   88loPI    C1 1393   6.036  18.122  10.384 -0.1252 -0.0461  0.0857
   88loPI    C2 1394   6.258  17.914  10.644 -0.0967  0.1164  0.1925
   88loPI    C3 1395   5.940  17.744  10.472 -0.0590 -0.0235  0.2598
   88loPI   PO4 1396   6.131  18.154  10.236  0.3450 -0.0952  0.0008
   88loPI   GL1 1397   5.947  17.939   9.885 -0.1443  0.0993  0.0641
   88loPI   GL2 1398   5.677  17.790   9.934  0.0880  0.0553  0.0534
   88loPI   C1A 1399   6.181  17.854   9.431  0.0295  0.0443  0.0314
   88loPI   C2A 1400   6.142  17.880   9.033 -0.3451 -0.2122  0.0676
   88loPI   C3A 1401   6.019  17.737   8.649 -0.1164  0.4147 -0.3217
   88loPI   C4A 1402   6.031  17.825   8.228  0.0743 -0.3076  0.0252
   88loPI   C5A 1403   5.791  17.935   7.901 -0.0044  0.2776 -0.3721
   88loPI   C6A 1404   5.760  18.210   7.681 -0.0596  0.2840 -0.1797
   88loPI   C1B 1405   5.573  17.703   9.490 -0.1809 -0.0883 -0.0650
   88loPI   C2B 1406   5.628  17.903   9.004  0.1228  0.2277  0.1801
   88loPI   C3B 1407   5.477  17.944   8.458 -0.1154  0.1519  0.0770
   88loPI   C4B 1408   5.344  17.797   8.010  0.0297 -0.0665  0.0223
   89loPI    C1 1409   5.332  11.977  10.144 -0.0425 -0.1222  0.1467
   89loPI    C2 1410   5.338  11.661  10.390 -0.0723  0.0419  0.3613
   89loPI    C3 1411   5.303  12.030  10.540 -0.0360  0.1483  0.1124
   89loPI   PO4 1412   5.163  11.918   9.985  0.2938 -0.1718 -0.1403
   89loPI   GL1 1413   4.860  11.886   9.659  0.1487  0.1595 -0.2590
   89loPI   GL2 1414   5.052  11.663   9.530  0.1439 -0.0309  0.1597
   89loPI   C1A 1415   4.839  12.104   9.271 -0.2327  0.0989 -0.1922
   89loPI   C2A 1416   4.947  12.041   8.781 -0.4693 -0.3506  0.0974
   89loPI   C3A 1417   4.893  12.025   8.388 -0.0444  0.1778 -0.1241
   89loPI   C4A 1418   5.027  12.224   7.985 -0.0015  0.1710 -0.0513
   89loPI   C5A 1419   5.358  12.184   7.623  0.0556 -0.4163  0.0212
   89loPI   C6A 1420   5.700  12.145   7.288 -0.0812  0.0202  0.0336
   89loPI   C1B 1421   4.972  11.646   9.090 -0.0286 -0.0395  0.0689
   89loPI   C2B 1422   4.802  11.581   8.670 -0.0447 -0.0506  0.1934
   89loPI   C3B 1423   5.017  11.402   8.402 -0.4198 -0.4093  0.2451
   89loPI   C4B 1424   5.457  11.326   8.307 -0.1017 -0.2785  0.0395
   90loPI    C1 1425  14.342   9.340  10.483  0.1142  0.1556  0.2290
   90loPI    C2 1426  14.471   9.014  10.676  0.0553  0.0073  0.0206
   90loPI    C3 1427  14.722   9.319  10.609  0.1871 -0.1105 -0.0262
   90loPI   PO4 1428  14.114   9.162  10.170 -0.4594  0.3123  0.1238
   90loPI   GL1 1429  14.161   9.173   9.744  0.3696  0.2890  0.1502
   90loPI   GL2 1430  14.047   9.407   9.740 -0.2808 -0.2924  0.5376
   90loPI   C1A 1431  13.913   8.981   9.383 -0.0468  0.0783 -0.0452
   90loPI   C2A 1432  14.049   8.635   9.193 -0.0855 -0.3606 -0.1083
   90loPI   C3A 1433  13.990   8.351   8.866 -0.0894  0.0244 -0.0463
   90loPI   C4A 1434  13.902   8.142   8.447 -0.2762 -0.1125 -0.0357
   90loPI   C5A 1435  13.650   7.853   8.068  0.0600 -0.1609  0.0154
   90loPI   C6A 1436  13.449   7.653   7.709 -0.2220 -0.2920  0.0793
   90loPI   C1B 1437  14.174   9.514   9.423  0.3798 -0.0537  0.1550
   90loPI   C2B 1438  14.027   9.271   9.026 -0.1995 -0.0065 -0.2705
   90loPI   C3B 1439  13.934   9.212   8.642  0.1088 -0.0045  0.2214
   90loPI   C4B 1440  13.886   8.941   8.261 -0.3724  0.5740  0.2356
   91loPI    C1 1441   6.003   3.861  10.941 -0.2227  0.0731 -0.0516
   91loPI    C2 1442   5.724   3.840  11.227  0.0571 -0.2142  0.2088
   91loPI    C3 1443   5.997   3.550  11.194  0.2125 -0.0311 -0.1621
   91loPI   PO4 1444   5.853   3.943  10.729  0.0265  0.1634  0.0621
   91loPI   GL1 1445   5.757   3.730  10.348 -0.1700 -0.2043  0.1896
   91loPI   GL2 1446   5.979   3.403  10.305 -0.0874  0.4627  0.1647
   91loPI   C1A 1447   5.812   3.930   9.944 -0.1879  0.2348  0.1415
   91loPI   C2A 1448   5.811   3.807   9.504 -0.0161  0.0510  0.2302
   91loPI   C3A 1449   5.819   3.779   9.107 -0.3431 -0.0370 -0.4779
   91loPI   C4A 1450   5.680   3.578   8.627  0.1438 -0.0180  0.1400
   91loPI   C5A 1451   5.475   3.366   8.311 -0.3022  0.3242 -0.0142
   91loPI   C6A 1452   5.328   3.061   8.131 -0.1550  0.3567 -0.0610
   91loPI   C1B 1453   5.932   3.439   9.835 -0.1627 -0.1659  0.1368
   91loPI   C2B 1454   6.088   3.387   9.467 -0.3371  0.0966 -0.0649
   91loPI   C3B 1455   6.066   3.319   9.001 -0.1582  0.0750  0.0463
   91loPI   C4B 1456   6.184   3.405   8.620  0.0970 -0.0303  0.2221
   92loPI    C1 1457  13.132  13.507  10.561 -0.0501  0.2837 -0.2560
   92loPI    C2 1458  13.390  13.635  10.838  0.0406  0.1789 -0.2909
   92loPI    C3 1459  13.436  13.273  10.675 -0.0842  0.1909 -0.3536
   92loPI   PO4 1460  13.105  13.665  10.399  0.3037  0.1667 -0.1505
   92loPI   GL1 1461  13.217  13.823   9.881  0.1615 -0.1956 -0.1751
   92loPI   GL2 1462  13.471  13.672   9.936  0.1292 -0.1741  0.2168
   92loPI   C1A 1463  13.164  13.653   9.427  0.1929  0.0174 -0.1058
   92loPI   C2A 1464  13.171  13.685   8.999  0.0416 -0.3158 -0.1644
   92loPI   C3A 1465  13.135  13.712   8.480 -0.0727  0.0875 -0.0893
   92loPI   C4A 1466  13.149  14.007   8.060  0.3440 -0.2931  0.1529
   92loPI   C5A 1467  12.856  13.937   7.620 -0.0646  0.0736  0.0657
   92loPI   C6A 1468  12.469  14.021   7.364  0.3330  0.1490  0.0183
   92loPI   C1B 1469  13.633  13.585   9.510 -0.0824 -0.2914 -0.0298
   92loPI   C2B 1470  13.673  13.646   9.147  0.2443 -0.1127 -0.1635
   92loPI   C3B 1471  13.674  13.619   8.724 -0.0493  0.0346  0.0228
   92loPI   C4B 1472  13.636  13.785   8.332  0.3315  0.0475 -0.2173
   93loPI    C1 1473   3.896   4.522  10.597 -0.0645  0.1310  0.1689
   93loPI    C2 1474   3.803   4.243  10.868 -0.2035  0.1688  0.1610
   93loPI    C3 1475   4.162   4.418  10.877 -0.0730 -0.0905  0.0963
   93loPI   PO4 1476   3.904   4.430  10.397  0.1362 -0.0479 -0.3131
   93loPI   GL1 1477   3.854   4.657   9.996  0.2497 -0.0656 -0.0224
   93loPI   GL2 1478   3.768   4.381   9.896 -0.3303  0.0661 -0.0070
   93loPI   C1A 1479   4.084   4.916   9.690  0.3704  0.0115  0.1422
   93loPI   C2A 1480   4.145   4.935   9.231  0.3062 -0.1791  0.1900
   93loPI   C3A 1481   4.321   4.911   8.779  0.2140  0.1646  0.0134
   93loPI   C4A 1482   4.306   5.092   8.463 -0.1180  0.0645 -0.1022
   93loPI   C5A 1483   4.217   4.993   8.036  0.1935 -0.1464 -0.0490
   93loPI   C6A 1484   3.971   4.813   7.756  0.1163 -0.3035  0.1494
   93loPI   C1B 1485   3.908   4.441   9.444 -0.0197  0.1011 -0.2090
   93loPI   C2B 1486   3.998   4.515   9.058  0.1555 -0.1015  0.1384
   93loPI   C3B 1487   4.029   4.451   8.657 -0.2177 -0.0028  0.2536
   93loPI   C4B 1488   4.332   4.609   8.366 -0.0652  0.0704 -0.0208
   94loPI    C1 1489  11.409   1.421  10.404 -0.0178 -0.2093 -0.0787
   94loPI    C2 1490  11.573   1.669  10.672 -0.0283 -0.2940  0.0065
   94loPI    C3 1491  11.687   1.286  10.658 -0.0724 -0.3045 -0.0693
   94loPI   PO4 1492  11.283   1.581  10.166  0.0463  0.0458 -0.1032
   94loPI   GL1 1493  11.272   1.395   9.741 -0.2075 -0.1724 -0.0023
   94loPI   GL2 1494  11.558   1.286   9.778 -0.0074 -0.1379  0.0375
   94loPI   C1A 1495  11.278   1.290   9.277  0.0786 -0.1636  0.4486
   94loPI   C2A 1496  11.297   1.175   8.789  0.1053 -0.0095  0.0465
   94loPI   C3A 1497  11.038   1.009   8.355  0.0995 -0.2055 -0.2062
   94loPI   C4A 1498  11.057   0.969   7.933 -0.2236  0.0270  0.1236
   94loPI   C5A 1499  11.174   1.309   7.750 -0.0641  0.1385 -0.2453
   94loPI   C6A 1500  11.545   1.492   7.802 -0.1644  0.0184 -0.2285
   94loPI   C1B 1501  11.760   1.298   9.396 -0.0479 -0.2941 -0.0342
   94loPI   C2B 1502  11.818   1.348   8.915  0.1418  0.2725  0.0381
   94loPI   C3B 1503  11.755   1.191   8.505  0.1293 -0.2240 -0.1553
   94loPI   C4B 1504  11.441   1.286   8.239 -0.0406  0.1114 -0.0919
   95loPI    C1 1505   2.492   4.637  10.432 -0.1531 -0.1457 -0.0363
   95loPI    C2 1506   2.601   4.361  10.700 -0.1325 -0.0389  0.0667
   95loPI    C3 1507   2.383   4.676  10.815 -0.0386  0.0596 -0.0231
   95loPI   PO4 1508   2.678   4.741  10.280 -0.1258 -0.0204 -0.2710
   95loPI   GL1 1509   2.537   4.918   9.897  0.1357 -0.2202  0.2039
   95loPI   GL2 1510   2.231   4.754   9.809  0.1888 -0.0299 -0.2479
   95loPI   C1A 1511   2.491   4.972   9.475 -0.0785  0.2413 -0.1754
   95loPI   C2A 1512   2.640   5.023   9.098  0.2706  0.0092 -0.0897
   95loPI   C3A 1513   2.707   4.903   8.673  0.2593 -0.0452 -0.4181
   95loPI   C4A 1514   2.865   4.712   8.293 -0.0402 -0.2084 -0.0654
   95loPI   C5A 1515   2.851   4.392   8.014 -0.1766  0.0274  0.2287
   95loPI   C6A 1516   2.723   4.191   7.565  0.1699  0.0296  0.1708
   95loPI   C1B 1517   2.153   4.695   9.295 -0.0533 -0.3119 -0.0072
   95loPI   C2B 1518   2.199   4.743   8.822  0.0213 -0.1257 -0.0220
   95loPI   C3B 1519   2.231   4.767   8.418 -0.3133  0.3702  0.0802
   95loPI   C4B 1520   2.304   4.487   8.107  0.0020 -0.0656 -0.1712
   96loPI    C1 1521  13.145   9.203  10.533  0.1418 -0.0563  0.0683
   96loPI    C2 1522  13.285   9.483  10.781 -0.1874  0.1158  0.0652
   96loPI    C3 1523  12.933   9.308  10.856 -0.0705 -0.1660 -0.0329
   96loPI   PO4 1524  13.184   9.250  10.223 -0.3081  0.2496  0.1282
   96loPI   GL1 1525  12.897   9.395   9.947 -0.4993  0.2877  0.2468
   96loPI   GL2 1526  12.896   9.791   9.887 -0.0063 -0.3956  0.1486
   96loPI   C1A 1527  13.102   9.523   9.465 -0.1527 -0.0394  0.0013
   96loPI   C2A 1528  13.316   9.584   9.077  0.4371  0.0603  0.0574
   96loPI   C3A 1529  13.240   9.584   8.673 -0.0936 -0.4997 -0.0681
   96loPI   C4A 1530  12.883   9.689   8.463 -0.0447  0.3626  0.2079
   96loPI   C5A 1531  12.516   9.521   8.265  0.1498 -0.0286  0.0035
   96loPI   C6A 1532  12.428   9.595   7.888 -0.0554  0.0426  0.0223
   96loPI   C1B 1533  12.780   9.872   9.474  0.1422 -0.0165 -0.0151
   96loPI   C2B 1534  12.750   9.765   8.977 -0.1832  0.0205 -0.0708
   96loPI   C3B 1535  12.507   9.410   8.768 -0.1826  0.0287  0.0811
   96loPI   C4B 1536  12.242   9.116   8.587 -0.5081 -0.1418  0.1016
   97loPI    C1 1537  17.197  10.882  10.451  0.2685  0.0172 -0.0662
   97loPI    C2 1538  17.265  10.883  10.845 -0.1445 -0.1081  0.0100
   97loPI    C3 1539  17.192  10.539  10.655  0.1855 -0.0642 -0.2032
   97loPI   PO4 1540  17.023  11.051  10.410  0.0411  0.0468 -0.2968
   97loPI   GL1 1541  16.819  11.020  10.158 -0.1976 -0.0602  0.0988
   97loPI   GL2 1542  17.074  10.767   9.959 -0.0287  0.1709  0.0551
   97loPI   C1A 1543  16.884  11.166   9.766 -0.0509 -0.3487  0.2606
   97loPI   C2A 1544  16.830  11.110   9.288  0.1573  0.3950 -0.2370
   97loPI   C3A 1545  16.827  11.045   8.836  0.0250 -0.1063 -0.1226
   97loPI   C4A 1546  16.940  11.001   8.396 -0.3112 -0.1443  0.0344
   97loPI   C5A 1547  16.884  10.719   8.051  0.3433  0.0804  0.1035
   97loPI   C6A 1548  16.810  10.280   8.081 -0.1095  0.0895 -0.1687
   97loPI   C1B 1549  17.201  10.878   9.511  0.0892 -0.2931  0.0751
   97loPI   C2B 1550  17.294  10.911   9.041  0.0281  0.3722  0.0421
   97loPI   C3B 1551  17.407  10.934   8.616  0.1125 -0.0264 -0.1722
   97loPI   C4B 1552  17.393  10.811   8.113  0.0466 -0.2776  0.1496
   98loPI    C1 1553  17.213  11.668  10.849 -0.1084  0.0802  0.1371
   98loPI    C2 1554  16.992  11.339  10.796  0.0598 -0.0098 -0.0181
   98loPI    C3 1555  16.954  11.554  11.131 -0.0368 -0.1978  0.0936
   98loPI   PO4 1556  17.232  11.765  10.604  0.2945 -0.0555 -0.2631
   98loPI   GL1 1557  17.519  11.752  10.255 -0.1057  0.1183  0.0038
   98loPI   GL2 1558  17.275  11.455  10.069 -0.0476  0.1305 -0.1679
   98loPI   C1A 1559  17.464  11.893   9.872 -0.0074  0.0209  0.0200
   98loPI   C2A 1560  17.573  12.012   9.358 -0.1743  0.0480 -0.0945
   98loPI   C3A 1561  17.493  11.921   9.024  0.1621 -0.0432  0.3094
   98loPI   C4A 1562  17.480  11.735   8.605  0.2094  0.2226  0.1826
   98loPI   C5A 1563  17.405  11.693   8.133  0.2223  0.1571  0.3356
   98loPI   C6A 1564  17.307  11.356   7.970  0.0983 -0.0269  0.0773
   98loPI   C1B 1565  17.327  11.538   9.530 -0.1053 -0.1321  0.0395
   98loPI   C2B 1566  17.211  11.425   9.260 -0.4950  0.0470  0.0546
   98loPI   C3B 1567  17.178  11.387   8.837  0.1580 -0.3065 -0.0325
   98loPI   C4B 1568  17.216  11.380   8.459 -0.1694  0.0936  0.0195
   99loPI    C1 1569  16.913  16.278  10.234 -0.1293  0.1689 -0.0133
   99loPI    C2 1570  17.160  16.332  10.543  0.0122 -0.1959 -0.0579
   99loPI    C3 1571  16.945  15.997  10.516 -0.3856  0.0557 -0.0942
   99loPI   PO4 1572  16.725  16.506  10.226  0.2570  0.1246 -0.0506
   99loPI   GL1 1573  16.495  16.616   9.950  0.1333  0.0958  0.3967
   99loPI   GL2 1574  16.561  16.374   9.816 -0.0091  0.0534  0.2084
   99loPI   C1A 1575  16.303  16.768   9.650 -0.1881 -0.1907  0.0592
   99loPI   C2A 1576  16.137  16.663   9.152 -0.0032  0.2498 -0.0553
   99loPI   C3A 1577  16.228  17.002   8.905  0.1644  0.1012 -0.0397
   99loPI   C4A 1578  16.299  17.228   8.692 -0.2183  0.2575  0.0178
   99loPI   C5A 1579  16.318  17.559   8.468  0.1106 -0.0536  0.0655
   99loPI   C6A 1580  15.997  17.791   8.146 -0.2525  0.1026  0.0907
   99loPI   C1B 1581  16.332  16.344   9.443  0.0460  0.0873 -0.0574
   99loPI   C2B 1582  16.219  16.173   9.062  0.1021 -0.3677  0.0646
   99loPI   C3B 1583  16.245  16.039   8.567 -0.0139  0.0111  0.0097
   99loPI   C4B 1584  15.956  15.886   8.325 -0.0655 -0.0290 -0.1408
  100loPI    C1 1585   8.874  13.859  10.133 -0.0446  0.0367  0.1392
  100loPI    C2 1586   8.575  13.750  10.375  0.0555 -0.1895  0.1632
  100loPI    C3 1587   8.883  13.502  10.312  0.1052 -0.0699 -0.0758
  100loPI   PO4 1588   8.829  13.932   9.927  0.0031  0.3231  0.4516
  100loPI   GL1 1589   9.114  14.162   9.615  0.0669 -0.2186  0.0975
  100loPI   GL2 1590   9.397  14.191   9.597 -0.0176 -0.2186 -0.0410
  100loPI   C1A 1591   8.949  14.202   9.226 -0.1433  0.0677 -0.0257
  100loPI   C2A 1592   8.859  14.232   8.719 -0.3541 -0.3390 -0.0214
  100loPI   C3A 1593   8.862  14.344   8.248  0.0661 -0.0711 -0.0773
  100loPI   C4A 1594   8.902  14.268   7.880  0.0277  0.0672  0.0188
  100loPI   C5A 1595   9.055  14.310   7.494 -0.2531  0.0079 -0.0819
  100loPI   C6A 1596   8.920  14.532   7.107 -0.0495 -0.1060  0.1744
  100loPI   C1B 1597   9.426  14.029   9.203 -0.1039  0.2618 -0.0207
  100loPI   C2B 1598   9.246  13.930   8.849  0.0857 -0.1955  0.2060
  100loPI   C3B 1599   9.144  13.858   8.436 -0.0261 -0.1985 -0.2405
  100loPI   C4B 1600   9.233  13.844   7.887  0.1116 -0.2232  0.0876
  101loPI    C1 1601   6.630   8.655  10.600  0.0169  0.0394 -0.0734
  101loPI    C2 1602   6.872   8.579  10.910 -0.1244 -0.4512 -0.0764
  101loPI    C3 1603   6.475   8.549  10.953 -0.1906  0.2379 -0.1027
  101loPI   PO4 1604   6.728   8.724  10.383 -0.0562 -0.3180 -0.1738
  101loPI   GL1 1605   6.916   8.974  10.063  0.1984 -0.0857 -0.0822
  101loPI   GL2 1606   7.173   8.683  10.043  0.0808  0.2998 -0.1377
  101loPI   C1A 1607   6.696   8.847   9.691  0.1411  0.2413  0.3865
  101loPI   C2A 1608   6.661   8.567   9.312  0.1305  0.0880  0.0880
  101loPI   C3A 1609   6.494   8.479   8.977 -0.2657  0.1701  0.0785
  101loPI   C4A 1610   6.486   8.323   8.585  0.2158  0.2497 -0.2332
  101loPI   C5A 1611   6.336   8.487   8.195  0.0522 -0.2188 -0.2099
  101loPI   C6A 1612   5.886   8.509   8.044  0.2131  0.1333  0.0365
  101loPI   C1B 1613   7.154   8.555   9.615  0.2419 -0.0650 -0.0247
  101loPI   C2B 1614   7.171   8.479   9.217 -0.0253 -0.3688  0.0715
  101loPI   C3B 1615   7.042   8.365   8.793 -0.2199  0.0188 -0.0157
  101loPI   C4B 1616   6.876   8.397   8.338 -0.1091 -0.0435  0.1350
  102loPI    C1 1617   1.645  13.183  10.427  0.1358 -0.3168  0.0189
  102loPI    C2 1618   2.010  13.224  10.588  0.2062  0.0355 -0.2189
  102loPI    C3 1619   1.684  13.272  10.815  0.3035 -0.3848  0.0185
  102loPI   PO4 1620   1.574  13.312  10.191  0.1023 -0.0704  0.3387
  102loPI   GL1 1621   1.458  13.368   9.867  0.0202 -0.1989  0.4927
  102loPI   GL2 1622   1.444  13.535   9.638  0.2432 -0.2526  0.1038
  102loPI   C1A 1623   1.253  13.070   9.490  0.0535  0.0755  0.0170
  102loPI   C2A 1624   1.362  13.045   9.082 -0.1056 -0.2564 -0.1827
  102loPI   C3A 1625   1.399  13.026   8.619 -0.0230 -0.0692 -0.0220
  102loPI   C4A 1626   1.528  13.064   8.190  0.2373 -0.0287  0.3182
  102loPI   C5A 1627   1.250  13.096   7.853 -0.0862 -0.1852 -0.2537
  102loPI   C6A 1628   0.799  13.159   7.843  0.0780  0.1838  0.1317
  102loPI   C1B 1629   1.564  13.767   9.165 -0.0808 -0.1316 -0.2725
  102loPI   C2B 1630   1.483  13.858   8.712  0.0980 -0.0415  0.4312
  102loPI   C3B 1631   1.498  13.897   8.331  0.0163 -0.0359 -0.0183
  102loPI   C4B 1632   1.579  13.969   7.927 -0.0167 -0.1131 -0.1539
  103loPI    C1 1633   1.846  12.230  10.522 -0.0842  0.1601  0.0245
  103loPI    C2 1634   1.931  12.018  10.850 -0.0009 -0.0041 -0.1022
  103loPI    C3 1635   2.182  12.303  10.726 -0.1123  0.1703  0.0674
  103loPI   PO4 1636   1.755  12.071  10.346 -0.1105  0.2215 -0.0692
  103loPI   GL1 1637   1.883  12.129   9.866  0.1767  0.3105 -0.2959
  103loPI   GL2 1638   1.623  11.942   9.748  0.1657 -0.1760 -0.0987
  103loPI   C1A 1639   2.072  12.411   9.529  0.0634  0.2295 -0.1426
  103loPI   C2A 1640   2.102  12.473   9.038  0.1805 -0.0825  0.2084
  103loPI   C3A 1641   2.200  12.575   8.650 -0.0963 -0.0044 -0.1532
  103loPI   C4A 1642   2.205  12.465   8.274  0.0425 -0.0379 -0.2967
  103loPI   C5A 1643   2.265  12.209   7.910  0.1285 -0.0058 -0.1125
  103loPI   C6A 1644   2.095  11.775   7.713  0.0539  0.1440 -0.0528
  103loPI   C1B 1645   1.628  12.137   9.332 -0.0771  0.1317 -0.4416
  103loPI   C2B 1646   1.597  12.273   9.030  0.0897  0.0094  0.2637
  103loPI   C3B 1647   1.385  12.188   8.588  0.0085 -0.0376  0.2825
  103loPI   C4B 1648   1.274  12.089   8.171  0.0024 -0.0719 -0.2286
  104loPI    C1 1649   3.511   1.489  10.155  0.1108 -0.0264 -0.2611
  104loPI    C2 1650   3.845   1.666  10.287 -0.1789  0.2644  0.1040
  104loPI    C3 1651   3.622   1.446  10.537 -0.1228 -0.1572 -0.2055
  104loPI   PO4 1652   3.379   1.727   9.934  0.1211 -0.0875  0.1945
  104loPI   GL1 1653   3.430   1.699   9.616  0.0398  0.0943  0.4779
  104loPI   GL2 1654   3.223   1.511   9.458 -0.1405 -0.0247 -0.1324
  104loPI   C1A 1655   3.581   1.697   9.185 -0.1143 -0.0788  0.1479
  104loPI   C2A 1656   3.434   1.677   8.775  0.0826 -0.0304 -0.1077
  104loPI   C3A 1657   3.240   1.674   8.398  0.0074  0.2533 -0.0175
  104loPI   C4A 1658   3.077   1.718   8.040 -0.0092  0.1086 -0.2203
  104loPI   C5A 1659   3.156   1.605   7.672  0.1544 -0.0363 -0.0808
  104loPI   C6A 1660   2.933   1.246   7.504  0.0389  0.3147  0.2064
  104loPI   C1B 1661   2.987   1.382   9.148 -0.3011 -0.2360  0.2373
  104loPI   C2B 1662   2.803   1.343   8.761  0.0524  0.3798  0.2387
  104loPI   C3B 1663   2.918   1.252   8.335 -0.3163 -0.1965  0.4215
  104loPI   C4B 1664   3.221   1.150   7.939  0.1150  0.2209 -0.2283
  105loPI    C1 1665   7.995   5.501  10.697  0.0135 -0.1307 -0.1014
  105loPI    C2 1666   7.775   5.667  10.987  0.1411  0.0217 -0.0900
  105loPI    C3 1667   7.956   5.315  11.049  0.1945  0.0693  0.0271
  105loPI   PO4 1668   7.896   5.547  10.482 -0.1819  0.1449 -0.0787
  105loPI   GL1 1669   7.551   5.433  10.258  0.0811 -0.1224 -0.0697
  105loPI   GL2 1670   7.590   5.766  10.143 -0.0152  0.0652 -0.2857
  105loPI   C1A 1671   7.630   5.338   9.786 -0.1820 -0.4613 -0.2124
  105loPI   C2A 1672   7.769   5.110   9.360  0.0674  0.0383 -0.0447
  105loPI   C3A 1673   7.885   5.222   8.916 -0.1269  0.1507  0.1652
  105loPI   C4A 1674   8.030   5.165   8.589  0.0674 -0.1046 -0.0751
  105loPI   C5A 1675   7.988   5.258   8.165 -0.0873 -0.1317 -0.0367
  105loPI   C6A 1676   7.714   4.982   7.918  0.1304  0.1803 -0.0149
  105loPI   C1B 1677   7.807   5.973   9.804 -0.0880  0.3652  0.2628
  105loPI   C2B 1678   7.963   6.190   9.504  0.0253  0.3701 -0.0853
  105loPI   C3B 1679   7.950   6.153   9.146  0.2140 -0.1051  0.0564
  105loPI   C4B 1680   7.983   6.164   8.643 -0.2068  0.1024 -0.1931
  106loPI    C1 1681  12.290  14.359  10.474  0.0835 -0.1248 -0.0936
  106loPI    C2 1682  12.255  14.758  10.464  0.3727 -0.0908  0.1344
  106loPI    C3 1683  12.294  14.569  10.814  0.2969 -0.3154  0.0235
  106loPI   PO4 1684  12.527  14.384  10.185  0.0515  0.1107  0.2442
  106loPI   GL1 1685  12.617  14.205   9.757 -0.1293  0.0970  0.0026
  106loPI   GL2 1686  12.307  14.147   9.622  0.2317  0.1925  0.0325
  106loPI   C1A 1687  12.902  14.096   9.539  0.3861 -0.1538  0.2308
  106loPI   C2A 1688  12.851  14.123   9.180 -0.3455  0.3110  0.1322
  106loPI   C3A 1689  12.887  14.180   8.847  0.2091  0.3632  0.2425
  106loPI   C4A 1690  12.819  14.314   8.417  0.3946 -0.2954 -0.1192
  106loPI   C5A 1691  12.627  14.075   8.124  0.0085  0.0515  0.1973
  106loPI   C6A 1692  12.850  13.610   8.098 -0.2027  0.2569  0.1486
  106loPI   C1B 1693  12.330  14.099   9.220  0.0803 -0.0753  0.5227
  106loPI   C2B 1694  12.376  14.218   8.816 -0.1229  0.3739 -0.0031
  106loPI   C3B 1695  12.334  14.498   8.470  0.2451  0.0469  0.0909
  106loPI   C4B 1696  12.328  14.489   8.091 -0.1299 -0.3440 -0.0190
  107loPI    C1 1697   7.156  13.616   9.676  0.0308 -0.0537  0.1225
  107loPI    C2 1698   6.869  13.776   9.904 -0.1312 -0.0093 -0.1090
  107loPI    C3 1699   7.168  13.571  10.073 -0.2691 -0.0096  0.1387
  107loPI   PO4 1700   7.181  13.847   9.459 -0.2231 -0.1855 -0.1508
  107loPI   GL1 1701   7.394  14.115   9.167 -0.1306  0.0974  0.1287
  107loPI   GL2 1702   7.227  14.300   9.341 -0.2527 -0.0917  0.0926
  107loPI   C1A 1703   7.308  14.166   8.626  0.3266  0.0551  0.0312
  107loPI   C2A 1704   7.165  14.196   8.229 -0.0866  0.0553 -0.0059
  107loPI   C3A 1705   6.876  14.151   7.877  0.0185 -0.0740 -0.1441
  107loPI   C4A 1706   6.870  14.406   7.490 -0.1862  0.1616  0.3427
  107loPI   C5A 1707   6.770  14.274   7.034 -0.1711  0.1587 -0.1867
  107loPI   C6A 1708   6.606  13.843   7.039  0.3665  0.1478  0.0794
  107loPI   C1B 1709   7.089  14.511   9.005  0.2332  0.1345  0.0351
  107loPI   C2B 1710   7.040  14.595   8.529 -0.4031  0.0230 -0.3749
  107loPI   C3B 1711   7.110  14.648   8.019 -0.2049  0.7903  0.0990
  107loPI   C4B 1712   7.159  14.788   7.589 -0.1389 -0.1419 -0.0418
  108loPI    C1 1713   4.422  13.236  10.351  0.3192  0.2142  0.0072
  108loPI    C2 1714   4.228  13.569  10.461  0.0478  0.0754 -0.0423
  108loPI    C3 1715   4.059  13.211  10.518  0.3343 -0.0559  0.0035
  108loPI   PO4 1716   4.499  13.332  10.109  0.0935 -0.1008  0.0162
  108loPI   GL1 1717   4.624  13.308   9.632  0.0805  0.1177 -0.2395
  108loPI   GL2 1718   4.383  13.529   9.689  0.2391  0.1749 -0.1131
  108loPI   C1A 1719   4.755  13.467   9.270  0.0144  0.0571  0.2707
  108loPI   C2A 1720   4.713  13.567   8.912  0.3770  0.0172 -0.0497
  108loPI   C3A 1721   4.628  13.545   8.435 -0.0078 -0.0579  0.0516
  108loPI   C4A 1722   4.530  13.536   7.974 -0.0249 -0.1878 -0.0410
  108loPI   C5A 1723   4.819  13.615   7.622 -0.4213  0.1179  0.2209
  108loPI   C6A 1724   5.120  13.914   7.651  0.1711  0.0489  0.0327
  108loPI   C1B 1725   4.332  13.579   9.318 -0.0288  0.1842 -0.0415
  108loPI   C2B 1726   4.263  13.765   8.962  0.0026  0.0246 -0.1335
  108loPI   C3B 1727   4.220  13.879   8.545  0.1048  0.1423 -0.0232
  108loPI   C4B 1728   4.128  14.135   8.145 -0.1863  0.1799  0.0127
  109loPI    C1 1729  11.580  18.053  10.576 -0.1751 -0.0719 -0.1530
  109loPI    C2 1730  11.547  18.343  10.849  0.1145 -0.0383 -0.1506
  109loPI    C3 1731  11.580  17.961  10.965  0.2013 -0.0274 -0.1390
  109loPI   PO4 1732  11.493  18.168  10.384 -0.0094  0.1635 -0.1100
  109loPI   GL1 1733  11.255  17.953  10.074  0.0730 -0.0994 -0.1257
  109loPI   GL2 1734  11.443  17.673  10.083 -0.2277 -0.2002  0.2080
  109loPI   C1A 1735  11.101  17.977   9.702  0.0141 -0.1043  0.5812
  109loPI   C2A 1736  11.119  17.905   9.248  0.0557 -0.3142  0.2079
  109loPI   C3A 1737  11.102  17.830   8.869  0.2101  0.1756  0.0295
  109loPI   C4A 1738  11.065  17.624   8.529  0.0062  0.0227  0.0247
  109loPI   C5A 1739  11.482  17.681   8.181  0.1660  0.1054  0.0399
  109loPI   C6A 1740  11.677  17.977   7.799 -0.0839  0.4108 -0.2274
  109loPI   C1B 1741  11.529  17.689   9.658  0.0873  0.0638 -0.0386
  109loPI   C2B 1742  11.514  17.633   9.230  0.3631  0.1252  0.0299
  109loPI   C3B 1743  11.693  17.691   8.885  0.3945  0.0317  0.0351
  109loPI   C4B 1744  11.803  17.792   8.503 -0.1850 -0.1030  0.1380
  110loPI    C1 1745   8.292   6.969  10.821  0.0462 -0.2599  0.1137
  110loPI    C2 1746   8.643   7.158  10.852 -0.1862  0.2038  0.0004
  110loPI    C3 1747   8.502   6.948  11.161  0.2121 -0.0334  0.0279
  110loPI   PO4 1748   8.299   6.830  10.508 -0.0707 -0.1788 -0.3787
  110loPI   GL1 1749   8.068   6.883  10.132 -0.0122 -0.3093 -0.0799
  110loPI   GL2 1750   7.897   7.096   9.945  0.2241 -0.1143  0.0350
  110loPI   C1A 1751   8.226   6.616   9.788 -0.0553  0.0945  0.0070
  110loPI   C2A 1752   8.284   6.561   9.431  0.0449 -0.3914  0.0296
  110loPI   C3A 1753   8.247   6.590   9.058 -0.2419 -0.3423 -0.2833
  110loPI   C4A 1754   8.185   6.697   8.701 -0.0983  0.1180  0.1207
  110loPI   C5A 1755   8.131   6.484   8.234  0.0501 -0.2211 -0.1000
  110loPI   C6A 1756   8.052   6.313   7.820  0.1130  0.1395 -0.0617
  110loPI   C1B 1757   7.913   7.149   9.501 -0.0066  0.0348  0.0416
  110loPI   C2B 1758   7.975   7.105   9.043 -0.1622  0.1188 -0.0185
  110loPI   C3B 1759   7.949   7.132   8.781 -0.1135  0.3126  0.2795
  110loPI   C4B 1760   8.026   6.959   8.318  0.0350  0.2475 -0.0798
  111loPI    C1 1761  12.043   2.921  10.411  0.0946 -0.1504  0.0064
  111loPI    C2 1762  12.091   3.204  10.689 -0.0473 -0.0709 -0.0489
  111loPI    C3 1763  12.014   2.827  10.799  0.0832 -0.0772  0.0234
  111loPI   PO4 1764  11.833   3.054  10.217  0.3406 -0.0215 -0.1967
  111loPI   GL1 1765  11.943   2.864   9.793  0.0976  0.1601 -0.1926
  111loPI   GL2 1766  12.200   2.984   9.895  0.0832 -0.0217  0.0658
  111loPI   C1A 1767  11.746   2.713   9.458 -0.0943 -0.0670 -0.0637
  111loPI   C2A 1768  11.633   2.675   9.029 -0.0043 -0.1853 -0.0163
  111loPI   C3A 1769  11.667   2.668   8.625 -0.2261  0.3801 -0.1416
  111loPI   C4A 1770  11.776   2.762   8.238  0.1837 -0.0211  0.0688
  111loPI   C5A 1771  11.819   2.673   7.913  0.0188  0.2826  0.3268
  111loPI   C6A 1772  11.791   2.371   7.720  0.1363 -0.2423  0.0141
  111loPI   C1B 1773  12.240   2.864   9.360  0.0972 -0.1530 -0.0756
  111loPI   C2B 1774  12.203   2.729   8.963  0.0776 -0.2289  0.3847
  111loPI   C3B 1775  12.327   2.701   8.595 -0.0562 -0.2207 -0.0552
  111loPI   C4B 1776  12.457   2.863   8.211  0.4782 -0.2396  0.1900
  112loPI    C1 1777   1.153  11.137  10.391  0.1283 -0.0968 -0.0212
  112loPI    C2 1778   0.855  11.228  10.642  0.1585 -0.0557 -0.0004
  112loPI    C3 1779   1.011  11.510  10.405 -0.0822 -0.1636 -0.2929
  112loPI   PO4 1780   1.018  10.873  10.284  0.3275  0.0905  0.0772
  112loPI   GL1 1781   1.270  10.697   9.895  0.1468 -0.3047  0.1080
  112loPI   GL2 1782   1.474  10.914   9.732  0.0163 -0.1628  0.0044
  112loPI   C1A 1783   1.166  10.651   9.437 -0.3185  0.2264  0.1694
  112loPI   C2A 1784   1.254  10.658   9.006 -0.2812  0.4033  0.0839
  112loPI   C3A 1785   1.194  10.814   8.650 -0.2463  0.2574  0.2487
  112loPI   C4A 1786   1.075  11.079   8.201 -0.0389 -0.0995 -0.2850
  112loPI   C5A 1787   0.946  11.572   8.127 -0.1182  0.1850  0.2135
  112loPI   C6A 1788   0.888  11.956   7.890  0.2205  0.2159  0.1700
  112loPI   C1B 1789   1.652  10.820   9.387  0.0769  0.1889  0.2599
  112loPI   C2B 1790   1.680  10.890   8.876 -0.2998 -0.2672  0.0109
  112loPI   C3B 1791   1.656  11.064   8.493  0.2968 -0.1919  0.0251
  112loPI   C4B 1792   1.988  11.186   8.117 -0.0012  0.0001  0.2220
  113loPI    C1 1793   5.519  10.127  10.192  0.0014  0.0215 -0.0132
  113loPI    C2 1794   5.415  10.475  10.359 -0.1796 -0.0478  0.0211
  113loPI    C3 1795   5.660  10.225  10.553 -0.0903  0.0372  0.0186
  113loPI   PO4 1796   5.543  10.225   9.921  0.0083  0.3309 -0.0339
  113loPI   GL1 1797   5.368  10.474   9.531 -0.0479  0.1300 -0.0470
  113loPI   GL2 1798   5.439  10.787   9.461 -0.1529  0.4869  0.0961
  113loPI   C1A 1799   5.381  10.223   9.236 -0.0777 -0.0819  0.1285
  113loPI   C2A 1800   5.271  10.239   8.782 -0.2168  0.0034  0.0762
  113loPI   C3A 1801   5.151  10.340   8.439  0.1237  0.0419  0.0162
  113loPI   C4A 1802   5.294  10.362   8.088  0.1279  0.0075 -0.0702
  113loPI   C5A 1803   5.671  10.339   7.962  0.0318  0.1846  0.0090
  113loPI   C6A 1804   5.922  10.332   7.588 -0.2988  0.3113  0.1129
  113loPI   C1B 1805   5.426  10.662   9.027  0.1508 -0.4697  0.1754
  113loPI   C2B 1806   5.565  10.658   8.594  0.0520 -0.5991  0.0754
  113loPI   C3B 1807   5.509  10.821   8.134 -0.2209  0.1612 -0.3486
  113loPI   C4B 1808   5.651  10.798   7.607 -0.0873  0.0323 -0.0656
  114loPI    C1 1809   4.208  17.537  10.073  0.1050  0.0478  0.2355
  114loPI    C2 1810   4.504  17.622  10.328  0.1043 -0.0321  0.2628
  114loPI    C3 1811   4.196  17.395  10.447  0.1323 -0.1166  0.1744
  114loPI   PO4 1812   4.237  17.836   9.944  0.0248  0.0124  0.1280
  114loPI   GL1 1813   4.108  17.977   9.575 -0.2128 -0.4610 -0.0289
  114loPI   GL2 1814   4.253  18.227   9.452  0.1263 -0.1515 -0.2398
  114loPI   C1A 1815   4.061  17.947   9.058 -0.0173 -0.2197 -0.0208
  114loPI   C2A 1816   4.010  17.789   8.624 -0.2472 -0.5225 -0.2852
  114loPI   C3A 1817   4.154  17.872   8.201 -0.1893 -0.0707  0.0924
  114loPI   C4A 1818   4.479  18.059   7.988 -0.1562 -0.3402  0.0219
  114loPI   C5A 1819   4.589  18.456   7.809  0.0043 -0.0103  0.1387
  114loPI   C6A 1820   4.701  18.579   7.407 -0.1451  0.2226 -0.2438
  114loPI   C1B 1821   4.461  18.292   9.024 -0.0479 -0.1004  0.2109
  114loPI   C2B 1822   4.412  18.276   8.496  0.0167 -0.1192 -0.0247
  114loPI   C3B 1823   4.357  18.614   8.229  0.2323 -0.0390 -0.0588
  114loPI   C4B 1824   4.226  19.067   8.088 -0.0110 -0.0206  0.0118
  115loPI    C1 1825  14.211   3.222  10.434 -0.1035 -0.2283 -0.2387
  115loPI    C2 1826  14.224   2.880  10.642 -0.1261 -0.1504 -0.1084
  115loPI    C3 1827  14.184   3.230  10.833  0.2290 -0.0472 -0.2162
  115loPI   PO4 1828  14.377   3.217  10.207  0.0867  0.0355 -0.3173
  115loPI   GL1 1829  14.607   3.315   9.826 -0.5673 -0.1132  0.3166
  115loPI   GL2 1830  14.622   2.985   9.842  0.0280  0.1800 -0.0068
  115loPI   C1A 1831  14.539   3.348   9.377  0.2434 -0.0126 -0.0378
  115loPI   C2A 1832  14.425   3.154   9.049 -0.2226 -0.2366 -0.0211
  115loPI   C3A 1833  14.213   3.200   8.643  0.0038  0.0742  0.0633
  115loPI   C4A 1834  14.099   2.808   8.383  0.1934  0.1035  0.0619
  115loPI   C5A 1835  13.745   2.659   8.082 -0.1522 -0.0632  0.0622
  115loPI   C6A 1836  13.742   2.251   7.975  0.4139 -0.3453  0.1022
  115loPI   C1B 1837  14.373   2.867   9.468  0.4478  0.0872  0.1900
  115loPI   C2B 1838  14.197   2.651   9.090 -0.1616  0.1429 -0.2097
  115loPI   C3B 1839  14.209   2.452   8.720 -0.1593 -0.0681  0.1264
  115loPI   C4B 1840  14.124   2.305   8.321 -0.0327 -0.0247  0.0704
  116loPI    C1 1841  12.685   0.919  10.676 -0.2915 -0.0511  0.1038
  116loPI    C2 1842  12.807   0.547  10.753  0.1474  0.0012 -0.2911
  116loPI    C3 1843  12.775   0.812  11.050  0.2861 -0.2219 -0.0727
  116loPI   PO4 1844  12.544   0.917  10.495  0.1364 -0.0574 -0.1142
  116loPI   GL1 1845  12.526   0.994  10.097 -0.0357 -0.1088 -0.0164
  116loPI   GL2 1846  12.316   0.803  10.005  0.1420  0.0307 -0.0402
  116loPI   C1A 1847  12.731   0.983   9.767  0.0057  0.1003 -0.0993
  116loPI   C2A 1848  12.790   1.072   9.280 -0.3310 -0.0192 -0.0464
  116loPI   C3A 1849  12.846   1.002   8.861  0.0651  0.0562  0.1276
  116loPI   C4A 1850  12.899   1.030   8.473 -0.0734 -0.2220  0.0931
  116loPI   C5A 1851  12.885   0.954   7.938  0.1972 -0.0079  0.1357
  116loPI   C6A 1852  12.808   1.034   7.444 -0.0275 -0.2325 -0.1840
  116loPI   C1B 1853  12.395   0.718   9.566 -0.0435  0.0957 -0.2782
  116loPI   C2B 1854  12.444   0.739   9.107 -0.1006  0.3547  0.2085
  116loPI   C3B 1855  12.433   0.623   8.699 -0.3590 -0.3549  0.2497
  116loPI   C4B 1856  12.586   0.697   8.222  0.1210 -0.0946 -0.0396
  117loPI    C1 1857  11.043  15.277  10.387  0.0790  0.0292  0.1047
  117loPI    C2 1858  11.178  15.650  10.438  0.0641  0.0348  0.1041
  117loPI    C3 1859  11.429  15.340  10.470  0.1204  0.0580 -0.1046
  117loPI   PO4 1860  10.946  15.249  10.181 -0.1949  0.0734 -0.2467
  117loPI   GL1 1861  10.871  15.155   9.753  0.2214  0.0283 -0.0155
  117loPI   GL2 1862  10.693  14.913   9.699 -0.5082  0.1090  0.0883
  117loPI   C1A 1863  11.279  15.066   9.556 -0.0462  0.1597  0.1009
  117loPI   C2A 1864  11.559  15.260   9.410 -0.0855  0.0561 -0.0176
  117loPI   C3A 1865  11.766  15.399   9.132 -0.0003  0.4268 -0.1556
  117loPI   C4A 1866  11.925  15.424   8.640  0.1141  0.0098  0.1420
  117loPI   C5A 1867  12.036  15.578   8.263  0.3029 -0.0692 -0.2845
  117loPI   C6A 1868  11.933  15.811   7.953  0.2080  0.1922 -0.0304
  117loPI   C1B 1869  10.478  14.763   9.389  0.1794 -0.1465 -0.1221
  117loPI   C2B 1870  10.546  14.854   8.944 -0.1859  0.1438  0.2158
  117loPI   C3B 1871  10.636  14.823   8.488 -0.0511 -0.2364  0.0081
  117loPI   C4B 1872  10.775  14.622   8.140 -0.0936 -0.1545 -0.2345
  118loPI    C1 1873  17.358   4.119  10.514 -0.0185 -0.0447 -0.1711
  118loPI    C2 1874  17.582   4.418  10.657  0.0840 -0.2091  0.0183
  118loPI    C3 1875  17.621   4.050  10.808  0.0484 -0.3457 -0.2978
  118loPI   PO4 1876  17.402   4.187  10.184  0.2958 -0.0056  0.2599
  118loPI   GL1 1877  17.646   4.316   9.872  0.0967  0.0042  0.1021
  118loPI   GL2 1878  17.828   4.351   9.557 -0.1063 -0.2859  0.1733
  118loPI   C1A 1879  17.408   4.006   9.577  0.0345  0.1689  0.2476
  118loPI   C2A 1880  17.472   3.891   9.235 -0.0302  0.3238  0.1987
  118loPI   C3A 1881  17.304   3.880   8.809 -0.2225 -0.0241  0.1909
  118loPI   C4A 1882  17.337   4.025   8.413  0.1406  0.1277 -0.1596
  118loPI   C5A 1883  17.289   4.292   8.047 -0.0599  0.0232  0.0391
  118loPI   C6A 1884  16.963   4.641   7.807 -0.1214 -0.0917  0.2200
  118loPI   C1B 1885  17.888   4.157   9.171  0.1563  0.0793  0.0705
  118loPI   C2B 1886  17.848   4.107   8.738 -0.4178  0.3816 -0.4976
  118loPI   C3B 1887  17.700   4.322   8.333 -0.1461  0.0228  0.1877
  118loPI   C4B 1888  17.636   4.694   8.036  0.2124 -0.1449  0.0146
  119loPI    C1 1889   0.752   7.897  10.881  0.0556  0.2507 -0.0651
  119loPI    C2 1890   1.041   7.922  11.157 -0.1173 -0.0866  0.1533
  119loPI    C3 1891   0.714   8.150  11.188 -0.0102  0.0803  0.0688
  119loPI   PO4 1892   0.877   7.835  10.599 -0.2102  0.0137  0.0065
  119loPI   GL1 1893   1.091   8.163  10.335 -0.0341  0.1651  0.0074
  119loPI   GL2 1894   1.475   8.149  10.304 -0.1324 -0.1115 -0.1443
  119loPI   C1A 1895   1.099   8.008   9.987 -0.0630 -0.2787  0.1605
  119loPI   C2A 1896   1.223   8.062   9.603 -0.2169 -0.0897  0.1743
  119loPI   C3A 1897   1.111   8.076   9.142  0.0731 -0.0150 -0.2656
  119loPI   C4A 1898   0.848   8.334   8.888  0.0128  0.0070  0.0009
  119loPI   C5A 1899   0.459   8.247   8.585  0.0967 -0.1577 -0.0682
  119loPI   C6A 1900   0.531   8.069   8.106 -0.0107  0.2351 -0.0581
  119loPI   C1B 1901   1.531   8.295   9.900 -0.0499 -0.1190 -0.1652
  119loPI   C2B 1902   1.639   8.290   9.438 -0.1123 -0.2256  0.1132
  119loPI   C3B 1903   1.554   8.373   8.937  0.0312  0.0930 -0.0290
  119loPI   C4B 1904   1.654   8.555   8.554 -0.1565 -0.1013 -0.1026
  120loPI    C1 1905  12.318  11.797  10.231  0.2298  0.0748  0.0247
  120loPI    C2 1906  12.035  11.570  10.399  0.1073  0.1050 -0.1383
  120loPI    C3 1907  12.209  11.861  10.610  0.1014  0.0092 -0.0004
  120loPI   PO4 1908  12.312  11.752   9.940  0.0660 -0.1796 -0.0065
  120loPI   GL1 1909  12.084  11.767   9.488 -0.3539  0.1245  0.0870
  120loPI   GL2 1910  12.151  11.457   9.459  0.1145  0.1263 -0.0342
  120loPI   C1A 1911  12.164  11.924   9.220 -0.0896  0.2962 -0.0915
  120loPI   C2A 1912  12.415  11.837   8.835  0.1331 -0.2487 -0.0806
  120loPI   C3A 1913  12.604  11.691   8.547 -0.1799  0.0935  0.2792
  120loPI   C4A 1914  12.883  11.530   8.231 -0.0102  0.0748 -0.1513
  120loPI   C5A 1915  12.933  11.659   7.797  0.1347 -0.1363 -0.2527
  120loPI   C6A 1916  12.751  11.661   7.385 -0.0157 -0.0824  0.2195
  120loPI   C1B 1917  12.193  11.440   9.046  0.0692 -0.2581  0.1519
  120loPI   C2B 1918  12.312  11.236   8.653  0.2341  0.2060  0.1607
  120loPI   C3B 1919  12.588  11.097   8.403  0.2923  0.1675  0.1418
  120loPI   C4B 1920  12.331  10.851   8.135 -0.1397  0.1974 -0.2358
  121loPI    C1 1921   2.605  16.747  10.069  0.0061 -0.1209 -0.0368
  121loPI    C2 1922   2.930  16.835  10.286 -0.0785 -0.0076  0.0451
  121loPI    C3 1923   2.585  17.027  10.355 -0.1360 -0.0530 -0.1120
  121loPI   PO4 1924   2.650  16.720   9.818  0.2735  0.1265  0.1067
  121loPI   GL1 1925   2.663  16.542   9.410 -0.1495  0.0434  0.0312
  121loPI   GL2 1926   2.656  16.224   9.359  0.3433 -0.1550  0.1526
  121loPI   C1A 1927   2.810  16.675   9.062  0.0810 -0.1829  0.1077
  121loPI   C2A 1928   2.890  16.794   8.539  0.2413  0.0181 -0.0412
  121loPI   C3A 1929   2.945  16.875   8.079  0.0301  0.1264 -0.1044
  121loPI   C4A 1930   2.747  17.199   7.908 -0.1254 -0.2638  0.0214
  121loPI   C5A 1931   2.564  17.388   7.608 -0.1334  0.1799 -0.2366
  121loPI   C6A 1932   2.388  17.464   7.224 -0.0781 -0.0935 -0.0558
  121loPI   C1B 1933   2.650  16.198   8.944  0.1757  0.1307 -0.0851
  121loPI   C2B 1934   2.574  16.272   8.542  0.2446 -0.1421 -0.0662
  121loPI   C3B 1935   2.697  16.385   8.141  0.1872  0.1094 -0.3626
  121loPI   C4B 1936   3.086  16.445   7.805 -0.2791  0.2911 -0.0878
  122loPI    C1 1937  16.540   7.397  10.243  0.2574 -0.2364  0.0356
  122loPI    C2 1938  16.400   7.086  10.453  0.0618 -0.0821  0.1380
  122loPI    C3 1939  16.538   7.410  10.643  0.0062  0.0059  0.0299
  122loPI   PO4 1940  16.648   7.306   9.967  0.0549 -0.0077 -0.2285
  122loPI   GL1 1941  16.746   7.575   9.629 -0.2420 -0.0998  0.1370
  122loPI   GL2 1942  16.971   7.751   9.626  0.1162 -0.1296  0.0381
  122loPI   C1A 1943  16.949   7.302   9.119 -0.3361  0.4271 -0.0718
  122loPI   C2A 1944  17.089   7.226   8.662  0.1229 -0.3535 -0.1352
  122loPI   C3A 1945  17.005   7.183   8.228  0.1880 -0.1834  0.0655
  122loPI   C4A 1946  16.772   7.279   7.885  0.2073  0.0803 -0.0762
  122loPI   C5A 1947  16.623   7.758   7.694  0.1244  0.1025  0.1733
  122loPI   C6A 1948  16.161   7.880   7.708 -0.0279  0.0020 -0.1146
  122loPI   C1B 1949  16.806   7.755   9.205 -0.0825 -0.2612  0.0375
  122loPI   C2B 1950  16.696   7.633   8.840  0.1226  0.1856 -0.1292
  122loPI   C3B 1951  16.754   7.551   8.430  0.1380  0.2411  0.0901
  122loPI   C4B 1952  16.399   7.556   8.157 -0.1157  0.1126 -0.0363
  123loPI    C1 1953   9.176   2.235  10.898 -0.1052  0.1589  0.0094
  123loPI    C2 1954   8.887   2.469  11.043 -0.0088  0.3631 -0.1241
  123loPI    C3 1955   9.143   2.291  11.292 -0.1156  0.3556 -0.0187
  123loPI   PO4 1956   9.283   2.351  10.594 -0.1576 -0.1290  0.0545
  123loPI   GL1 1957   9.025   2.473  10.225  0.1923 -0.4591 -0.0781
  123loPI   GL2 1958   9.157   2.225  10.107 -0.1184  0.0654 -0.3678
  123loPI   C1A 1959   9.043   2.799   9.898  0.0788 -0.1293  0.1213
  123loPI   C2A 1960   9.159   2.802   9.441  0.0869 -0.0224  0.0225
  123loPI   C3A 1961   9.031   2.888   9.060  0.0579  0.2435 -0.2737
  123loPI   C4A 1962   9.040   2.887   8.532 -0.2651 -0.0635 -0.0620
  123loPI   C5A 1963   8.953   2.707   8.188  0.2747  0.2015  0.2475
  123loPI   C6A 1964   8.963   2.909   7.854 -0.2765  0.0332 -0.0570
  123loPI   C1B 1965   9.374   2.272   9.673  0.0446 -0.0097 -0.2524
  123loPI   C2B 1966   9.470   2.314   9.284 -0.0173  0.0268 -0.2509
  123loPI   C3B 1967   9.300   2.486   8.922 -0.4372 -0.0107  0.1166
  123loPI   C4B 1968   9.379   2.524   8.477  0.1482 -0.1181  0.1931
  124loPI    C1 1969   3.716  17.754  10.422  0.1038  0.0543  0.1048
  124loPI    C2 1970   3.663  17.489  10.717  0.0894 -0.0896 -0.0266
  124loPI    C3 1971   3.347  17.673  10.555  0.0847 -0.1193 -0.0513
  124loPI   PO4 1972   3.805  17.682  10.254  0.0664 -0.0687  0.1154
  124loPI   GL1 1973   3.715  17.603   9.849 -0.2274 -0.1539  0.0726
  124loPI   GL2 1974   3.616  17.791   9.699 -0.0977 -0.0988 -0.3477
  124loPI   C1A 1975   3.885  17.384   9.527  0.1459 -0.0067 -0.0225
  124loPI   C2A 1976   4.210  17.385   9.169  0.0754 -0.1658 -0.1954
  124loPI   C3A 1977   4.140  17.350   8.774  0.2150  0.1542 -0.0272
  124loPI   C4A 1978   4.078  17.358   8.328  0.1246  0.2823  0.3001
  124loPI   C5A 1979   3.794  17.492   8.059  0.2422 -0.1730  0.0956
  124loPI   C6A 1980   3.584  17.522   7.637 -0.1223  0.0722  0.1542
  124loPI   C1B 1981   3.688  17.813   9.362  0.0455  0.2532 -0.2423
  124loPI   C2B 1982   3.712  17.549   9.068 -0.2222  0.5521  0.0162
  124loPI   C3B 1983   3.751  17.138   8.968  0.0342  0.0544 -0.1443
  124loPI   C4B 1984   3.954  16.893   8.608  0.1778 -0.1211 -0.2933
  125loPI    C1 1985   4.384  14.890  10.232 -0.1029 -0.0146  0.2166
  125loPI    C2 1986   4.504  14.864  10.612  0.2350  0.2597  0.1344
  125loPI    C3 1987   4.774  14.870  10.318 -0.0306 -0.1596 -0.1282
  125loPI   PO4 1988   4.189  14.723  10.147 -0.1568 -0.1466  0.1936
  125loPI   GL1 1989   3.982  14.639   9.711  0.2958  0.0845  0.1005
  125loPI   GL2 1990   3.689  14.786   9.568  0.1981  0.1049  0.1035
  125loPI   C1A 1991   3.885  14.566   9.183  0.3051 -0.0531 -0.3453
  125loPI   C2A 1992   3.898  14.538   8.781 -0.0644 -0.2214 -0.2485
  125loPI   C3A 1993   3.888  14.563   8.287  0.2700 -0.1494  0.0937
  125loPI   C4A 1994   3.928  14.464   7.860 -0.0307  0.0723 -0.1030
  125loPI   C5A 1995   3.823  14.743   7.558 -0.0626  0.0456  0.0159
  125loPI   C6A 1996   3.450  15.010   7.456  0.1897  0.2009  0.1407
  125loPI   C1B 1997   3.611  15.021   9.161 -0.0674  0.1609  0.2092
  125loPI   C2B 1998   3.563  14.963   8.735 -0.1465 -0.1528 -0.0826
  125loPI   C3B 1999   3.432  15.016   8.330 -0.0125  0.3305 -0.1374
  125loPI   C4B 2000   3.388  15.128   7.957 -0.0156  0.1778 -0.1583
  126loPI    C1 2001   2.594   7.625  10.716  0.2748  0.0042 -0.1529
  126loPI    C2 2002   2.677   7.282  10.904  0.0209 -0.0502 -0.1364
  126loPI    C3 2003   2.552   7.599  11.113 -0.0057 -0.0299 -0.1831
  126loPI   PO4 2004   2.767   7.676  10.614 -0.1451 -0.0103 -0.0901
  126loPI   GL1 2005   2.812   7.767  10.159  0.1032 -0.0465 -0.4730
  126loPI   GL2 2006   3.062   7.773  10.211 -0.3442 -0.1393 -0.1244
  126loPI   C1A 2007   2.948   7.908   9.659 -0.0524 -0.2035 -0.1549
  126loPI   C2A 2008   2.943   7.835   9.223  0.1046 -0.0508 -0.3518
  126loPI   C3A 2009   2.975   7.842   8.765  0.0878  0.0908 -0.3427
  126loPI   C4A 2010   3.105   7.848   8.279 -0.0222 -0.0580  0.1027
  126loPI   C5A 2011   3.014   7.586   7.959  0.1079 -0.0926  0.1293
  126loPI   C6A 2012   2.629   7.480   7.701  0.1575 -0.1819 -0.1054
  126loPI   C1B 2013   3.128   8.207  10.082  0.2162 -0.2264  0.2231
  126loPI   C2B 2014   3.019   8.415   9.740  0.3630  0.3449  0.4101
  126loPI   C3B 2015   3.020   8.318   9.296 -0.1496  0.2268  0.1785
  126loPI   C4B 2016   3.088   8.310   8.905  0.0286 -0.0918 -0.3404
  127loPI    C1 2017   2.197   8.591  10.658 -0.1885  0.0820 -0.2164
  127loPI    C2 2018   2.354   8.831  10.937  0.1822 -0.0786 -0.2815
  127loPI    C3 2019   2.104   8.537  11.044 -0.0120  0.1247 -0.1674
  127loPI   PO4 2020   2.448   8.538  10.537  0.1476  0.1744 -0.1849
  127loPI   GL1 2021   2.799   8.606  10.208  0.2631 -0.1851  0.3326
  127loPI   GL2 2022   2.715   8.843  10.021 -0.0207 -0.0047  0.0086
  127loPI   C1A 2023   2.592   8.250   9.942 -0.3899 -0.0151  0.0232
  127loPI   C2A 2024   2.533   8.238   9.502 -0.0644  0.2336 -0.2267
  127loPI   C3A 2025   2.569   8.146   9.062 -0.0835 -0.1678 -0.2948
  127loPI   C4A 2026   2.517   8.039   8.616 -0.0191  0.0564  0.2690
  127loPI   C5A 2027   2.648   7.751   8.205  0.0073  0.1462 -0.0702
  127loPI   C6A 2028   2.349   7.543   8.117  0.3868  0.2339  0.4479
  127loPI   C1B 2029   2.639   8.723   9.597 -0.1989  0.1718 -0.2564
  127loPI   C2B 2030   2.559   8.663   9.147  0.0017  0.1276 -0.0058
  127loPI   C3B 2031   2.628   8.560   8.711  0.0088  0.3250  0.4254
  127loPI   C4B 2032   2.903   8.352   8.379  0.0676  0.3597  0.0287
  128loPI    C1 2033   3.567  11.262  10.400  0.0198  0.0792  0.0353
  128loPI    C2 2034   3.874  11.486  10.522  0.2172 -0.0975 -0.1297
  128loPI    C3 2035   3.921  11.092  10.475 -0.1111 -0.1676  0.1040
  128loPI   PO4 2036   3.523  11.337  10.123  0.1612 -0.1864 -0.0895
  128loPI   GL1 2037   3.548  11.216   9.804 -0.0232  0.2669  0.2754
  128loPI   GL2 2038   3.294  11.055   9.690  0.3138 -0.0860 -0.2460
  128loPI   C1A 2039   3.595  11.603   9.515  0.1111  0.3046  0.1174
  128loPI   C2A 2040   3.399  11.840   9.233  0.0090 -0.1950  0.0275
  128loPI   C3A 2041   3.501  11.945   8.740  0.0876 -0.2724 -0.0268
  128loPI   C4A 2042   3.529  11.874   8.384 -0.1749 -0.3858  0.0442
  128loPI   C5A 2043   3.636  11.961   7.944  0.0837  0.0796  0.2304
  128loPI   C6A 2044   4.170  11.870   7.995  0.2978  0.3828 -0.0011
  128loPI   C1B 2045   3.270  11.270   9.351 -0.0800 -0.1005  0.1013
  128loPI   C2B 2046   3.308  11.457   8.915  0.1359 -0.2026 -0.1774
  128loPI   C3B 2047   3.351  11.327   8.473 -0.0358  0.2867 -0.0746
  128loPI   C4B 2048   3.468  11.170   7.954  0.0113 -0.0068  0.1271
  129loPI    C1 2049   6.575   8.118  10.784  0.0703  0.0123  0.0298
  129loPI    C2 2050   6.552   7.769  10.978  0.0548 -0.0324 -0.0519
  129loPI    C3 2051   6.679   8.096  11.169  0.0382 -0.0759  0.0339
  129loPI   PO4 2052   6.730   8.032  10.527  0.3617  0.2622  0.0153
  129loPI   GL1 2053   6.938   8.124  10.183 -0.1095 -0.1518 -0.0186
  129loPI   GL2 2054   6.727   8.344  10.112  0.3032  0.0266  0.4192
  129loPI   C1A 2055   7.265   8.114   9.888  0.2370 -0.1155  0.0856
  129loPI   C2A 2056   7.312   7.908   9.532  0.1061  0.4453 -0.4506
  129loPI   C3A 2057   7.430   8.002   9.202  0.0100 -0.1240 -0.1572
  129loPI   C4A 2058   7.328   7.954   8.787  0.1742 -0.1488  0.2048
  129loPI   C5A 2059   7.224   7.853   8.279  0.0710 -0.1139 -0.0644
  129loPI   C6A 2060   6.895   7.914   7.993 -0.2854 -0.0660  0.2571
  129loPI   C1B 2061   6.383   8.392   9.752  0.0331  0.0697 -0.0015
  129loPI   C2B 2062   6.165   8.310   9.343 -0.4062  0.1495  0.1853
  129loPI   C3B 2063   5.928   8.325   9.086  0.1700  0.1471  0.2297
  129loPI   C4B 2064   5.913   8.347   8.589 -0.0936  0.1262  0.1208
  130loPI    C1 2065  10.644  11.081  10.257 -0.0569  0.0437 -0.0510
  130loPI    C2 2066  10.615  11.408  10.486  0.0887 -0.0617  0.1213
  130loPI    C3 2067  10.882  11.125  10.576  0.1347 -0.1138 -0.1704
  130loPI   PO4 2068  10.364  11.083  10.110 -0.1819 -0.1583  0.0533
  130loPI   GL1 2069  10.258  11.060   9.675  0.0812 -0.0780 -0.1463
  130loPI   GL2 2070  10.537  11.216   9.617 -0.0738 -0.1226 -0.2430
  130loPI   C1A 2071  10.150  11.088   9.281  0.0437 -0.3411 -0.1250
  130loPI   C2A 2072   9.742  11.106   9.093 -0.2757 -0.0154  0.1610
  130loPI   C3A 2073   9.428  11.220   8.878 -0.0438  0.2377  0.0903
  130loPI   C4A 2074   9.426  11.215   8.466 -0.0585  0.2295  0.3544
  130loPI   C5A 2075   9.360  11.392   8.058  0.1173 -0.2634  0.0732
  130loPI   C6A 2076   9.408  11.618   7.745  0.0922 -0.0170 -0.1728
  130loPI   C1B 2077  10.595  11.395   9.219  0.2872 -0.0792 -0.0607
  130loPI   C2B 2078  10.601  11.551   8.746 -0.2176 -0.2538  0.2881
  130loPI   C3B 2079  10.608  11.388   8.359 -0.0501  0.0801 -0.2006
  130loPI   C4B 2080  10.347  11.147   8.010 -0.0661  0.0487  0.0035
  131loPI    C1 2081  12.355   5.941  10.382  0.2081  0.0580  0.2621
  131loPI    C2 2082  12.014   6.008  10.580  0.0990  0.1178  0.0559
  131loPI    C3 2083  12.330   6.244  10.642  0.0117  0.2412  0.0333
  131loPI   PO4 2084  12.301   5.874  10.150 -0.0696 -0.0158 -0.1508
  131loPI   GL1 2085  12.276   5.611   9.842  0.3169  0.1241  0.0086
  131loPI   GL2 2086  12.008   5.718   9.672  0.1607 -0.2364 -0.1563
  131loPI   C1A 2087  12.544   5.641   9.519  0.0273 -0.2759  0.1551
  131loPI   C2A 2088  12.475   5.614   9.092 -0.4601 -0.0201  0.1661
  131loPI   C3A 2089  12.471   5.440   8.717 -0.2083 -0.1576  0.3454
  131loPI   C4A 2090  12.641   5.462   8.262 -0.2865  0.1710  0.2337
  131loPI   C5A 2091  12.799   5.694   7.937  0.3806 -0.0175  0.1904
  131loPI   C6A 2092  12.840   5.694   7.528  0.0486  0.1063  0.0295
  131loPI   C1B 2093  12.054   5.719   9.278 -0.0834 -0.0509  0.0290
  131loPI   C2B 2094  12.105   5.762   8.790 -0.0921  0.3566 -0.0486
  131loPI   C3B 2095  12.173   5.627   8.313 -0.0597  0.1170 -0.0904
  131loPI   C4B 2096  12.242   5.730   7.930  0.1025  0.0308  0.1246
  132loPI    C1 2097   7.078  11.809  10.279  0.0686  0.2937  0.0489
  132loPI    C2 2098   6.705  11.786  10.422 -0.0162  0.0906 -0.1959
  132loPI    C3 2099   7.015  11.687  10.654 -0.1327  0.0118 -0.0726
  132loPI   PO4 2100   7.054  11.994  10.027 -0.2270 -0.2221  0.1330
  132loPI   GL1 2101   6.964  11.750   9.543 -0.0077  0.0623  0.4055
  132loPI   GL2 2102   6.829  11.982   9.441  0.1059  0.0628 -0.0227
  132loPI   C1A 2103   6.916  11.518   9.136 -0.1977 -0.1543  0.1276
  132loPI   C2A 2104   6.810  11.493   8.716 -0.1242  0.2102  0.3382
  132loPI   C3A 2105   6.892  11.449   8.361 -0.1119  0.2569 -0.2017
  132loPI   C4A 2106   7.024  11.451   8.021 -0.0490  0.0461 -0.0156
  132loPI   C5A 2107   7.312  11.527   7.748  0.2903  0.5088 -0.0764
  132loPI   C6A 2108   7.670  11.778   7.589 -0.0007 -0.0991  0.2006
  132loPI   C1B 2109   6.802  11.947   8.982  0.0938  0.0080 -0.0075
  132loPI   C2B 2110   6.862  12.086   8.586  0.0476  0.1214  0.1894
  132loPI   C3B 2111   7.176  12.184   8.351 -0.0784 -0.1471  0.1149
  132loPI   C4B 2112   7.599  12.364   8.245  0.2589 -0.1650  0.1336
  133loPI    C1 2113   5.265   0.624  10.463  0.0232 -0.2164  0.0362
  133loPI    C2 2114   5.577   0.859  10.378 -0.0181 -0.1593  0.0419
  133loPI    C3 2115   5.415   0.866  10.744 -0.0665 -0.1417  0.0203
  133loPI   PO4 2116   5.336   0.403  10.185  0.0366 -0.0408 -0.1159
  133loPI   GL1 2117   5.160   0.411   9.788 -0.2577 -0.2372  0.1163
  133loPI   GL2 2118   5.082   0.699   9.828  0.1003  0.0924  0.2075
  133loPI   C1A 2119   4.961   0.359   9.453 -0.3654 -0.2617  0.1779
  133loPI   C2A 2120   4.939   0.239   9.099 -0.2550 -0.0238 -0.2661
  133loPI   C3A 2121   4.890   0.231   8.635 -0.0181  0.2182 -0.1263
  133loPI   C4A 2122   4.842   0.295   8.191 -0.0131 -0.2380 -0.1585
  133loPI   C5A 2123   5.046   0.483   7.781 -0.1460  0.0663  0.2119
  133loPI   C6A 2124   5.522   0.496   7.646  0.1774 -0.0776 -0.1596
  133loPI   C1B 2125   4.908   0.850   9.510  0.2431 -0.1415 -0.3527
  133loPI   C2B 2126   4.930   0.785   9.080  0.2238  0.3436  0.2358
  133loPI   C3B 2127   4.805   0.811   8.695 -0.4461  0.1305  0.0914
  133loPI   C4B 2128   4.675   0.761   8.363 -0.2528  0.3173  0.1938
  134loPI    C1 2129   0.280   1.019  10.514 -0.0844 -0.1088  0.0029
  134loPI    C2 2130   0.128   0.653  10.565  0.0195 -0.1043  0.3711
  134loPI    C3 2131   0.046   0.943  10.829  0.0678  0.0957  0.1693
  134loPI   PO4 2132   0.214   1.019  10.248  0.3955  0.0830 -0.1187
  134loPI   GL1 2133   0.519   0.918   9.949  0.1620  0.2822 -0.0085
  134loPI   GL2 2134   0.351   1.049   9.722 -0.0654  0.2536 -0.2101
  134loPI   C1A 2135   0.884   0.878   9.604  0.0294 -0.1169 -0.1780
  134loPI   C2A 2136   1.094   0.952   9.195 -0.3646  0.1123 -0.0449
  134loPI   C3A 2137   1.126   0.833   8.815  0.3123 -0.1309 -0.1176
  134loPI   C4A 2138   0.926   0.876   8.550 -0.0913  0.0360  0.0097
  134loPI   C5A 2139   1.057   0.883   8.118 -0.0505  0.0247 -0.0007
  134loPI   C6A 2140   1.261   1.036   7.799  0.4198  0.1321  0.2553
  134loPI   C1B 2141   0.314   1.397   9.465 -0.3032 -0.0418 -0.0432
  134loPI   C2B 2142   0.260   1.456   9.010  0.4104 -0.3069 -0.3145
  134loPI   C3B 2143   0.418   1.564   8.612 -0.3039  0.0323  0.3068
  134loPI   C4B 2144   0.463   1.607   8.172 -0.2499 -0.2115 -0.1084
  135loPI    C1 2145  17.968   7.103  10.808 -0.0719 -0.0451  0.0530
  135loPI    C2 2146  17.771   7.438  10.714 -0.0554 -0.1089 -0.2158
  135loPI    C3 2147  17.686   7.245  11.054 -0.1932  0.0670 -0.1485
  135loPI   PO4 2148  17.927   6.918  10.646  0.0728  0.0297  0.1053
  135loPI   GL1 2149  17.965   6.825  10.279  0.1082  0.1561 -0.1622
  135loPI   GL2 2150  18.220   6.925  10.116 -0.1016  0.2579 -0.1988
  135loPI   C1A 2151  17.879   6.510   9.925  0.2565  0.0020 -0.1987
  135loPI   C2A 2152  18.155   6.420   9.590  0.0354  0.1039  0.0822
  135loPI   C3A 2153  18.136   6.610   9.185 -0.0067  0.2468  0.0133
  135loPI   C4A 2154  18.179   6.554   8.664 -0.0221  0.1154 -0.0118
  135loPI   C5A 2155  18.171   6.325   8.361  0.2004 -0.3458  0.0723
  135loPI   C6A 2156  18.430   6.326   7.983  0.1420  0.2985 -0.1029
  135loPI   C1B 2157  17.980   6.968   9.776 -0.0345 -0.0295 -0.0442
  135loPI   C2B 2158  17.975   7.025   9.390 -0.2293  0.2013  0.3440
  135loPI   C3B 2159  18.029   7.044   8.938 -0.4162  0.0686  0.1768
  135loPI   C4B 2160  17.920   6.979   8.496 -0.2366  0.0489 -0.1579
  136loPI    C1 2161  10.552  16.552  10.330 -0.0782  0.0573 -0.1037
  136loPI    C2 2162  10.605  16.400  10.697  0.2962 -0.1857 -0.2524
  136loPI    C3 2163  10.379  16.205  10.430  0.0470 -0.0232 -0.1627
  136loPI   PO4 2164  10.890  16.552  10.255 -0.1518  0.0858  0.2508
  136loPI   GL1 2165  11.050  16.417   9.834  0.1785  0.0349  0.1037
  136loPI   GL2 2166  11.033  16.082   9.738  0.1254 -0.3023 -0.0708
  136loPI   C1A 2167  10.998  16.466   9.433 -0.0177  0.1931 -0.1659
  136loPI   C2A 2168  10.997  16.444   9.007  0.1373 -0.0585 -0.4647
  136loPI   C3A 2169  10.789  16.159   8.652 -0.2506  0.0331  0.1723
  136loPI   C4A 2170  10.709  16.073   8.354  0.1742  0.1501 -0.1971
  136loPI   C5A 2171  10.404  16.309   8.007 -0.2927  0.0243 -0.0544
  136loPI   C6A 2172  10.045  16.400   7.680  0.0025 -0.0740  0.2211
  136loPI   C1B 2173  11.138  15.958   9.237  0.1540  0.1873  0.0694
  136loPI   C2B 2174  11.183  15.977   8.823  0.0225 -0.0085 -0.3995
  136loPI   C3B 2175  11.249  16.236   8.519 -0.2743 -0.0320 -0.0757
  136loPI   C4B 2176  11.031  16.291   8.067  0.0295  0.2000  0.0347
  137loPI    C1 2177   0.513   3.590  10.651  0.3219 -0.0925 -0.2646
  137loPI    C2 2178   0.249   3.389  10.427 -0.1241  0.1290  0.0457
  137loPI    C3 2179   0.556   3.196  10.597 -0.1546 -0.1572 -0.2144
  137loPI   PO4 2180   0.565   3.794  10.476  0.1331 -0.1386  0.0347
  137loPI   GL1 2181   0.669   3.984  10.025 -0.2484 -0.0019  0.1793
  137loPI   GL2 2182   0.656   3.812   9.918  0.1544 -0.0096  0.1138
  137loPI   C1A 2183   0.918   4.302   9.840  0.0198 -0.2186 -0.2725
  137loPI   C2A 2184   0.869   4.656   9.597 -0.2288 -0.0901  0.0493
  137loPI   C3A 2185   0.786   4.664   9.237  0.0561 -0.0984 -0.1892
  137loPI   C4A 2186   0.680   4.690   8.823 -0.1158  0.0081  0.1340
  137loPI   C5A 2187   0.380   4.647   8.469  0.0031  0.2939 -0.0811
  137loPI   C6A 2188   0.319   4.531   8.135  0.0860  0.3563 -0.1761
  137loPI   C1B 2189   0.510   3.717   9.460 -0.2724 -0.1495  0.0295
  137loPI   C2B 2190   0.541   3.630   9.026  0.2086  0.1330 -0.2273
  137loPI   C3B 2191   0.529   3.455   8.683  0.2801  0.1233  0.0701
  137loPI   C4B 2192   0.657   3.187   8.330 -0.2995  0.0577  0.1873
  138loPI    C1 2193   1.623  12.617  10.479 -0.0454  0.0937 -0.1673
  138loPI    C2 2194   1.882  12.701  10.773  0.0801  0.0426 -0.2623
  138loPI    C3 2195   1.503  12.828  10.798  0.0323 -0.1479  0.0251
  138loPI   PO4 2196   1.729  12.713  10.305 -0.2874 -0.1665  0.0578
  138loPI   GL1 2197   1.777  12.747   9.780 -0.1058  0.0968  0.1793
  138loPI   GL2 2198   1.571  12.879   9.772  0.0082  0.2734 -0.0777
  138loPI   C1A 2199   1.719  12.768   9.315  0.1514  0.1349 -0.2115
  138loPI   C2A 2200   1.719  12.808   8.873  0.0393  0.1122  0.0098
  138loPI   C3A 2201   1.696  12.593   8.469 -0.2180 -0.0726 -0.0674
  138loPI   C4A 2202   1.640  12.520   8.083  0.3996 -0.3566 -0.0146
  138loPI   C5A 2203   1.280  12.498   7.786  0.0138 -0.0059 -0.1208
  138loPI   C6A 2204   1.029  12.241   7.508 -0.2629 -0.1326 -0.3044
  138loPI   C1B 2205   1.374  12.461   9.639 -0.0865 -0.0587 -0.0193
  138loPI   C2B 2206   0.981  12.243   9.519  0.1298 -0.0130  0.1231
  138loPI   C3B 2207   1.001  12.034   9.098  0.0174 -0.0975 -0.0969
  138loPI   C4B 2208   0.896  11.621   9.004 -0.2000  0.1346 -0.0669
  139loPI    C1 2209   4.998  10.200  10.366 -0.1581  0.0782  0.0008
  139loPI    C2 2210   5.219   9.931  10.562 -0.1548 -0.0312 -0.1517
  139loPI    C3 2211   4.882  10.070  10.726 -0.0871 -0.0275 -0.0141
  139loPI   PO4 2212   4.982  10.096  10.144 -0.1268 -0.2750  0.1448
  139loPI   GL1 2213   5.096  10.111   9.718 -0.0118 -0.3138  0.1061
  139loPI   GL2 2214   4.778  10.328   9.678  0.1237  0.1460 -0.2410
  139loPI   C1A 2215   5.029   9.828   9.349  0.0199 -0.1398  0.0814
  139loPI   C2A 2216   4.973   9.875   8.966 -0.2763  0.2076 -0.1519
  139loPI   C3A 2217   4.830  10.000   8.535 -0.0667  0.4557 -0.1489
  139loPI   C4A 2218   4.593   9.903   8.113  0.0949 -0.0254 -0.1206
  139loPI   C5A 2219   4.395   9.724   7.892 -0.2028 -0.2137  0.0713
  139loPI   C6A 2220   3.943   9.619   7.918 -0.4624 -0.0284 -0.1039
  139loPI   C1B 2221   4.711  10.270   9.342  0.0697 -0.0984  0.0025
  139loPI   C2B 2222   4.530  10.147   8.969  0.0892 -0.0152 -0.1633
  139loPI   C3B 2223   4.375  10.206   8.526  0.1101 -0.4328 -0.0534
  139loPI   C4B 2224   4.113  10.130   8.224  0.1766 -0.1820  0.1046
  140loPI    C1 2225   0.116  17.520  10.374 -0.0838 -0.1048 -0.1059
  140loPI    C2 2226  -0.188  17.515  10.634 -0.0243 -0.1409 -0.0366
  140loPI    C3 2227   0.014  17.179  10.557 -0.0575 -0.1355 -0.1483
  140loPI   PO4 2228   0.021  17.688  10.176 -0.3869  0.1621 -0.1271
  140loPI   GL1 2229  -0.166  17.704   9.769 -0.1193  0.0837  0.0258
  140loPI   GL2 2230  -0.428  17.955   9.653 -0.1819 -0.0510  0.2529
  140loPI   C1A 2231  -0.185  17.498   9.388  0.0568  0.1002  0.1210
  140loPI   C2A 2232  -0.140  17.603   8.999  0.1412  0.2676 -0.0203
  140loPI   C3A 2233  -0.078  17.704   8.633  0.0375  0.4052  0.1563
  140loPI   C4A 2234  -0.015  17.701   8.197  0.0332 -0.1982 -0.1112
  140loPI   C5A 2235   0.229  17.883   7.909 -0.0928  0.1689  0.1670
  140loPI   C6A 2236   0.502  17.924   7.656 -0.0086 -0.2494  0.1656
  140loPI   C1B 2237  -0.450  17.915   9.282  0.2543  0.0476 -0.3109
  140loPI   C2B 2238  -0.635  17.868   8.906 -0.1846 -0.1665 -0.0423
  140loPI   C3B 2239  -0.560  17.853   8.456 -0.1188  0.2600 -0.1830
  140loPI   C4B 2240  -0.627  17.821   7.968  0.2653 -0.0240  0.1635
  141loPI    C1 2241  12.688  17.592  10.829 -0.2362 -0.0774 -0.1938
  141loPI    C2 2242  12.484  17.929  10.897  0.2510  0.1570  0.1667
  141loPI    C3 2243  12.478  17.634  11.167 -0.0031 -0.0435 -0.0517
  141loPI   PO4 2244  12.648  17.527  10.536  0.1996 -0.2680 -0.0054
  141loPI   GL1 2245  12.358  17.431  10.223 -0.0983 -0.0165  0.4040
  141loPI   GL2 2246  12.451  17.098  10.289  0.1322 -0.1519  0.0024
  141loPI   C1A 2247  12.483  17.386   9.818  0.0180  0.0813 -0.2490
  141loPI   C2A 2248  12.391  17.689   9.463 -0.0336  0.1866  0.0473
  141loPI   C3A 2249  12.496  17.814   9.078 -0.1165 -0.1331  0.0037
  141loPI   C4A 2250  12.653  17.861   8.638  0.1141  0.2266  0.1389
  141loPI   C5A 2251  12.777  17.508   8.401 -0.2111 -0.0260  0.2108
  141loPI   C6A 2252  12.946  17.145   8.147 -0.2295  0.0614  0.1557
  141loPI   C1B 2253  12.364  16.880   9.901  0.2313  0.2942  0.3407
  141loPI   C2B 2254  12.472  16.941   9.526 -0.2056 -0.0130 -0.2194
  141loPI   C3B 2255  12.603  17.242   9.234 -0.1612  0.2897 -0.2261
  141loPI   C4B 2256  12.711  17.331   8.898 -0.7092  0.1770 -0.0347
  142loPI    C1 2257   9.299   4.346  10.678  0.0310 -0.5414 -0.2420
  142loPI    C2 2258   9.572   4.252  10.954  0.0790  0.1327 -0.0423
  142loPI    C3 2259   9.183   4.211  11.036  0.1004 -0.0301 -0.0181
  142loPI   PO4 2260   9.445   4.464  10.484  0.2723  0.0146  0.1191
  142loPI   GL1 2261   9.263   4.533  10.057 -0.0787  0.2178 -0.0177
  142loPI   GL2 2262   9.400   4.227  10.044  0.0554  0.1723 -0.0721
  142loPI   C1A 2263   9.152   4.577   9.589 -0.1194 -0.0434 -0.3285
  142loPI   C2A 2264   9.229   4.708   9.123 -0.2759 -0.0934 -0.2771
  142loPI   C3A 2265   9.141   4.813   8.793  0.2827  0.1697 -0.1347
  142loPI   C4A 2266   9.105   4.683   8.373 -0.0569 -0.1159  0.1371
  142loPI   C5A 2267   9.010   4.503   7.943  0.0345 -0.0998 -0.0534
  142loPI   C6A 2268   8.890   4.304   7.534 -0.2485  0.1821  0.0922
  142loPI   C1B 2269   9.508   4.209   9.680 -0.2385 -0.1061  0.0295
  142loPI   C2B 2270   9.382   4.200   9.343 -0.2396  0.2009 -0.0706
  142loPI   C3B 2271   9.441   4.337   8.963 -0.1621 -0.0502 -0.1068
  142loPI   C4B 2272   9.365   4.236   8.494 -0.0188  0.2536 -0.0107
  143loPI    C1 2273  13.158   5.197  10.379 -0.0203  0.0836  0.1244
  143loPI    C2 2274  13.126   5.503  10.634 -0.2013  0.0289  0.1684
  143loPI    C3 2275  13.211   5.136  10.771 -0.0479  0.0467  0.1225
  143loPI   PO4 2276  12.994   5.323  10.177 -0.1366  0.2684 -0.1938
  143loPI   GL1 2277  13.026   5.120   9.771  0.3598 -0.1195 -0.2495
  143loPI   GL2 2278  13.365   5.124   9.813 -0.1342  0.2153  0.0574
  143loPI   C1A 2279  12.927   5.356   9.343 -0.1214  0.0250 -0.0374
  143loPI   C2A 2280  12.893   5.224   8.942  0.2298 -0.4328  0.2159
  143loPI   C3A 2281  13.059   5.235   8.536  0.3737 -0.3876  0.2160
  143loPI   C4A 2282  13.232   5.379   8.094  0.1965  0.6380 -0.1128
  143loPI   C5A 2283  13.370   5.468   7.613 -0.1547 -0.0346  0.0824
  143loPI   C6A 2284  13.426   5.732   7.223  0.1482 -0.0023 -0.0836
  143loPI   C1B 2285  13.361   5.009   9.331 -0.1826 -0.1518  0.2352
  143loPI   C2B 2286  13.332   4.997   8.878 -0.4950  0.1807  0.0359
  143loPI   C3B 2287  13.445   4.965   8.479  0.2173 -0.1605 -0.0670
  143loPI   C4B 2288  13.699   5.078   8.116 -0.0765  0.0929 -0.4266
  144loPI    C1 2289  18.262   7.849  10.932  0.0887  0.1253 -0.0067
  144loPI    C2 2290  17.921   7.721  11.099  0.1716 -0.0436  0.0359
  144loPI    C3 2291  18.234   7.474  11.069  0.1452 -0.0310 -0.4108
  144loPI   PO4 2292  18.166   7.842  10.625 -0.0296 -0.2401  0.1374
  144loPI   GL1 2293  18.140   7.736  10.197  0.1380 -0.0319  0.0952
  144loPI   GL2 2294  18.469   7.695  10.113 -0.0725 -0.0104 -0.0131
  144loPI   C1A 2295  17.980   7.553   9.817 -0.0210  0.0922  0.2592
  144loPI   C2A 2296  17.853   7.560   9.372 -0.0590 -0.0091  0.1137
  144loPI   C3A 2297  17.811   7.555   8.980 -0.3461  0.0872  0.1412
  144loPI   C4A 2298  17.730   7.474   8.616  0.2714  0.3351  0.0798
  144loPI   C5A 2299  17.491   7.342   8.223 -0.2676 -0.1328 -0.3630
  144loPI   C6A 2300  17.318   7.301   7.810  0.4365  0.0460  0.1474
  144loPI   C1B 2301  18.413   7.896   9.660 -0.3197 -0.1564  0.2205
  144loPI   C2B 2302  18.272   7.880   9.279  0.0859 -0.1213  0.0787
  144loPI   C3B 2303  18.456   7.935   8.967  0.1488  0.1160 -0.1285
  144loPI   C4B 2304  18.557   7.788   8.482 -0.2753 -0.0600  0.0753
  145loPI    C1 2305  18.033  12.534  10.482 -0.1064  0.1570 -0.1969
  145loPI    C2 2306  17.878  12.176  10.571  0.1423  0.0677 -0.1144
  145loPI    C3 2307  17.660  12.507  10.624 -0.0261 -0.0568 -0.0203
  145loPI   PO4 2308  18.173  12.481  10.281 -0.1438 -0.4454 -0.0968
  145loPI   GL1 2309  18.154  12.599   9.965 -0.0457 -0.2476  0.0022
  145loPI   GL2 2310  18.026  12.896  10.008  0.2525 -0.1425  0.0138
  145loPI   C1A 2311  18.199  12.608   9.585  0.2197  0.1007  0.2349
  145loPI   C2A 2312  18.254  12.717   9.189 -0.3032 -0.0986 -0.0409
  145loPI   C3A 2313  18.182  12.497   8.754 -0.3455  0.1187 -0.1665
  145loPI   C4A 2314  18.098  12.466   8.361  0.1800  0.0770  0.1155
  145loPI   C5A 2315  17.995  12.087   8.045  0.2249  0.0691  0.1932
  145loPI   C6A 2316  17.786  11.771   7.825  0.1437 -0.1178 -0.0666
  145loPI   C1B 2317  18.049  13.126   9.561  0.3106  0.4144  0.1816
  145loPI   C2B 2318  17.978  13.120   9.266 -0.2524 -0.1940  0.2157
  145loPI   C3B 2319  18.087  13.051   8.786  0.0178  0.0836 -0.1395
  145loPI   C4B 2320  17.937  13.022   8.455 -0.2473 -0.1197  0.0635
  146loPI    C1 2321  17.434   9.890  10.514  0.3506 -0.1383 -0.0924
  146loPI    C2 2322  17.583  10.258  10.469  0.0218  0.0098 -0.0053
  146loPI    C3 2323  17.459  10.136  10.829 -0.0252 -0.1265 -0.0673
  146loPI   PO4 2324  17.352   9.861  10.243 -0.2226  0.0022  0.1779
  146loPI   GL1 2325  17.502   9.926   9.803  0.1435 -0.3979 -0.1766
  146loPI   GL2 2326  17.604  10.182   9.967 -0.0722 -0.0002 -0.1599
  146loPI   C1A 2327  17.394   9.939   9.341 -0.3906 -0.1549  0.1771
  146loPI   C2A 2328  17.421  10.034   8.939 -0.2336  0.0519 -0.0103
  146loPI   C3A 2329  17.549   9.903   8.581  0.1235 -0.1760 -0.0697
  146loPI   C4A 2330  17.566   9.781   8.222  0.0672 -0.1851  0.1502
  146loPI   C5A 2331  17.602   9.456   7.933 -0.0121  0.1068  0.1790
  146loPI   C6A 2332  17.524   9.254   7.595 -0.0186  0.3231 -0.1130
  146loPI   C1B 2333  17.402  10.365   9.674  0.3709 -0.1530  0.0055
  146loPI   C2B 2334  17.421  10.453   9.213 -0.1603 -0.0543  0.2550
  146loPI   C3B 2335  17.221  10.449   8.763  0.0428  0.1962 -0.0867
  146loPI   C4B 2336  17.128  10.164   8.462 -0.0387 -0.1432  0.1790
  147loPI    C1 2337   8.332  12.053  10.057  0.0348 -0.0190  0.1375
  147loPI    C2 2338   8.159  12.223  10.376  0.0912  0.1645  0.0721
  147loPI    C3 2339   8.417  11.921  10.425  0.1983  0.2771  0.2099
  147loPI   PO4 2340   8.357  12.263   9.939 -0.1549  0.2407  0.1320
  147loPI   GL1 2341   8.622  12.421   9.613  0.0002  0.3928  0.1299
  147loPI   GL2 2342   8.936  12.366   9.383 -0.6277 -0.1299 -0.0650
  147loPI   C1A 2343   8.432  12.453   9.234 -0.1114 -0.0861 -0.0844
  147loPI   C2A 2344   8.407  12.280   8.827 -0.2530  0.1845  0.0352
  147loPI   C3A 2345   8.468  12.202   8.454  0.1332  0.1472 -0.0960
  147loPI   C4A 2346   8.496  12.114   8.072  0.0605  0.0192  0.2071
  147loPI   C5A 2347   8.588  11.781   7.772  0.1113 -0.2188  0.1391
  147loPI   C6A 2348   8.615  11.888   7.286  0.2940  0.2587 -0.1351
  147loPI   C1B 2349   9.156  12.281   9.046  0.1934 -0.2085 -0.2559
  147loPI   C2B 2350   9.376  12.104   8.647  0.3729  0.1784  0.0393
  147loPI   C3B 2351   9.397  12.153   8.161  0.0452  0.0282 -0.3012
  147loPI   C4B 2352   9.084  11.875   8.030 -0.4810  0.0141  0.3341
  148loPI    C1 2353  12.161   1.443  10.461  0.2004 -0.1615 -0.1978
  148loPI    C2 2354  12.545   1.419  10.569  0.1081 -0.1456  0.1446
  148loPI    C3 2355  12.262   1.261  10.802 -0.1027 -0.0670 -0.0545
  148loPI   PO4 2356  12.120   1.255  10.274 -0.1398 -0.3129 -0.0961
  148loPI   GL1 2357  12.027   1.210   9.876  0.2177  0.1806 -0.2466
  148loPI   GL2 2358  11.908   0.953   9.742  0.3046  0.0691  0.1332
  148loPI   C1A 2359  12.319   1.194   9.534 -0.0095 -0.0180 -0.2486
  148loPI   C2A 2360  12.314   1.226   9.062  0.1955 -0.1640  0.3115
  148loPI   C3A 2361  12.340   1.100   8.628  0.0078 -0.3275  0.0836
  148loPI   C4A 2362  12.448   1.140   8.153  0.2033 -0.1116 -0.1259
  148loPI   C5A 2363  12.562   1.505   7.977  0.4381  0.1438  0.0683
  148loPI   C6A 2364  12.896   1.647   7.963 -0.3459 -0.1198  0.1220
  148loPI   C1B 2365  12.015   0.918   9.268 -0.0921 -0.3143  0.3943
  148loPI   C2B 2366  11.964   0.852   8.852  0.1868  0.0598  0.0763
  148loPI   C3B 2367  11.992   0.752   8.388  0.2985 -0.2118  0.4811
  148loPI   C4B 2368  11.693   0.884   8.125  0.0058 -0.0263  0.3286
  149loPI    C1 2369  10.373  11.822  10.285 -0.1222  0.5247 -0.3619
  149loPI    C2 2370  10.623  11.975  10.012  0.4052  0.0577 -0.1605
  149loPI    C3 2371  10.758  11.881  10.377 -0.1815  0.2261  0.1126
  149loPI   PO4 2372  10.223  11.652  10.101 -0.0300  0.1140 -0.1185
  149loPI   GL1 2373  10.239  11.675   9.689  0.2706 -0.0997  0.2902
  149loPI   GL2 2374   9.941  11.863   9.698 -0.0827  0.3323 -0.0627
  149loPI   C1A 2375  10.073  11.645   9.267 -0.2504  0.1542  0.0544
  149loPI   C2A 2376  10.105  11.469   8.881  0.1434  0.0870 -0.1131
  149loPI   C3A 2377  10.117  11.541   8.487  0.0849  0.0329 -0.3891
  149loPI   C4A 2378  10.258  11.650   8.047  0.2859 -0.0234  0.1265
  149loPI   C5A 2379  10.648  11.573   7.862 -0.2276  0.1334  0.0856
  149loPI   C6A 2380  10.879  11.359   7.474 -0.0340 -0.3126 -0.1533
  149loPI   C1B 2381   9.810  12.078   9.358  0.1282  0.2064  0.1401
  149loPI   C2B 2382   9.855  12.109   8.931 -0.1512  0.0292 -0.2667
  149loPI   C3B 2383   9.866  12.102   8.522  0.3300  0.1049 -0.0082
  149loPI   C4B 2384  10.054  12.169   8.224  0.2355  0.0293  0.0442
  150loPI    C1 2385  16.813   5.145   9.930  0.0969 -0.0405 -0.0059
  150loPI    C2 2386  17.194   5.097  10.041  0.1478  0.1997 -0.0713
  150loPI    C3 2387  16.968   5.375  10.218 -0.0212  0.0058  0.0213
  150loPI   PO4 2388  16.728   5.077   9.682 -0.0416 -0.1588 -0.0019
  150loPI   GL1 2389  17.065   5.059   9.451  0.0456 -0.1524  0.0239
  150loPI   GL2 2390  16.895   4.651   9.406 -0.0474 -0.1857  0.0089
  150loPI   C1A 2391  17.267   5.060   9.032 -0.2127 -0.2618  0.0515
  150loPI   C2A 2392  17.539   4.950   8.592 -0.0079 -0.1687 -0.0070
  150loPI   C3A 2393  17.773   5.078   8.271  0.0585  0.1141  0.0161
  150loPI   C4A 2394  18.100   5.226   8.021 -0.1316 -0.1421  0.2578
  150loPI   C5A 2395  18.412   5.077   7.815  0.3658  0.1458  0.2420
  150loPI   C6A 2396  18.841   5.001   7.946  0.1678  0.0253  0.1832
  150loPI   C1B 2397  16.866   4.776   8.946  0.0043  0.0736 -0.0710
  150loPI   C2B 2398  16.692   4.774   8.553 -0.0982  0.1813  0.1502
  150loPI   C3B 2399  16.546   4.750   8.095 -0.0297  0.0169  0.0894
  150loPI   C4B 2400  16.839   5.111   7.988  0.2966  0.0600  0.0540
  151loPI    C1 2401   9.307  10.200  10.688 -0.0201  0.0342 -0.0437
  151loPI    C2 2402   9.557  10.279  10.990 -0.0735  0.1728 -0.0349
  151loPI    C3 2403   9.360   9.931  10.978  0.0940  0.0765 -0.0246
  151loPI   PO4 2404   9.242  10.452  10.559 -0.0755  0.1139  0.0584
  151loPI   GL1 2405   9.292  10.348  10.069 -0.1585 -0.1302  0.1623
  151loPI   GL2 2406   9.574  10.021  10.097  0.0018 -0.1678  0.0290
  151loPI   C1A 2407   9.379  10.458   9.687 -0.0329 -0.0809 -0.0036
  151loPI   C2A 2408   9.366  10.275   9.297  0.0109  0.2936  0.0688
  151loPI   C3A 2409   9.367  10.233   8.818 -0.0249 -0.0473 -0.0352
  151loPI   C4A 2410   9.545  10.140   8.430 -0.0493 -0.1587  0.1365
  151loPI   C5A 2411   9.469   9.936   7.981  0.1327 -0.2758  0.0423
  151loPI   C6A 2412   9.495   9.780   7.560  0.0761 -0.1331 -0.0181
  151loPI   C1B 2413   9.611   9.920   9.641  0.3654  0.0202  0.0007
  151loPI   C2B 2414   9.578   9.864   9.140 -0.0650  0.3799  0.0186
  151loPI   C3B 2415   9.505   9.661   8.817  0.1177  0.2816 -0.2293
  151loPI   C4B 2416   9.505   9.632   8.381  0.0727  0.0323 -0.0705
  152loPI    C1 2417   2.491  17.494  10.095  0.1697 -0.1381  0.2708
  152loPI    C2 2418   2.791  17.258   9.975  0.2463  0.0977 -0.0131
  152loPI    C3 2419   2.855  17.535  10.256  0.1981 -0.1012  0.1973
  152loPI   PO4 2420   2.349  17.526   9.868  0.0984  0.3418 -0.1035
  152loPI   GL1 2421   2.313  17.307   9.490 -0.0403  0.1772 -0.2248
  152loPI   GL2 2422   2.586  17.077   9.499 -0.2169  0.1471 -0.0072
  152loPI   C1A 2423   2.201  17.249   9.087  0.0079 -0.1328  0.0573
  152loPI   C2A 2424   1.971  17.168   8.620  0.0586  0.2042 -0.1470
  152loPI   C3A 2425   1.762  17.388   8.312  0.2447  0.1213 -0.2031
  152loPI   C4A 2426   1.685  17.456   7.902  0.0874 -0.1804  0.0957
  152loPI   C5A 2427   1.698  17.723   7.638  0.0068 -0.3395  0.1013
  152loPI   C6A 2428   1.719  18.129   7.696  0.1981 -0.2883  0.0422
  152loPI   C1B 2429   2.838  17.185   9.249  0.1012 -0.1405 -0.1040
  152loPI   C2B 2430   2.697  17.132   8.849 -0.0386 -0.0879  0.0857
  152loPI   C3B 2431   2.500  17.166   8.396  0.0801  0.0957 -0.2608
  152loPI   C4B 2432   2.236  17.194   8.107  0.1747  0.1137  0.0781
  153loPI    C1 2433  11.417   6.171  10.593  0.0679 -0.0383  0.1775
  153loPI    C2 2434  11.374   6.474  10.850  0.1635  0.0596  0.0790
  153loPI    C3 2435  11.599   6.159  10.949 -0.1151 -0.0840  0.2712
  153loPI   PO4 2436  11.564   6.185  10.354 -0.2215 -0.1507 -0.1387
  153loPI   GL1 2437  11.559   6.245   9.860 -0.0326 -0.1029 -0.2898
  153loPI   GL2 2438  11.612   5.974   9.852 -0.1786  0.0655  0.3286
  153loPI   C1A 2439  11.532   6.456   9.507 -0.0535 -0.0661  0.1570
  153loPI   C2A 2440  11.416   6.477   9.011 -0.1485 -0.1610  0.0297
  153loPI   C3A 2441  11.443   6.263   8.620  0.0740 -0.1233 -0.1787
  153loPI   C4A 2442  11.505   6.097   8.213  0.1179  0.0845 -0.1924
  153loPI   C5A 2443  11.742   5.790   8.000  0.0050 -0.0897 -0.2282
  153loPI   C6A 2444  11.932   5.375   7.870 -0.1291  0.0187  0.3008
  153loPI   C1B 2445  11.612   5.986   9.446  0.1741 -0.0421 -0.0866
  153loPI   C2B 2446  11.654   5.849   8.992  0.0311 -0.5001  0.1424
  153loPI   C3B 2447  11.635   5.801   8.558 -0.3853 -0.0221 -0.1880
  153loPI   C4B 2448  11.186   5.709   8.279  0.0925 -0.0958 -0.0961
  154loPI    C1 2449   1.193   0.417  10.558  0.0054  0.0329 -0.1132
  154loPI    C2 2450   1.559   0.268  10.623  0.1349  0.4114  0.0605
  154loPI    C3 2451   1.278   0.237  10.906 -0.0110  0.0114 -0.1204
  154loPI   PO4 2452   1.149   0.374  10.287 -0.1925  0.2361  0.2601
  154loPI   GL1 2453   1.116   0.147   9.911 -0.2532  0.1776  0.0887
  154loPI   GL2 2454   1.362   0.009   9.775 -0.1804  0.1832 -0.2452
  154loPI   C1A 2455   0.957   0.303   9.533 -0.0231 -0.1498 -0.2872
  154loPI   C2A 2456   0.825   0.534   9.141  0.0185  0.1717  0.0508
  154loPI   C3A 2457   0.676   0.470   8.797 -0.0323 -0.1274  0.1324
  154loPI   C4A 2458   0.622   0.482   8.309 -0.2714  0.2163 -0.0371
  154loPI   C5A 2459   0.658   0.744   7.869 -0.0918 -0.2357 -0.2789
  154loPI   C6A 2460   0.787   0.852   7.474  0.2296 -0.0172  0.0846
  154loPI   C1B 2461   1.062  -0.123   9.472  0.0000  0.0472 -0.0348
  154loPI   C2B 2462   0.908   0.033   9.076  0.2476  0.0864 -0.1175
  154loPI   C3B 2463   0.708  -0.060   8.698 -0.1143  0.0249  0.1434
  154loPI   C4B 2464   0.792  -0.509   8.608 -0.0505 -0.1611  0.0387
  155loPI    C1 2465  14.015   6.250  10.257  0.1065  0.1430  0.1179
  155loPI    C2 2466  13.910   5.870  10.326  0.0861  0.1459  0.1030
  155loPI    C3 2467  14.229   6.027  10.511  0.1529  0.0920  0.0344
  155loPI   PO4 2468  13.948   6.273  10.016 -0.0699  0.0015  0.1091
  155loPI   GL1 2469  13.861   6.528   9.734 -0.2408 -0.0437 -0.0117
  155loPI   GL2 2470  13.539   6.514   9.827 -0.1274 -0.1951 -0.0481
  155loPI   C1A 2471  13.869   6.640   9.331 -0.0861 -0.0464  0.1378
  155loPI   C2A 2472  13.986   6.648   9.006  0.2556 -0.2508 -0.0938
  155loPI   C3A 2473  13.807   6.474   8.649  0.0402  0.1588  0.0852
  155loPI   C4A 2474  13.613   6.568   8.214  0.1209 -0.0898 -0.2711
  155loPI   C5A 2475  13.325   6.322   7.953 -0.0582 -0.2012 -0.0411
  155loPI   C6A 2476  13.238   5.887   7.897  0.0120  0.0561  0.2114
  155loPI   C1B 2477  13.390   6.685   9.423  0.0520  0.0240  0.0265
  155loPI   C2B 2478  13.408   6.667   9.054  0.0540  0.2568 -0.0778
  155loPI   C3B 2479  13.285   6.703   8.577  0.2135  0.1244  0.0507
  155loPI   C4B 2480  13.135   6.811   8.157  0.2037 -0.2530 -0.1251
  156loPI    C1 2481   2.440   2.223  10.550 -0.0821  0.0075  0.2779
  156loPI    C2 2482   2.783   2.421  10.489 -0.1641  0.0900  0.0769
  156loPI    C3 2483   2.545   2.523  10.793 -0.1982  0.2932 -0.0165
  156loPI   PO4 2484   2.378   2.203  10.280 -0.1746 -0.0786  0.0108
  156loPI   GL1 2485   2.063   2.056   9.943  0.0279 -0.0732  0.0480
  156loPI   GL2 2486   2.175   1.768   9.758  0.0041  0.0540  0.3256
  156loPI   C1A 2487   2.076   2.362   9.543  0.0308  0.2542 -0.2690
  156loPI   C2A 2488   1.924   2.503   9.120 -0.1513 -0.0803 -0.1651
  156loPI   C3A 2489   1.884   2.395   8.691 -0.0199  0.3057 -0.1228
  156loPI   C4A 2490   1.861   2.352   8.266 -0.0731 -0.2440 -0.0338
  156loPI   C5A 2491   1.533   2.125   8.053 -0.3394  0.0832  0.0099
  156loPI   C6A 2492   1.251   2.180   7.809  0.2555  0.0173 -0.1355
  156loPI   C1B 2493   2.213   1.943   9.351 -0.2546 -0.0926 -0.1627
  156loPI   C2B 2494   2.151   1.891   8.875  0.1403 -0.1752  0.0079
  156loPI   C3B 2495   2.210   1.916   8.411 -0.0362  0.1584 -0.1873
  156loPI   C4B 2496   2.013   1.804   8.107  0.2326 -0.3289  0.0303
  157loPI    C1 2497   1.018   3.429  10.550  0.4077  0.0774 -0.2853
  157loPI    C2 2498   1.026   3.747  10.793 -0.1489 -0.2844  0.2370
  157loPI    C3 2499   1.278   3.442  10.854  0.1185 -0.1209 -0.0228
  157loPI   PO4 2500   0.991   3.546  10.291  0.2585  0.0702  0.0090
  157loPI   GL1 2501   1.067   3.563   9.912  0.0666 -0.0130  0.1278
  157loPI   GL2 2502   1.160   3.259   9.893 -0.2739 -0.1788  0.0926
  157loPI   C1A 2503   0.991   3.820   9.575 -0.1777 -0.0111  0.3817
  157loPI   C2A 2504   1.002   3.720   9.179 -0.3748 -0.2632  0.0138
  157loPI   C3A 2505   0.909   3.892   8.784  0.3448 -0.0185 -0.0447
  157loPI   C4A 2506   0.915   3.790   8.380  0.2150 -0.1015  0.3296
  157loPI   C5A 2507   0.589   3.573   8.028 -0.1013 -0.0885  0.0102
  157loPI   C6A 2508   0.134   3.578   7.929  0.0930  0.2824  0.1444
  157loPI   C1B 2509   1.286   3.294   9.366 -0.1223 -0.1609  0.1492
  157loPI   C2B 2510   1.528   3.440   9.048  0.3477 -0.0332  0.0680
  157loPI   C3B 2511   1.931   3.597   9.109 -0.1766  0.0497 -0.0118
  157loPI   C4B 2512   2.149   3.832   9.389  0.0483 -0.0410 -0.3197
  158loPI    C1 2513   6.275   9.866  10.499  0.1470 -0.1570 -0.3316
  158loPI    C2 2514   6.404  10.209  10.337  0.2422  0.0212  0.1058
  158loPI    C3 2515   6.141  10.216  10.639 -0.0667 -0.3100 -0.1450
  158loPI   PO4 2516   6.242   9.729  10.320  0.1187 -0.0545 -0.1990
  158loPI   GL1 2517   6.364   9.759   9.953 -0.1104  0.0799 -0.5305
  158loPI   GL2 2518   6.396  10.000   9.808 -0.0352 -0.2454 -0.0043
  158loPI   C1A 2519   6.318   9.623   9.444  0.2190 -0.0913 -0.1460
  158loPI   C2A 2520   6.208   9.542   8.985  0.0073 -0.1305 -0.1030
  158loPI   C3A 2521   6.279   9.343   8.562 -0.1668  0.1602 -0.1155
  158loPI   C4A 2522   6.432   9.379   8.174 -0.1886  0.0243 -0.0943
  158loPI   C5A 2523   6.700   9.501   7.856 -0.1787 -0.0410  0.0640
  158loPI   C6A 2524   6.923   9.777   7.479 -0.0361  0.2196 -0.0534
  158loPI   C1B 2525   6.359  10.146   9.356  0.1261 -0.3136 -0.2441
  158loPI   C2B 2526   6.383  10.217   8.977  0.5277  0.2509  0.1679
  158loPI   C3B 2527   6.400  10.220   8.516 -0.0204  0.0074  0.1515
  158loPI   C4B 2528   6.135  10.208   8.077  0.0522 -0.1838  0.0948
  159loPI    C1 2529   6.527  17.062  10.410 -0.0848 -0.1617 -0.1031
  159loPI    C2 2530   6.201  17.279  10.492  0.0326 -0.0516  0.0779
  159loPI    C3 2531   6.470  17.205  10.779  0.1986 -0.0885 -0.0850
  159loPI   PO4 2532   6.576  17.166  10.134 -0.3502 -0.1538  0.1414
  159loPI   GL1 2533   6.417  17.071   9.775  0.0526 -0.2700 -0.1256
  159loPI   GL2 2534   6.221  16.776   9.621 -0.2515 -0.0533  0.1004
  159loPI   C1A 2535   6.670  17.348   9.487 -0.1135 -0.1517  0.0719
  159loPI   C2A 2536   6.623  17.589   9.138  0.1151  0.1773  0.0203
  159loPI   C3A 2537   6.487  17.646   8.707  0.2690  0.1952 -0.1045
  159loPI   C4A 2538   6.535  17.740   8.207 -0.4687 -0.0660  0.1234
  159loPI   C5A 2539   6.913  17.771   7.874 -0.1034  0.0820  0.1975
  159loPI   C6A 2540   7.312  17.507   7.799  0.0222  0.1490  0.1398
  159loPI   C1B 2541   6.305  16.811   9.199 -0.3140  0.1518  0.1907
  159loPI   C2B 2542   6.216  16.853   8.836  0.1426 -0.4925 -0.0519
  159loPI   C3B 2543   6.328  16.793   8.410  0.0476  0.0187  0.0332
  159loPI   C4B 2544   6.365  17.008   8.030  0.1254 -0.1923  0.1461
  160loPI    C1 2545   1.551  17.672  10.431  0.3232 -0.0529  0.2984
  160loPI    C2 2546   1.546  17.578  10.820  0.0243 -0.2723  0.2451
  160loPI    C3 2547   1.595  17.291  10.546  0.2957 -0.1105  0.1195
  160loPI   PO4 2548   1.655  17.858  10.396 -0.1396 -0.3155  0.0668
  160loPI   GL1 2549   1.546  17.877   9.939  0.0763 -0.1535  0.0202
  160loPI   GL2 2550   1.355  17.723   9.831  0.1609  0.0400  0.4447
  160loPI   C1A 2551   1.569  17.946   9.416 -0.0300 -0.1223  0.1611
  160loPI   C2A 2552   1.349  17.909   8.997  0.1692 -0.0670 -0.0904
  160loPI   C3A 2553   1.232  18.063   8.656  0.0968 -0.4588  0.1400
  160loPI   C4A 2554   1.050  18.092   8.264  0.0784 -0.1791  0.2818
  160loPI   C5A 2555   0.799  17.783   8.086  0.0940  0.2001 -0.0811
  160loPI   C6A 2556   0.544  17.476   8.032 -0.1504  0.0641  0.1139
  160loPI   C1B 2557   1.064  17.714   9.488  0.1521  0.0750 -0.1864
  160loPI   C2B 2558   0.970  17.614   9.041 -0.2090  0.0829 -0.0842
  160loPI   C3B 2559   1.237  17.567   8.616  0.0295 -0.0820  0.1140
  160loPI   C4B 2560   1.295  17.533   8.217  0.3100 -0.1269  0.7776
  161loPI    C1 2561  17.283   0.834  10.679  0.0046 -0.0286  0.1055
  161loPI    C2 2562  17.553   1.003  10.921 -0.2220  0.1041  0.2690
  161loPI    C3 2563  17.285   0.746  11.069 -0.1547 -0.0670  0.0981
  161loPI   PO4 2564  17.535   1.021  10.406  0.2117  0.0512 -0.1073
  161loPI   GL1 2565  17.555   1.016   9.933  0.1144  0.1319  0.4796
  161loPI   GL2 2566  17.193   1.001   9.847  0.0463  0.0901  0.3372
  161loPI   C1A 2567  17.768   0.908   9.552 -0.4515  0.1922 -0.1423
  161loPI   C2A 2568  17.798   1.010   9.148 -0.2292 -0.0812 -0.0807
  161loPI   C3A 2569  17.804   1.063   8.733  0.0880  0.1221 -0.1313
  161loPI   C4A 2570  17.806   0.836   8.368 -0.1057  0.0366 -0.1379
  161loPI   C5A 2571  17.927   0.651   7.999 -0.1440  0.1709 -0.0067
  161loPI   C6A 2572  18.152   0.380   7.733  0.2870 -0.2702  0.2619
  161loPI   C1B 2573  17.277   0.871   9.457 -0.1574 -0.0463  0.2066
  161loPI   C2B 2574  17.367   0.769   8.977  0.2623 -0.1036  0.1070
  161loPI   C3B 2575  17.289   0.898   8.581 -0.1198 -0.0366  0.0326
  161loPI   C4B 2576  17.327   1.081   8.165  0.0867  0.1085  0.1512
  162loPI    C1 2577   2.522  15.124   9.911 -0.1091  0.1962  0.1118
  162loPI    C2 2578   2.750  15.306  10.185  0.0874 -0.0699  0.1296
  162loPI    C3 2579   2.856  15.314   9.799 -0.0029  0.0093  0.1062
  162loPI   PO4 2580   2.292  15.203   9.891  0.3709  0.1856 -0.1797
  162loPI   GL1 2581   2.043  15.335   9.619 -0.0648 -0.0168 -0.0429
  162loPI   GL2 2582   2.352  15.341   9.436 -0.1284  0.0006  0.0880
  162loPI   C1A 2583   1.896  15.476   9.262  0.0288 -0.0005 -0.1665
  162loPI   C2A 2584   1.621  15.260   8.865 -0.1709 -0.1343 -0.1217
  162loPI   C3A 2585   1.441  15.324   8.503  0.5028  0.3047 -0.0026
  162loPI   C4A 2586   1.382  15.656   8.089 -0.1726 -0.1698  0.1026
  162loPI   C5A 2587   1.258  16.046   7.813 -0.3442  0.4117 -0.1314
  162loPI   C6A 2588   0.978  16.361   7.592  0.1111 -0.3326 -0.1644
  162loPI   C1B 2589   2.520  15.770   9.176 -0.1244 -0.0417  0.1120
  162loPI   C2B 2590   2.448  15.841   8.673 -0.0781 -0.2628  0.0492
  162loPI   C3B 2591   2.328  15.768   8.335 -0.1881 -0.2300 -0.1040
  162loPI   C4B 2592   2.475  15.734   7.998  0.0186 -0.0721 -0.1555
  163loPI    C1 2593   5.717   6.576  10.487  0.0096  0.0060  0.0460
  163loPI    C2 2594   5.852   6.238  10.653 -0.2425 -0.0346  0.1741
  163loPI    C3 2595   5.849   6.578  10.865 -0.3869 -0.0454  0.1902
  163loPI   PO4 2596   5.521   6.510  10.387 -0.1442  0.0199 -0.0946
  163loPI   GL1 2597   5.558   6.244   9.951  0.0461 -0.1969  0.2464
  163loPI   GL2 2598   5.609   5.906   9.863  0.1947  0.2649 -0.1572
  163loPI   C1A 2599   5.455   6.400   9.628 -0.0840 -0.0892 -0.1170
  163loPI   C2A 2600   5.537   6.477   9.240 -0.0495 -0.1828 -0.0296
  163loPI   C3A 2601   5.595   6.540   8.819  0.1695 -0.0596 -0.1541
  163loPI   C4A 2602   5.732   6.527   8.369 -0.1517  0.0444  0.1827
  163loPI   C5A 2603   5.668   6.161   7.934 -0.4139  0.0579 -0.1048
  163loPI   C6A 2604   5.354   5.974   7.822  0.2285 -0.1482  0.1460
  163loPI   C1B 2605   5.692   6.016   9.459  0.1990 -0.0769 -0.0761
  163loPI   C2B 2606   5.754   6.009   9.028 -0.0558 -0.1664 -0.1902
  163loPI   C3B 2607   5.831   6.148   8.657  0.2179  0.0835 -0.1377
  163loPI   C4B 2608   6.035   6.073   8.309  0.0617  0.0993  0.0949
  164loPI    C1 2609  11.124  17.841  10.574  0.0995  0.1319 -0.0877
  164loPI    C2 2610  11.022  18.228  10.577 -0.1719  0.0627  0.2447
  164loPI    C3 2611  11.064  18.029  10.922  0.1414 -0.1624  0.0824
  164loPI   PO4 2612  10.991  17.692  10.469 -0.0111  0.1081  0.1252
  164loPI   GL1 2613  10.947  17.552  10.032 -0.1873 -0.2195 -0.4157
  164loPI   GL2 2614  10.673  17.760   9.803  0.1109  0.0500 -0.0317
  164loPI   C1A 2615  11.093  17.495   9.655  0.0962 -0.1918  0.1209
  164loPI   C2A 2616  11.002  17.403   9.164 -0.1222 -0.0826  0.0795
  164loPI   C3A 2617  10.968  17.170   8.731  0.0332  0.1569 -0.1072
  164loPI   C4A 2618  10.794  17.052   8.325  0.2199  0.0213 -0.1062
  164loPI   C5A 2619  10.917  16.855   7.862 -0.0735  0.2272  0.0441
  164loPI   C6A 2620  10.887  17.110   7.458 -0.0901 -0.0977  0.1105
  164loPI   C1B 2621  10.614  17.686   9.409 -0.2309 -0.2689  0.1923
  164loPI   C2B 2622  10.609  17.741   9.044  0.1032 -0.2147  0.0641
  164loPI   C3B 2623  10.526  17.495   8.634 -0.1761  0.2057 -0.2346
  164loPI   C4B 2624  10.351  17.411   8.203  0.0893  0.3958 -0.1376
  165loPI    C1 2625   9.233  12.126  10.459  0.0536 -0.0391  0.0049
  165loPI    C2 2626   9.520  11.973  10.691  0.1195  0.1297  0.0367
  165loPI    C3 2627   9.248  12.221  10.847  0.1280  0.1963 -0.0537
  165loPI   PO4 2628   9.320  12.047  10.231  0.1594 -0.0383  0.0891
  165loPI   GL1 2629   9.088  12.164   9.817  0.2217  0.1700 -0.1756
  165loPI   GL2 2630   8.841  11.936   9.775  0.1109  0.3308  0.0049
  165loPI   C1A 2631   9.305  11.956   9.448 -0.1404  0.0747 -0.0468
  165loPI   C2A 2632   9.621  11.726   9.018  0.1895  0.3098 -0.1104
  165loPI   C3A 2633   9.654  11.627   8.643 -0.3285  0.0330  0.3209
  165loPI   C4A 2634   9.684  11.759   8.252 -0.3698 -0.3214 -0.2090
  165loPI   C5A 2635   9.789  11.920   7.875 -0.1640 -0.3817  0.1641
  165loPI   C6A 2636   9.552  12.164   7.653  0.2137  0.4604  0.0497
  165loPI   C1B 2637   8.770  11.922   9.326 -0.0626 -0.0922  0.2575
  165loPI   C2B 2638   8.631  11.867   8.981  0.1847 -0.0369 -0.0856
  165loPI   C3B 2639   8.771  11.810   8.592 -0.0855  0.1268  0.1272
  165loPI   C4B 2640   8.769  11.507   8.211 -0.1309 -0.1770 -0.0751
  166loPI    C1 2641  15.774  16.671  10.628 -0.2945  0.2085 -0.0388
  166loPI    C2 2642  15.761  16.873  10.974  0.0953 -0.0895  0.1582
  166loPI    C3 2643  15.894  16.496  10.967  0.3249 -0.0086 -0.3542
  166loPI   PO4 2644  15.586  16.785  10.451 -0.2030  0.2463 -0.0796
  166loPI   GL1 2645  15.133  16.756  10.227  0.0773 -0.3379 -0.0147
  166loPI   GL2 2646  14.906  16.933  10.084  0.1002 -0.3517  0.1443
  166loPI   C1A 2647  15.236  16.805   9.740 -0.1038  0.2373 -0.1369
  166loPI   C2A 2648  15.273  16.751   9.233  0.0048 -0.4194  0.3418
  166loPI   C3A 2649  15.263  16.728   8.819 -0.3993 -0.0558  0.1649
  166loPI   C4A 2650  15.143  17.053   8.551 -0.1108  0.0086  0.5232
  166loPI   C5A 2651  15.297  17.430   8.348  0.1188  0.1578 -0.2271
  166loPI   C6A 2652  15.530  17.591   8.048  0.0019  0.3091  0.0018
  166loPI   C1B 2653  14.849  17.107   9.622 -0.1555  0.1563 -0.0349
  166loPI   C2B 2654  14.855  16.983   9.195 -0.1989 -0.0786  0.0088
  166loPI   C3B 2655  14.635  17.119   8.842 -0.0907  0.2969  0.2323
  166loPI   C4B 2656  14.718  17.187   8.413  0.2525 -0.1877  0.0300
  167loPI    C1 2657  16.368  16.613  10.631 -0.1768 -0.0845 -0.0873
  167loPI    C2 2658  16.685  16.379  10.696 -0.1093 -0.0289 -0.2133
  167loPI    C3 2659  16.646  16.722  10.897 -0.2980 -0.2296  0.1021
  167loPI   PO4 2660  16.206  16.545  10.414  0.0175 -0.0790 -0.0953
  167loPI   GL1 2661  16.004  16.693  10.043 -0.3056 -0.0123  0.0376
  167loPI   GL2 2662  15.714  16.695   9.943  0.0669  0.1707  0.0768
  167loPI   C1A 2663  15.916  16.265   9.718 -0.3787  0.0711  0.3830
  167loPI   C2A 2664  15.824  16.100   9.316 -0.0556  0.0672 -0.0104
  167loPI   C3A 2665  15.816  16.110   8.815  0.0673 -0.1545  0.4013
  167loPI   C4A 2666  15.505  16.362   8.451 -0.3008 -0.2862  0.0616
  167loPI   C5A 2667  15.290  16.200   8.147 -0.0236  0.2530  0.2151
  167loPI   C6A 2668  14.924  16.264   7.812  0.1407  0.0761  0.0970
  167loPI   C1B 2669  15.703  16.619   9.508 -0.2612 -0.0479 -0.0128
  167loPI   C2B 2670  15.693  16.626   9.034  0.1455 -0.1574  0.0324
  167loPI   C3B 2671  15.926  16.628   8.711 -0.0405  0.1292  0.1809
  167loPI   C4B 2672  15.936  16.431   8.211 -0.0405  0.0926 -0.1341
  168loPI    C1 2673   2.791  11.053  10.565  0.0237 -0.1551 -0.0892
  168loPI    C2 2674   3.017  10.827  10.806  0.1138  0.1746  0.1419
  168loPI    C3 2675   3.180  11.134  10.607 -0.1040  0.3430  0.2187
  168loPI   PO4 2676   2.758  10.909  10.388  0.1416 -0.1231  0.2002
  168loPI   GL1 2677   2.693  11.096   9.963 -0.0848  0.1632  0.1350
  168loPI   GL2 2678   2.447  10.988   9.739 -0.4323 -0.0926  0.4408
  168loPI   C1A 2679   2.898  11.371   9.710  0.5023  0.0287  0.0635
  168loPI   C2A 2680   2.845  11.734   9.424 -0.0122  0.0301  0.0266
  168loPI   C3A 2681   2.929  11.789   9.034 -0.0525 -0.4227 -0.0471
  168loPI   C4A 2682   2.990  11.684   8.594  0.0037 -0.0044 -0.0573
  168loPI   C5A 2683   2.991  11.658   8.191  0.2588  0.1347  0.0397
  168loPI   C6A 2684   3.053  11.948   7.869 -0.0132  0.2030  0.2497
  168loPI   C1B 2685   2.740  11.034   9.370 -0.0364  0.3019 -0.2400
  168loPI   C2B 2686   2.881  11.231   9.091  0.2318 -0.3470  0.3568
  168loPI   C3B 2687   2.953  11.177   8.708 -0.2043 -0.2821  0.1249
  168loPI   C4B 2688   2.968  11.087   8.246  0.1398  0.2190 -0.0775
  169loPI    C1 2689   6.346  16.478  10.204 -0.2082  0.0831  0.2533
  169loPI    C2 2690   6.585  16.387  10.512 -0.0108 -0.3942 -0.0302
  169loPI    C3 2691   6.271  16.627  10.568  0.2658 -0.1271  0.4466
  169loPI   PO4 2692   6.533  16.629  10.051  0.0544  0.0005  0.0939
  169loPI   GL1 2693   6.903  16.748   9.803 -0.0194 -0.2833 -0.2143
  169loPI   GL2 2694   6.882  16.434   9.704 -0.2257  0.0822 -0.2451
  169loPI   C1A 2695   6.738  16.852   9.416 -0.5713  0.0078  0.3430
  169loPI   C2A 2696   6.723  16.981   9.026 -0.1349 -0.2659 -0.1545
  169loPI   C3A 2697   6.623  17.127   8.611  0.1315  0.4147 -0.2677
  169loPI   C4A 2698   6.887  17.406   8.443  0.3574 -0.1048 -0.1086
  169loPI   C5A 2699   7.237  17.660   8.302  0.0219 -0.1056 -0.0432
  169loPI   C6A 2700   7.659  17.567   8.136 -0.3274  0.2408 -0.1734
  169loPI   C1B 2701   7.152  16.348   9.310 -0.3231 -0.1703  0.1925
  169loPI   C2B 2702   7.225  16.591   9.010  0.0432  0.0988 -0.2643
  169loPI   C3B 2703   7.020  16.827   8.593 -0.0446 -0.0584  0.1239
  169loPI   C4B 2704   6.844  16.884   8.239  0.3216  0.1374  0.2300
  170loPI    C1 2705  12.314   9.736  10.474 -0.1021 -0.2205  0.0431
  170loPI    C2 2706  12.499   9.562  10.782  0.3025 -0.1657 -0.1623
  170loPI    C3 2707  12.549   9.953  10.715 -0.2897 -0.0409  0.0668
  170loPI   PO4 2708  12.429   9.593  10.202  0.0468 -0.2071 -0.2369
  170loPI   GL1 2709  12.411   9.713   9.738  0.1286  0.0535 -0.0408
  170loPI   GL2 2710  12.149   9.564   9.707  0.0877 -0.0018  0.1021
  170loPI   C1A 2711  12.582   9.423   9.342 -0.1347  0.1075  0.1462
  170loPI   C2A 2712  12.507   9.040   9.105  0.2692 -0.0675 -0.1093
  170loPI   C3A 2713  12.367   8.679   8.791  0.0580  0.2394  0.2465
  170loPI   C4A 2714  12.484   8.735   8.371 -0.1690 -0.1084 -0.0565
  170loPI   C5A 2715  12.587   8.556   7.959  0.1978  0.0751 -0.2212
  170loPI   C6A 2716  12.376   8.695   7.602 -0.2775  0.4285  0.0691
  170loPI   C1B 2717  12.115   9.453   9.224 -0.0184 -0.1113 -0.1945
  170loPI   C2B 2718  11.841   9.301   8.960 -0.1589 -0.0567  0.5269
  170loPI   C3B 2719  11.525   9.295   8.645 -0.3124 -0.2872  0.2921
  170loPI   C4B 2720  11.384   9.120   8.197  0.2110  0.0200  0.1290
  171loPI    C1 2721   5.353  12.442   9.917 -0.1831  0.1306  0.0266
  171loPI    C2 2722   5.226  12.504  10.291  0.1238  0.6478  0.0543
  171loPI    C3 2723   5.602  12.386  10.225 -0.0778  0.0415 -0.0739
  171loPI   PO4 2724   5.264  12.639   9.764  0.0219 -0.3785  0.0559
  171loPI   GL1 2725   4.995  12.581   9.472 -0.0334  0.1917 -0.0425
  171loPI   GL2 2726   4.704  12.701   9.522 -0.1730 -0.1694 -0.0125
  171loPI   C1A 2727   5.037  12.554   8.992  0.0344  0.0142 -0.0854
  171loPI   C2A 2728   5.009  12.500   8.567 -0.1691  0.2137 -0.0492
  171loPI   C3A 2729   4.993  12.690   8.171 -0.2117 -0.0302  0.1420
  171loPI   C4A 2730   5.066  12.762   7.751  0.1767  0.2064 -0.0264
  171loPI   C5A 2731   5.349  12.636   7.408  0.0156  0.3161 -0.0003
  171loPI   C6A 2732   5.624  12.785   7.185 -0.0523  0.3233  0.0214
  171loPI   C1B 2733   4.578  12.672   9.229  0.2137  0.2381 -0.2262
  171loPI   C2B 2734   4.611  12.781   8.742  0.0912  0.2719  0.0659
  171loPI   C3B 2735   4.565  12.945   8.301  0.0904 -0.0730  0.0359
  171loPI   C4B 2736   4.632  13.004   7.917 -0.0974 -0.1506  0.0015
  172loPI    C1 2737   2.869  16.323  10.036  0.0106  0.3828 -0.1499
  172loPI    C2 2738   3.180  16.090  10.132 -0.3315 -0.1108 -0.2068
  172loPI    C3 2739   3.001  16.311  10.414  0.1231  0.2537 -0.1924
  172loPI   PO4 2740   3.024  16.379   9.745  0.1713  0.1628 -0.4501
  172loPI   GL1 2741   3.211  16.155   9.468  0.0368  0.1040 -0.0468
  172loPI   GL2 2742   3.175  15.913   9.632  0.1758  0.1537 -0.0225
  172loPI   C1A 2743   3.145  16.197   8.983 -0.1411 -0.2799  0.1861
  172loPI   C2A 2744   3.080  16.346   8.588  0.1225 -0.0723  0.2255
  172loPI   C3A 2745   3.289  16.513   8.233  0.2448 -0.0916 -0.3929
  172loPI   C4A 2746   3.606  16.372   7.952 -0.2765 -0.1656  0.1677
  172loPI   C5A 2747   3.864  16.168   7.685  0.0728  0.0454 -0.0117
  172loPI   C6A 2748   3.920  15.742   7.273  0.2001 -0.2376  0.2382
  172loPI   C1B 2749   3.000  15.817   9.210  0.2652  0.1144  0.1269
  172loPI   C2B 2750   3.005  15.802   8.754  0.0075 -0.3119 -0.0062
  172loPI   C3B 2751   2.899  15.940   8.285 -0.0106 -0.0521  0.0226
  172loPI   C4B 2752   3.229  16.035   8.075  0.2083  0.2281 -0.2237
  173loPI    C1 2753  13.124  11.827  10.324 -0.3459  0.2027  0.0080
  173loPI    C2 2754  13.221  12.211  10.378 -0.0688  0.1624 -0.1833
  173loPI    C3 2755  13.341  11.935  10.642 -0.2823  0.2072 -0.0369
  173loPI   PO4 2756  13.152  11.849  10.012 -0.4429 -0.3306  0.0219
  173loPI   GL1 2757  13.023  12.007   9.620  0.0958  0.2673  0.0879
  173loPI   GL2 2758  12.677  12.046   9.656  0.6219 -0.1862 -0.1524
  173loPI   C1A 2759  13.078  12.183   9.280 -0.0820 -0.3380 -0.0185
  173loPI   C2A 2760  13.253  12.241   8.938 -0.0920  0.0606 -0.0496
  173loPI   C3A 2761  13.522  12.062   8.612  0.0702  0.0133 -0.3670
  173loPI   C4A 2762  13.705  12.017   8.344 -0.1671 -0.0909 -0.2268
  173loPI   C5A 2763  14.190  11.950   8.127  0.2950  0.2197  0.1373
  173loPI   C6A 2764  14.695  11.782   8.145 -0.0256 -0.0720  0.0279
  173loPI   C1B 2765  12.658  11.923   9.234  0.1256 -0.0834  0.0357
  173loPI   C2B 2766  12.964  11.796   8.906  0.0776 -0.0096 -0.2095
  173loPI   C3B 2767  13.012  11.961   8.452 -0.2353 -0.0899 -0.0528
  173loPI   C4B 2768  13.266  12.165   8.091  0.0439  0.2513 -0.1406
  174loPI    C1 2769   8.767   4.422  10.822  0.1442  0.2911  0.0607
  174loPI    C2 2770   8.604   4.285  11.161 -0.1165  0.2624 -0.0741
  174loPI    C3 2771   8.888   4.566  11.175 -0.1519  0.2881  0.1666
  174loPI   PO4 2772   8.843   4.236  10.676 -0.1041  0.0212 -0.0726
  174loPI   GL1 2773   8.947   4.202  10.307 -0.2359  0.0776 -0.0879
  174loPI   GL2 2774   8.780   3.910  10.253  0.1672 -0.2259  0.1419
  174loPI   C1A 2775   8.860   4.240   9.844 -0.0261  0.3015 -0.1572
  174loPI   C2A 2776   8.833   4.148   9.431 -0.3117  0.1253 -0.1120
  174loPI   C3A 2777   8.943   4.258   9.079  0.1428 -0.0588 -0.0425
  174loPI   C4A 2778   8.904   4.305   8.676  0.0312 -0.0294 -0.2188
  174loPI   C5A 2779   8.957   4.120   8.303  0.1356 -0.0238 -0.0794
  174loPI   C6A 2780   9.201   4.079   7.900  0.2323  0.0661  0.0529
  174loPI   C1B 2781   8.550   3.792   9.884 -0.0781  0.1360 -0.0182
  174loPI   C2B 2782   8.381   3.413   9.608 -0.0001 -0.1266  0.1575
  174loPI   C3B 2783   8.308   3.352   9.169  0.1113 -0.1952 -0.2750
  174loPI   C4B 2784   8.365   3.577   8.805 -0.1795 -0.0388 -0.1237
  175loPI    C1 2785  16.552   9.741  10.390 -0.1286  0.5429  0.1578
  175loPI    C2 2786  16.290   9.679  10.685 -0.0828  0.0065  0.0959
  175loPI    C3 2787  16.665   9.544  10.719 -0.0370  0.0682 -0.1480
  175loPI   PO4 2788  16.287   9.828  10.197 -0.2867 -0.2095  0.1843
  175loPI   GL1 2789  16.138   9.609   9.817 -0.0082 -0.3172  0.0128
  175loPI   GL2 2790  15.866   9.368   9.852 -0.1279 -0.0642 -0.1423
  175loPI   C1A 2791  16.181   9.741   9.308  0.1947 -0.1304 -0.1692
  175loPI   C2A 2792  16.235   9.721   8.826 -0.0428  0.0519  0.1033
  175loPI   C3A 2793  16.134   9.741   8.330 -0.3179 -0.0830 -0.0709
  175loPI   C4A 2794  16.145   9.660   7.927 -0.3028 -0.0217 -0.0708
  175loPI   C5A 2795  16.176   9.616   7.511 -0.3094 -0.0316 -0.1231
  175loPI   C6A 2796  16.094   9.812   7.250 -0.1065 -0.2223  0.1942
  175loPI   C1B 2797  15.779   9.183   9.429  0.1261 -0.0047 -0.0589
  175loPI   C2B 2798  15.581   9.201   8.975 -0.1186 -0.1084 -0.2817
  175loPI   C3B 2799  15.445   9.159   8.500 -0.0990 -0.0117  0.0295
  175loPI   C4B 2800  15.327   9.230   7.985 -0.3619 -0.0802  0.1726
  176loPI    C1 2801  15.221   1.209  10.493 -0.1097 -0.1888  0.1479
  176loPI    C2 2802  14.970   1.083  10.209  0.1313  0.3319 -0.3164
  176loPI    C3 2803  15.307   0.881  10.282 -0.1705 -0.0886 -0.0345
  176loPI   PO4 2804  14.983   1.411  10.571  0.0563 -0.0529  0.1053
  176loPI   GL1 2805  14.649   1.445  10.250  0.0669 -0.2483  0.0009
  176loPI   GL2 2806  14.344   1.671  10.245 -0.0083  0.0376 -0.2617
  176loPI   C1A 2807  14.636   1.338   9.782  0.1818 -0.0608  0.0302
  176loPI   C2A 2808  14.565   1.152   9.364 -0.0734  0.1992 -0.4588
  176loPI   C3A 2809  14.683   1.210   8.914 -0.1741 -0.1154 -0.2914
  176loPI   C4A 2810  14.753   0.852   8.548  0.0347  0.2926  0.2561
  176loPI   C5A 2811  14.650   0.621   8.243 -0.0397 -0.2834  0.0507
  176loPI   C6A 2812  14.929   0.195   8.263 -0.0837 -0.1067 -0.0884
  176loPI   C1B 2813  14.438   1.801   9.836  0.2352  0.0753  0.2114
  176loPI   C2B 2814  14.549   1.728   9.359 -0.2069 -0.0717  0.0361
  176loPI   C3B 2815  14.439   1.699   8.942  0.1349  0.0402 -0.1352
  176loPI   C4B 2816  14.367   1.464   8.504  0.2782  0.0166  0.0205
  177loPI    C1 2817  16.113   3.914  10.436 -0.0138 -0.1246  0.1195
  177loPI    C2 2818  15.853   4.213  10.382 -0.0499 -0.1542  0.1298
  177loPI    C3 2819  16.204   4.283  10.560  0.0722 -0.0548 -0.1455
  177loPI   PO4 2820  16.176   3.794  10.141 -0.0243  0.0336  0.3443
  177loPI   GL1 2821  16.135   4.008   9.719  0.0044 -0.2751  0.0346
  177loPI   GL2 2822  16.013   3.753   9.638  0.3666 -0.0970  0.0794
  177loPI   C1A 2823  16.349   3.947   9.292 -0.3584 -0.0497  0.0570
  177loPI   C2A 2824  16.256   3.805   8.913  0.0678 -0.1363  0.0533
  177loPI   C3A 2825  16.236   3.909   8.561  0.1104 -0.4129  0.0668
  177loPI   C4A 2826  16.491   3.867   8.181  0.0999  0.2008  0.0032
  177loPI   C5A 2827  16.709   3.678   7.897 -0.3026 -0.1519 -0.1588
  177loPI   C6A 2828  17.070   3.446   7.841  0.0326 -0.1525 -0.3476
  177loPI   C1B 2829  15.865   3.752   9.307 -0.0967 -0.3272  0.2260
  177loPI   C2B 2830  15.716   3.794   8.874  0.0289  0.2519  0.0415
  177loPI   C3B 2831  15.681   3.863   8.470  0.0884  0.1170  0.0604
  177loPI   C4B 2832  15.450   3.778   8.162  0.0042  0.0884 -0.0718
  178loPI    C1 2833   6.861  14.070  10.436  0.3254  0.0147  0.2849
  178loPI    C2 2834   6.756  13.686  10.399  0.1237  0.0707  0.2657
  178loPI    C3 2835   6.544  13.930  10.635 -0.0990  0.3048 -0.1637
  178loPI   PO4 2836   6.936  14.241  10.216 -0.0698 -0.1628  0.0567
  178loPI   GL1 2837   6.854  14.253   9.693 -0.2752 -0.0716  0.0922
  178loPI   GL2 2838   6.705  14.092   9.549 -0.1705 -0.0347 -0.3101
  178loPI   C1A 2839   6.803  14.592   9.412  0.3183 -0.2796  0.1169
  178loPI   C2A 2840   6.712  14.924   9.181 -0.1174 -0.1024 -0.0915
  178loPI   C3A 2841   6.745  15.074   8.705  0.3480 -0.0577  0.2338
  178loPI   C4A 2842   6.784  15.031   8.344 -0.5308 -0.2779 -0.1299
  178loPI   C5A 2843   6.785  15.137   7.809 -0.0113  0.1153 -0.1613
  178loPI   C6A 2844   6.713  15.235   7.402  0.1413 -0.1358 -0.2480
  178loPI   C1B 2845   6.751  14.123   9.091  0.0618  0.1365  0.1252
  178loPI   C2B 2846   6.770  14.117   8.731 -0.1386 -0.1728 -0.1142
  178loPI   C3B 2847   6.566  13.955   8.351  0.0676  0.3318 -0.1270
  178loPI   C4B 2848   6.474  13.912   7.925 -0.0433  0.2344 -0.0774
  179loPI    C1 2849  10.075   8.683  10.385 -0.2791  0.2407 -0.2756
  179loPI    C2 2850  10.238   9.013  10.540 -0.0113 -0.0001 -0.0321
  179loPI    C3 2851   9.994   8.787  10.762 -0.2408  0.0624 -0.2169
  179loPI   PO4 2852  10.258   8.584  10.262 -0.0755  0.0697 -0.1310
  179loPI   GL1 2853  10.172   8.335   9.932 -0.2460  0.2134  0.1794
  179loPI   GL2 2854  10.466   8.384   9.740  0.0263  0.0585 -0.1409
  179loPI   C1A 2855   9.849   8.457   9.558  0.2802  0.0754  0.0419
  179loPI   C2A 2856   9.810   8.358   9.124  0.0060 -0.0164 -0.1733
  179loPI   C3A 2857   9.942   8.351   8.745 -0.0906 -0.1520 -0.2289
  179loPI   C4A 2858   9.999   8.226   8.333 -0.1165  0.0083  0.0090
  179loPI   C5A 2859  10.162   7.993   7.942 -0.1417 -0.0754 -0.3556
  179loPI   C6A 2860  10.558   7.694   8.040  0.2417 -0.0315 -0.0930
  179loPI   C1B 2861  10.284   8.353   9.316  0.1527 -0.1331 -0.1201
  179loPI   C2B 2862  10.413   8.271   8.896  0.2955 -0.0706 -0.0249
  179loPI   C3B 2863  10.440   8.148   8.548  0.0868  0.3445  0.1743
  179loPI   C4B 2864  10.516   8.235   8.064 -0.1579  0.0667  0.0206
  180loPI    C1 2865   3.957   2.481  10.443  0.0202 -0.1051  0.0615
  180loPI    C2 2866   4.315   2.641  10.520  0.0678 -0.2334  0.1115
  180loPI    C3 2867   4.103   2.476  10.816  0.0230 -0.2701  0.0590
  180loPI   PO4 2868   3.830   2.639  10.339  0.1232 -0.0120  0.2180
  180loPI   GL1 2869   3.805   2.524   9.882  0.1097  0.0121 -0.1060
  180loPI   GL2 2870   3.569   2.294   9.745 -0.0127  0.1320  0.1077
  180loPI   C1A 2871   4.095   2.477   9.528  0.1547  0.0182  0.0768
  180loPI   C2A 2872   4.038   2.403   9.121 -0.0261  0.0629 -0.4167
  180loPI   C3A 2873   3.977   2.369   8.683  0.2499  0.1734  0.0155
  180loPI   C4A 2874   3.912   2.414   8.254 -0.1981  0.1603 -0.0815
  180loPI   C5A 2875   3.801   2.503   7.827  0.1815  0.1763 -0.0009
  180loPI   C6A 2876   3.542   2.519   7.521  0.2137 -0.0001  0.2811
  180loPI   C1B 2877   3.599   2.154   9.331 -0.1757 -0.0527  0.0525
  180loPI   C2B 2878   3.599   2.147   8.889 -0.0182  0.0631 -0.1419
  180loPI   C3B 2879   3.563   2.160   8.488  0.1383 -0.1306 -0.1842
  180loPI   C4B 2880   3.453   2.088   7.961 -0.2940  0.0343 -0.2213
  181loPI    C1 2881  18.224  15.185  10.427  0.0335  0.0773  0.1179
  181loPI    C2 2882  18.120  15.122  10.808  0.2748 -0.0739  0.1611
  181loPI    C3 2883  18.486  15.021  10.682  0.2243  0.0520 -0.0916
  181loPI   PO4 2884  17.974  15.159  10.305 -0.0472 -0.3176  0.3025
  181loPI   GL1 2885  17.878  14.947   9.868  0.1796 -0.1017  0.2175
  181loPI   GL2 2886  18.129  14.808   9.795 -0.0222 -0.0126 -0.0065
  181loPI   C1A 2887  17.727  14.873   9.413  0.1809  0.0968 -0.0731
  181loPI   C2A 2888  17.704  14.748   8.974 -0.1836 -0.0067  0.0492
  181loPI   C3A 2889  17.645  14.588   8.484 -0.0931  0.0760 -0.1692
  181loPI   C4A 2890  17.557  14.367   8.017 -0.2065  0.0239 -0.0045
  181loPI   C5A 2891  17.933  14.532   7.695  0.1027 -0.1010  0.0775
  181loPI   C6A 2892  18.339  14.598   7.708 -0.1245  0.0789  0.0363
  181loPI   C1B 2893  18.138  14.625   9.454  0.0372  0.0575 -0.0360
  181loPI   C2B 2894  18.094  14.502   9.088 -0.1603 -0.0939  0.2388
  181loPI   C3B 2895  18.058  14.307   8.719  0.0282  0.0069  0.5301
  181loPI   C4B 2896  18.037  14.418   8.215  0.0822  0.0803  0.1902
  182loPI    C1 2897   2.049  14.111  10.201 -0.0011  0.2417 -0.1038
  182loPI    C2 2898   1.831  14.402  10.035 -0.1529  0.1672 -0.0372
  182loPI    C3 2899   1.921  14.416  10.425 -0.2524  0.0713 -0.0102
  182loPI   PO4 2900   2.300  14.148  10.065 -0.1721 -0.1748 -0.0024
  182loPI   GL1 2901   2.586  14.139   9.799 -0.2337 -0.1789 -0.1725
  182loPI   GL2 2902   2.682  14.388   9.636 -0.4148 -0.5030  0.2937
  182loPI   C1A 2903   2.511  14.001   9.324 -0.2603 -0.1018 -0.2354
  182loPI   C2A 2904   2.555  14.054   8.894 -0.1787  0.0312 -0.1488
  182loPI   C3A 2905   2.522  14.084   8.533 -0.0706  0.0242 -0.0501
  182loPI   C4A 2906   2.599  13.920   8.132  0.0278 -0.1946  0.0147
  182loPI   C5A 2907   2.735  13.948   7.687 -0.1890  0.0105 -0.1416
  182loPI   C6A 2908   2.909  14.347   7.445  0.3037  0.1925 -0.0631
  182loPI   C1B 2909   2.780  14.439   9.247 -0.0436 -0.2338 -0.2619
  182loPI   C2B 2910   2.809  14.531   8.801 -0.1141  0.0638 -0.1194
  182loPI   C3B 2911   2.832  14.500   8.349  0.0012 -0.0682  0.3814
  182loPI   C4B 2912   2.792  14.399   7.956 -0.1505  0.0667 -0.1935
  183loPI    C1 2913   5.637   4.794  10.770  0.2398  0.1557 -0.1074
  183loPI    C2 2914   5.446   5.077  10.562  0.0526  0.0603 -0.0668
  183loPI    C3 2915   5.488   5.114  10.958  0.0246  0.0297 -0.0609
  183loPI   PO4 2916   5.563   4.571  10.574  0.0186 -0.1225 -0.0672
  183loPI   GL1 2917   5.413   4.706  10.258 -0.2142  0.0478  0.0749
  183loPI   GL2 2918   5.741   4.854  10.038 -0.0465 -0.0273  0.2035
  183loPI   C1A 2919   5.351   4.504   9.813  0.1086  0.0536 -0.5774
  183loPI   C2A 2920   5.477   4.305   9.420 -0.0482  0.0576 -0.4474
  183loPI   C3A 2921   5.487   4.230   9.004  0.3033  0.1106  0.1176
  183loPI   C4A 2922   5.230   4.300   8.660  0.4024  0.1569  0.0289
  183loPI   C5A 2923   4.940   4.435   8.272  0.0114 -0.2421 -0.1361
  183loPI   C6A 2924   4.786   4.265   7.965 -0.1244  0.1126  0.0656
  183loPI   C1B 2925   5.809   4.628   9.659 -0.0909  0.0763  0.2945
  183loPI   C2B 2926   5.828   4.649   9.226 -0.3410 -0.1465  0.1306
  183loPI   C3B 2927   5.889   4.512   8.787  0.2597 -0.1225  0.0714
  183loPI   C4B 2928   6.152   4.294   8.368 -0.3187 -0.0962  0.1355
  184loPI    C1 2929   2.258  12.010  10.335  0.0046  0.0304 -0.1548
  184loPI    C2 2930   2.505  11.930  10.639  0.0947  0.0809 -0.2140
  184loPI    C3 2931   2.177  11.708  10.584  0.0501  0.1044 -0.0493
  184loPI   PO4 2932   2.376  12.027  10.158 -0.0340 -0.3174 -0.2397
  184loPI   GL1 2933   2.466  12.310   9.783  0.0669 -0.1010  0.1114
  184loPI   GL2 2934   2.786  12.111   9.821 -0.1701 -0.2650  0.0809
  184loPI   C1A 2935   2.514  12.513   9.285  0.1166 -0.1568  0.3882
  184loPI   C2A 2936   2.635  12.663   8.878 -0.0831  0.1212 -0.1734
  184loPI   C3A 2937   2.774  12.649   8.461  0.0299 -0.5173 -0.0617
  184loPI   C4A 2938   2.733  12.487   8.090 -0.0010 -0.1955 -0.2395
  184loPI   C5A 2939   2.626  12.242   7.621  0.2480 -0.0904  0.1564
  184loPI   C6A 2940   2.677  12.030   7.183 -0.0764 -0.2174  0.1255
  184loPI   C1B 2941   3.022  12.175   9.462 -0.0700 -0.2148 -0.0887
  184loPI   C2B 2942   2.954  12.283   9.001 -0.0817 -0.2512 -0.1382
  184loPI   C3B 2943   3.097  12.224   8.609 -0.2738  0.0166 -0.0247
  184loPI   C4B 2944   3.083  12.206   8.266  0.0167 -0.2198 -0.2120
  185loPI    C1 2945  14.667  11.534  10.349  0.1239  0.0914 -0.0267
  185loPI    C2 2946  14.750  11.393  10.714 -0.2918  0.2483  0.1350
  185loPI    C3 2947  14.459  11.226  10.497  0.1922 -0.0815 -0.2838
  185loPI   PO4 2948  15.008  11.568  10.245  0.2351  0.0465 -0.3923
  185loPI   GL1 2949  14.944  11.909  10.080  0.2618  0.0893 -0.1359
  185loPI   GL2 2950  14.702  11.804   9.919 -0.0401 -0.1153  0.0092
  185loPI   C1A 2951  15.067  11.777   9.645 -0.2599  0.4513  0.1978
  185loPI   C2A 2952  15.342  11.472   9.467 -0.2483 -0.2035 -0.2535
  185loPI   C3A 2953  15.568  11.373   9.078  0.2036  0.2211  0.0913
  185loPI   C4A 2954  15.733  11.516   8.709  0.0583  0.2976  0.1523
  185loPI   C5A 2955  15.570  11.624   8.354  0.0395  0.1362  0.0968
  185loPI   C6A 2956  15.454  11.967   8.290  0.0372  0.6265  0.3110
  185loPI   C1B 2957  14.457  11.720   9.657 -0.2451  0.1122  0.0687
  185loPI   C2B 2958  14.326  11.567   9.241  0.1537  0.3925 -0.0304
  185loPI   C3B 2959  14.482  11.375   8.942 -0.1331  0.0899  0.3724
  185loPI   C4B 2960  14.557  11.552   8.587 -0.0245  0.1520  0.1280
  186loPI    C1 2961  11.389   7.154  10.313  0.0145 -0.0548  0.2393
  186loPI    C2 2962  11.252   7.401  10.597 -0.0057 -0.0996  0.2685
  186loPI    C3 2963  11.635   7.422  10.481 -0.0595  0.0896  0.1202
  186loPI   PO4 2964  11.271   7.093   9.989  0.2233 -0.0438  0.0385
  186loPI   GL1 2965  11.428   6.997   9.676 -0.0837 -0.1569 -0.0538
  186loPI   GL2 2966  11.208   6.967   9.478 -0.1020  0.0307 -0.2069
  186loPI   C1A 2967  11.674   6.942   9.291 -0.2997  0.0033  0.1591
  186loPI   C2A 2968  11.652   6.954   8.869 -0.2944  0.0837  0.0843
  186loPI   C3A 2969  11.718   6.694   8.597 -0.1998  0.1158 -0.0428
  186loPI   C4A 2970  11.813   6.590   8.253  0.0227  0.0617  0.1301
  186loPI   C5A 2971  11.865   6.738   7.791  0.1865  0.1231  0.2313
  186loPI   C6A 2972  11.753   6.936   7.364  0.1656 -0.4506  0.2650
  186loPI   C1B 2973  11.151   6.911   9.037 -0.4329 -0.2876 -0.0130
  186loPI   C2B 2974  11.208   6.744   8.604 -0.0434 -0.1278  0.1542
  186loPI   C3B 2975  11.152   6.498   8.244 -0.1969  0.0320  0.1944
  186loPI   C4B 2976  11.113   6.404   7.770  0.0591 -0.3689  0.1615
  187loPI    C1 2977   3.025   5.420  10.644  0.1988 -0.1544  0.3136
  187loPI    C2 2978   2.711   5.449  10.889 -0.0289 -0.0091  0.0125
  187loPI    C3 2979   3.082   5.489  11.033 -0.1639  0.2205  0.3068
  187loPI   PO4 2980   2.898   5.588  10.434 -0.1625 -0.0845 -0.0153
  187loPI   GL1 2981   2.603   5.606  10.112  0.1494  0.0542  0.0495
  187loPI   GL2 2982   2.371   5.417  10.021 -0.0646  0.1459  0.0109
  187loPI   C1A 2983   2.531   5.808   9.723 -0.2194 -0.1692 -0.2043
  187loPI   C2A 2984   2.533   5.779   9.280 -0.2951  0.1144  0.0527
  187loPI   C3A 2985   2.662   5.809   8.925  0.0100  0.0026 -0.2067
  187loPI   C4A 2986   2.579   5.525   8.523 -0.2470 -0.2563 -0.1427
  187loPI   C5A 2987   2.466   5.192   8.257  0.2564  0.2049  0.1746
  187loPI   C6A 2988   2.420   5.220   7.906 -0.3404 -0.0866  0.1218
  187loPI   C1B 2989   2.764   5.356   9.684  0.2079 -0.1474  0.1296
  187loPI   C2B 2990   2.899   5.340   9.323 -0.2783 -0.0291  0.0922
  187loPI   C3B 2991   2.959   5.410   8.970  0.3210 -0.4991 -0.1523
  187loPI   C4B 2992   3.087   5.568   8.562  0.2930  0.0194  0.1723
  188loPI    C1 2993   3.369  16.573  10.084 -0.0412  0.1464  0.1619
  188loPI    C2 2994   3.716  16.677  10.253  0.0748 -0.1179  0.0929
  188loPI    C3 2995   3.384  16.651  10.476  0.1490 -0.1005  0.2063
  188loPI   PO4 2996   3.506  16.389   9.898  0.2137  0.3392  0.0533
  188loPI   GL1 2997   3.398  16.612   9.533  0.2067  0.1050  0.1451
  188loPI   GL2 2998   3.183  16.917   9.360 -0.4098  0.0976  0.1056
  188loPI   C1A 2999   3.654  16.803   9.309  0.2086  0.0222 -0.1340
  188loPI   C2A 3000   4.056  16.901   9.371  0.1566 -0.2020 -0.1517
  188loPI   C3A 3001   4.349  16.891   8.997 -0.0974 -0.3216  0.1237
  188loPI   C4A 3002   4.417  16.965   8.599 -0.0601 -0.2641  0.0079
  188loPI   C5A 3003   4.364  16.851   8.253 -0.1800  0.1469  0.0539
  188loPI   C6A 3004   4.425  16.594   7.826 -0.0656 -0.1188 -0.1269
  188loPI   C1B 3005   3.260  16.721   8.930 -0.1881  0.2396 -0.0458
  188loPI   C2B 3006   3.389  16.865   8.579  0.1976 -0.1428 -0.0517
  188loPI   C3B 3007   3.600  16.986   8.132 -0.2389  0.1650  0.1147
  188loPI   C4B 3008   3.978  16.975   7.839 -0.3791 -0.0258  0.1271
  189loPI    C1 3009  13.726   2.144  10.988 -0.0839 -0.2233  0.2153
  189loPI    C2 3010  13.448   2.431  11.023 -0.0859 -0.1749 -0.1643
  189loPI    C3 3011  13.815   2.488  11.172 -0.2120 -0.1507  0.1430
  189loPI   PO4 3012  13.668   2.021  10.712  0.1715  0.2293 -0.3113
  189loPI   GL1 3013  13.786   2.176  10.231 -0.0549 -0.0109  0.3443
  189loPI   GL2 3014  14.029   2.102  10.035 -0.2013  0.0920  0.2254
  189loPI   C1A 3015  13.606   1.884   9.925 -0.2343 -0.1521 -0.1705
  189loPI   C2A 3016  13.576   1.709   9.495 -0.0810 -0.0412  0.0836
  189loPI   C3A 3017  13.591   1.643   9.131 -0.1561 -0.0034  0.0784
  189loPI   C4A 3018  13.665   1.628   8.752 -0.0477  0.1122  0.0924
  189loPI   C5A 3019  13.705   1.339   8.413 -0.3357 -0.0676 -0.0930
  189loPI   C6A 3020  13.807   0.949   8.265 -0.0330 -0.1700 -0.1524
  189loPI   C1B 3021  14.040   2.000   9.596 -0.0711 -0.1895  0.2122
  189loPI   C2B 3022  14.052   2.107   9.165  0.1999  0.0864 -0.0839
  189loPI   C3B 3023  14.110   1.981   8.712  0.0418 -0.0911  0.2333
  189loPI   C4B 3024  13.999   1.777   8.383  0.2765 -0.1625 -0.0258
  190loPI    C1 3025   3.498   0.197  10.047 -0.0798 -0.0819 -0.1829
  190loPI    C2 3026   3.418   0.064  10.416 -0.1259  0.1545 -0.1062
  190loPI    C3 3027   3.759   0.259  10.343 -0.1007  0.0769 -0.1972
  190loPI   PO4 3028   3.180   0.059   9.963  0.2224 -0.0164 -0.1628
  190loPI   GL1 3029   2.945   0.146   9.663 -0.0718 -0.2596 -0.0048
  190loPI   GL2 3030   2.786   0.431   9.616 -0.0157  0.1922 -0.3344
  190loPI   C1A 3031   3.119   0.081   9.256  0.1494  0.2654 -0.2564
  190loPI   C2A 3032   3.111   0.033   8.777  0.0594 -0.1063 -0.1026
  190loPI   C3A 3033   3.168  -0.209   8.442  0.1118 -0.0900 -0.0398
  190loPI   C4A 3034   3.226  -0.440   8.111  0.0461  0.0959 -0.1193
  190loPI   C5A 3035   2.962  -0.541   7.747 -0.1992 -0.1596 -0.4024
  190loPI   C6A 3036   2.951  -0.105   7.593 -0.0599  0.2425  0.0980
  190loPI   C1B 3037   2.762   0.429   9.167  0.0084 -0.0412  0.1808
  190loPI   C2B 3038   2.831   0.552   8.780 -0.0952 -0.0058  0.0502
  190loPI   C3B 3039   2.925   0.364   8.439  0.0224  0.1562  0.1027
  190loPI   C4B 3040   2.924   0.235   8.015  0.0967 -0.2067  0.0859
  191loPI    C1 3041  14.245   2.286  10.552 -0.1492 -0.1081  0.0718
  191loPI    C2 3042  14.217   1.927  10.725 -0.1728 -0.0955  0.0944
  191loPI    C3 3043  14.266   2.253  10.950 -0.0491 -0.0953  0.0678
  191loPI   PO4 3044  14.461   2.231  10.317  0.1364 -0.0442 -0.2694
  191loPI   GL1 3045  14.630   2.276   9.939 -0.1173  0.0955  0.1712
  191loPI   GL2 3046  14.403   2.534   9.876 -0.2903  0.0409  0.3030
  191loPI   C1A 3047  14.608   2.279   9.485  0.2776 -0.3015  0.1266
  191loPI   C2A 3048  14.546   2.171   9.051  0.2016 -0.2742  0.3294
  191loPI   C3A 3049  14.560   2.062   8.565 -0.0477 -0.2529 -0.2403
  191loPI   C4A 3050  14.536   1.853   8.212 -0.0764 -0.0447 -0.0610
  191loPI   C5A 3051  14.632   1.787   7.809  0.1510  0.0374  0.0249
  191loPI   C6A 3052  14.821   1.766   7.484 -0.2302 -0.2215  0.1697
  191loPI   C1B 3053  14.060   2.489   9.640 -0.2559 -0.2436  0.2132
  191loPI   C2B 3054  13.762   2.690   9.424  0.1549 -0.1809 -0.2953
  191loPI   C3B 3055  13.596   2.575   8.965 -0.0027  0.2172  0.0135
  191loPI   C4B 3056  13.732   2.505   8.568  0.1872  0.0978 -0.2262
  192loPI    C1 3057   7.078  15.467   9.910 -0.0186 -0.0189 -0.0633
  192loPI    C2 3058   7.312  15.542  10.227  0.2337 -0.1671 -0.2110
  192loPI    C3 3059   7.158  15.176  10.173 -0.1445 -0.0368 -0.0447
  192loPI   PO4 3060   6.828  15.581   9.852  0.0563 -0.0000  0.2124
  192loPI   GL1 3061   6.788  15.957   9.614 -0.2082  0.0946  0.1308
  192loPI   GL2 3062   7.096  15.926   9.504  0.1022 -0.0609 -0.0758
  192loPI   C1A 3063   6.679  15.825   9.211  0.1160  0.1056 -0.1747
  192loPI   C2A 3064   6.711  15.908   8.723 -0.1094  0.1429  0.1518
  192loPI   C3A 3065   6.779  15.903   8.275  0.1414 -0.2426  0.1401
  192loPI   C4A 3066   6.836  16.232   7.905  0.0872  0.0891  0.1546
  192loPI   C5A 3067   7.122  16.513   7.670 -0.1699  0.0134 -0.4180
  192loPI   C6A 3068   7.239  16.694   7.300  0.1428  0.0623  0.0554
  192loPI   C1B 3069   7.138  15.962   9.060 -0.2544 -0.0887  0.0506
  192loPI   C2B 3070   7.147  16.129   8.621  0.2204 -0.0798  0.1094
  192loPI   C3B 3071   7.263  16.055   8.210 -0.0326  0.0036  0.1024
  192loPI   C4B 3072   7.360  16.132   7.851 -0.1352 -0.0959  0.2078
  193loPI    C1 3073  15.906   8.148  10.234 -0.1357 -0.0671  0.0343
  193loPI    C2 3074  15.729   8.488  10.122  0.0015  0.0191  0.0770
  193loPI    C3 3075  15.552   8.250  10.391 -0.0469  0.1069  0.1236
  193loPI   PO4 3076  16.212   8.223  10.124 -0.0563 -0.4507 -0.0593
  193loPI   GL1 3077  16.531   7.984   9.833  0.0576 -0.0607  0.1464
  193loPI   GL2 3078  16.350   7.754   9.925  0.0079  0.0453  0.2205
  193loPI   C1A 3079  16.715   8.165   9.483 -0.2362  0.2076  0.1479
  193loPI   C2A 3080  16.640   8.209   8.966  0.4166 -0.0069 -0.0367
  193loPI   C3A 3081  16.601   8.331   8.602  0.3113 -0.2634  0.0743
  193loPI   C4A 3082  16.525   8.599   8.371 -0.0518 -0.0315  0.0618
  193loPI   C5A 3083  16.611   8.936   7.984 -0.2253 -0.1094 -0.3216
  193loPI   C6A 3084  16.638   8.963   7.623 -0.0174  0.1322 -0.1905
  193loPI   C1B 3085  16.274   7.549   9.533 -0.1976 -0.2209  0.0136
  193loPI   C2B 3086  16.317   7.517   9.137  0.0131  0.0851 -0.0045
  193loPI   C3B 3087  16.217   7.417   8.649  0.1168  0.1311  0.3425
  193loPI   C4B 3088  16.050   7.246   8.314  0.2991 -0.2165 -0.0900
  194loPI    C1 3089   9.264   1.076  10.509  0.2131 -0.1026 -0.0900
  194loPI    C2 3090   8.949   1.173  10.736  0.2713 -0.0170 -0.0455
  194loPI    C3 3091   9.040   0.789  10.673  0.1180 -0.0425 -0.1135
  194loPI   PO4 3092   9.299   1.310  10.373  0.1095  0.1853 -0.0310
  194loPI   GL1 3093   9.340   1.338   9.992 -0.0128 -0.1137 -0.2030
  194loPI   GL2 3094   9.387   0.964   9.903 -0.2808  0.0550 -0.0129
  194loPI   C1A 3095   9.369   1.396   9.637  0.0009 -0.1868  0.1511
  194loPI   C2A 3096   9.254   1.552   9.211  0.0783 -0.2296 -0.0044
  194loPI   C3A 3097   9.199   1.631   8.723 -0.0702  0.2632 -0.1743
  194loPI   C4A 3098   9.173   1.807   8.384 -0.0232 -0.0542  0.0921
  194loPI   C5A 3099   9.132   1.951   7.953  0.1547  0.0580  0.1791
  194loPI   C6A 3100   9.162   2.052   7.651  0.2263 -0.0293  0.0056
  194loPI   C1B 3101   9.482   0.906   9.403 -0.1734  0.1832  0.0426
  194loPI   C2B 3102   9.368   1.089   8.969  0.1878  0.0133  0.1483
  194loPI   C3B 3103   9.202   1.147   8.554  0.1057  0.0667  0.0842
  194loPI   C4B 3104   9.350   1.022   8.198 -0.1091 -0.1502  0.0659
  195loPI    C1 3105   6.281  11.458  10.294 -0.0054 -0.1950  0.0313
  195loPI    C2 3106   6.143  11.673  10.601  0.1806 -0.0442  0.0108
  195loPI    C3 3107   6.233  11.287  10.652  0.0508 -0.0627  0.1028
  195loPI   PO4 3108   6.097  11.524  10.119  0.3015 -0.0779 -0.2979
  195loPI   GL1 3109   6.036  11.594   9.662 -0.0531 -0.2993  0.4547
  195loPI   GL2 3110   6.267  11.846   9.616  0.0311  0.1898  0.0883
  195loPI   C1A 3111   5.831  11.475   9.342 -0.0133 -0.3415  0.0546
  195loPI   C2A 3112   5.784  11.452   8.913 -0.1340 -0.1329  0.0619
  195loPI   C3A 3113   5.892  11.514   8.562  0.2468  0.4548 -0.0770
  195loPI   C4A 3114   5.884  11.649   8.108 -0.0916  0.0726  0.0858
  195loPI   C5A 3115   6.129  11.748   7.823  0.1434  0.1629  0.1025
  195loPI   C6A 3116   6.330  11.986   7.602  0.1557 -0.0506 -0.0165
  195loPI   C1B 3117   6.371  11.737   9.274 -0.0006 -0.1269 -0.0741
  195loPI   C2B 3118   6.366  11.731   8.866 -0.2604  0.1390 -0.1224
  195loPI   C3B 3119   6.431  11.775   8.438  0.0291  0.0283  0.0561
  195loPI   C4B 3120   6.543  11.644   8.060  0.2087  0.0898  0.4615
  196loPI    C1 3121   1.927   3.879  10.532 -0.2113 -0.2591 -0.1262
  196loPI    C2 3122   1.701   3.627  10.744 -0.1912 -0.0721  0.1218
  196loPI    C3 3123   1.954   3.874  10.931 -0.1586  0.0825 -0.1222
  196loPI   PO4 3124   2.062   3.755  10.336  0.0063  0.1777 -0.1634
  196loPI   GL1 3125   2.220   3.725   9.960  0.0722 -0.0477 -0.2240
  196loPI   GL2 3126   2.465   3.921   9.804 -0.0376  0.2380 -0.3747
  196loPI   C1A 3127   2.073   3.343   9.647 -0.0824 -0.0405  0.1676
  196loPI   C2A 3128   1.795   3.133   9.352 -0.1670 -0.0251 -0.0903
  196loPI   C3A 3129   1.706   2.957   8.928  0.1479  0.1496 -0.3904
  196loPI   C4A 3130   1.452   2.837   8.660  0.1312  0.2206 -0.2138
  196loPI   C5A 3131   1.146   3.093   8.355 -0.1032  0.0932  0.0639
  196loPI   C6A 3132   0.982   3.274   7.963 -0.1203  0.2163 -0.0450
  196loPI   C1B 3133   2.635   3.969   9.490 -0.2209  0.1456  0.0252
  196loPI   C2B 3134   2.644   3.877   9.061  0.1832 -0.0511  0.0008
  196loPI   C3B 3135   2.691   3.870   8.719  0.0765  0.2659  0.0940
  196loPI   C4B 3136   2.823   3.876   8.241  0.0073 -0.2838 -0.1394
  197loPI    C1 3137   0.447  11.627  10.590 -0.0257 -0.0642 -0.0627
  197loPI    C2 3138   0.059  11.569  10.666  0.0474 -0.2435  0.1840
  197loPI    C3 3139   0.306  11.685  10.959  0.1309  0.1454 -0.0336
  197loPI   PO4 3140   0.475  11.671  10.293  0.1044 -0.0141  0.2664
  197loPI   GL1 3141   0.761  11.748  10.052  0.1219  0.1763  0.3409
  197loPI   GL2 3142   0.607  12.003   9.788 -0.0432  0.0436  0.3480
  197loPI   C1A 3143   0.960  11.637   9.540 -0.0548 -0.4543 -0.0678
  197loPI   C2A 3144   1.341  11.695   9.273  0.1245  0.0937  0.0010
  197loPI   C3A 3145   1.449  11.832   8.895  0.0881  0.3902 -0.0012
  197loPI   C4A 3146   1.564  11.663   8.435 -0.1091 -0.2420  0.2535
  197loPI   C5A 3147   1.580  11.576   8.058  0.1976  0.0305  0.0372
  197loPI   C6A 3148   1.706  11.480   7.772 -0.4093 -0.2874  0.2169
  197loPI   C1B 3149   0.560  11.955   9.330  0.0952  0.0332 -0.1181
  197loPI   C2B 3150   0.531  11.913   8.894 -0.2240  0.1210  0.0808
  197loPI   C3B 3151   0.536  11.871   8.501 -0.0443 -0.1333  0.2934
  197loPI   C4B 3152   0.466  11.731   8.044 -0.0560 -0.0711  0.2554
  198loPI    C1 3153   7.444   7.376  10.776 -0.0120 -0.1005 -0.0053
  198loPI    C2 3154   7.329   7.066  10.552 -0.0252 -0.0909 -0.0119
  198loPI    C3 3155   7.246   7.071  10.943  0.0021 -0.1100 -0.0059
  198loPI   PO4 3156   7.598   7.511  10.550 -0.1847  0.0018 -0.1717
  198loPI   GL1 3157   7.514   7.287  10.160  0.1988  0.0644 -0.0580
  198loPI   GL2 3158   7.223   7.383  10.203 -0.0834  0.1621 -0.2514
  198loPI   C1A 3159   7.633   7.525   9.832 -0.0278  0.0643 -0.2394
  198loPI   C2A 3160   7.620   7.560   9.375  0.3254 -0.0202 -0.0258
  198loPI   C3A 3161   7.580   7.556   8.890 -0.2417  0.1700  0.5142
  198loPI   C4A 3162   7.693   7.445   8.490  0.1224  0.1401  0.1466
  198loPI   C5A 3163   7.327   7.377   8.111  0.0208  0.1911 -0.0284
  198loPI   C6A 3164   7.384   7.039   7.770 -0.2464  0.0847  0.1580
  198loPI   C1B 3165   7.120   7.643   9.923 -0.0391 -0.4498  0.2208
  198loPI   C2B 3166   7.041   7.511   9.460 -0.0816  0.2810  0.0478
  198loPI   C3B 3167   7.024   7.574   9.018  0.1249 -0.2752 -0.2335
  198loPI   C4B 3168   7.172   7.496   8.623 -0.0075 -0.1124 -0.2811
  199loPI    C1 3169   5.734  16.516  10.378  0.0700 -0.1210 -0.1087
  199loPI    C2 3170   5.546  16.858  10.293 -0.0503 -0.1325  0.1032
  199loPI    C3 3171   5.813  16.845  10.591  0.0151 -0.2037  0.0418
  199loPI   PO4 3172   5.826  16.422  10.164 -0.2661 -0.2746  0.2041
  199loPI   GL1 3173   5.928  16.489   9.832 -0.0733  0.0359  0.0781
  199loPI   GL2 3174   5.761  16.785   9.804  0.1603  0.1900 -0.2671
  199loPI   C1A 3175   5.822  16.342   9.461  0.2314  0.0470  0.0838
  199loPI   C2A 3176   5.881  16.505   9.053  0.0266 -0.0424  0.0810
  199loPI   C3A 3177   6.044  16.408   8.679  0.0964 -0.0017  0.0467
  199loPI   C4A 3178   6.156  16.331   8.346  0.0033  0.0496  0.0442
  199loPI   C5A 3179   6.367  16.432   7.998  0.2716  0.0083 -0.0726
  199loPI   C6A 3180   6.698  16.717   7.826  0.1551  0.1431  0.1228
  199loPI   C1B 3181   5.725  16.872   9.366  0.2730 -0.0136 -0.0629
  199loPI   C2B 3182   5.630  16.938   8.938  0.3428 -0.0657  0.3103
  199loPI   C3B 3183   5.797  16.915   8.490 -0.2813  0.2870 -0.0149
  199loPI   C4B 3184   5.928  16.757   8.080 -0.0856 -0.1217 -0.1642
  200loPI    C1 3185  11.219  11.539  10.529 -0.0433 -0.1321 -0.2322
  200loPI    C2 3186  11.588  11.410  10.614 -0.0719 -0.1383 -0.1162
  200loPI    C3 3187  11.277  11.286  10.833 -0.0885  0.1967  0.0564
  200loPI   PO4 3188  11.104  11.425  10.290 -0.0042 -0.0313  0.0401
  200loPI   GL1 3189  11.431  11.208   9.877  0.0613 -0.1452 -0.1040
  200loPI   GL2 3190  11.178  11.295   9.788  0.3169  0.2587 -0.1247
  200loPI   C1A 3191  11.591  11.180   9.480 -0.0066 -0.0640  0.5137
  200loPI   C2A 3192  11.884  11.003   9.269 -0.0733  0.2440 -0.1588
  200loPI   C3A 3193  11.937  11.024   8.891 -0.1627  0.0094 -0.1027
  200loPI   C4A 3194  11.997  10.902   8.492 -0.0632 -0.1286 -0.0258
  200loPI   C5A 3195  11.843  10.899   8.031  0.0780  0.0772  0.0657
  200loPI   C6A 3196  11.627  10.799   7.593  0.0176 -0.1347  0.1793
  200loPI   C1B 3197  11.008  11.208   9.431  0.5094 -0.0474  0.0630
  200loPI   C2B 3198  11.286  11.098   9.102 -0.3127 -0.0409  0.3661
  200loPI   C3B 3199  11.147  11.171   8.719  0.2070  0.0111 -0.1434
  200loPI   C4B 3200  10.944  11.002   8.378  0.1724  0.1163 -0.0444
  201loPI    C1 3201  15.002   2.953  10.579 -0.1567 -0.0191 -0.3956
  201loPI    C2 3202  14.644   3.096  10.686 -0.0581 -0.1525  0.1476
  201loPI    C3 3203  14.976   3.300  10.776  0.0319 -0.2843  0.1181
  201loPI   PO4 3204  15.013   2.980  10.321  0.3324  0.1446 -0.0707
  201loPI   GL1 3205  15.109   3.183   9.978  0.0354 -0.0586  0.0749
  201loPI   GL2 3206  15.419   2.933   9.882 -0.3869 -0.1986 -0.0404
  201loPI   C1A 3207  14.974   3.306   9.505  0.1309  0.0077  0.3267
  201loPI   C2A 3208  15.014   3.200   9.212  0.1453  0.1114  0.2535
  201loPI   C3A 3209  14.873   3.089   8.760 -0.0150 -0.0410  0.1006
  201loPI   C4A 3210  14.545   2.788   8.718 -0.0267  0.0982  0.0993
  201loPI   C5A 3211  14.530   2.610   8.307  0.0631 -0.0619  0.0123
  201loPI   C6A 3212  14.686   2.302   8.086  0.0108  0.0834 -0.4364
  201loPI   C1B 3213  15.404   2.961   9.451  0.1527  0.1622 -0.0203
  201loPI   C2B 3214  15.383   2.897   9.009 -0.0784  0.0507  0.1664
  201loPI   C3B 3215  15.362   2.966   8.652 -0.0457 -0.0446  0.0056
  201loPI   C4B 3216  15.400   2.662   8.402 -0.1456 -0.2685  0.0080
  202loPI    C1 3217  11.067   2.817  10.629  0.2165  0.2127  0.0328
  202loPI    C2 3218  11.097   3.020  10.972 -0.1638  0.0399  0.1744
  202loPI    C3 3219  11.221   2.640  10.953 -0.1054  0.0622  0.1083
  202loPI   PO4 3220  11.108   2.937  10.466  0.4534  0.1324  0.1797
  202loPI   GL1 3221  11.108   2.898  10.060  0.1347  0.0091 -0.2238
  202loPI   GL2 3222  11.397   2.891  10.014 -0.1802  0.0315 -0.3629
  202loPI   C1A 3223  10.729   2.869   9.787  0.0168  0.0718 -0.0802
  202loPI   C2A 3224  10.596   2.786   9.384 -0.1154 -0.1505  0.0225
  202loPI   C3A 3225  10.632   2.750   8.953 -0.0813  0.1510  0.1289
  202loPI   C4A 3226  10.609   2.832   8.485 -0.0705  0.0267  0.0274
  202loPI   C5A 3227  10.795   3.041   8.076 -0.1006 -0.1295 -0.1866
  202loPI   C6A 3228  10.499   3.184   7.787 -0.2906  0.0210  0.2330
  202loPI   C1B 3229  11.443   3.124   9.710  0.1335 -0.2262  0.3182
  202loPI   C2B 3230  11.426   3.251   9.369 -0.0292 -0.1531 -0.0056
  202loPI   C3B 3231  11.346   3.183   8.965 -0.2808 -0.1222  0.1350
  202loPI   C4B 3232  11.487   3.139   8.608 -0.2604  0.1106  0.3148
  203loPI    C1 3233  17.804  17.599  10.232  0.2530 -0.0724  0.0326
  203loPI    C2 3234  17.668  17.965  10.145 -0.1534 -0.2078  0.0777
  203loPI    C3 3235  17.951  17.918  10.423 -0.1728  0.0628  0.1458
  203loPI   PO4 3236  17.562  17.487  10.153 -0.2761  0.1790 -0.0567
  203loPI   GL1 3237  17.327  17.408   9.773 -0.0554 -0.0138 -0.1885
  203loPI   GL2 3238  17.410  17.734   9.710 -0.0323 -0.0709  0.1428
  203loPI   C1A 3239  17.181  17.245   9.478  0.0998  0.1111  0.1253
  203loPI   C2A 3240  17.079  17.176   9.056  0.0967  0.0076 -0.0169
  203loPI   C3A 3241  17.266  17.054   8.704  0.0214  0.0124  0.0471
  203loPI   C4A 3242  17.275  17.086   8.312 -0.1086 -0.3488 -0.0433
  203loPI   C5A 3243  17.488  17.104   7.902  0.1363  0.2117 -0.1245
  203loPI   C6A 3244  17.222  17.092   7.506 -0.1889  0.0090 -0.1093
  203loPI   C1B 3245  17.242  17.701   9.240  0.0409 -0.1086 -0.0347
  203loPI   C2B 3246  17.128  17.588   8.779  0.2208  0.1709 -0.2139
  203loPI   C3B 3247  17.329  17.600   8.328 -0.0849  0.0105  0.2413
  203loPI   C4B 3248  17.241  17.580   7.926 -0.0353  0.1002  0.3727
  204loPI    C1 3249   5.255   6.144  10.650 -0.2231  0.0872 -0.0157
  204loPI    C2 3250   5.474   6.152  10.985 -0.1334  0.1335 -0.0750
  204loPI    C3 3251   5.076   6.191  11.005 -0.1486 -0.0688  0.0436
  204loPI   PO4 3252   5.373   5.943  10.423  0.1067  0.1264  0.0279
  204loPI   GL1 3253   5.261   5.576  10.295 -0.1710  0.0573  0.2980
  204loPI   GL2 3254   5.087   5.799  10.033  0.0121 -0.3494 -0.1579
  204loPI   C1A 3255   5.389   5.455   9.893  0.0455  0.2849 -0.0157
  204loPI   C2A 3256   5.528   5.505   9.499  0.0628 -0.3054  0.0546
  204loPI   C3A 3257   5.712   5.441   9.173 -0.0955  0.1592  0.2801
  204loPI   C4A 3258   5.669   5.567   8.898  0.1931  0.0372 -0.3536
  204loPI   C5A 3259   5.912   5.608   8.636  0.1769 -0.0174  0.1433
  204loPI   C6A 3260   6.012   5.441   8.221 -0.2534  0.1328  0.1519
  204loPI   C1B 3261   5.144   5.887   9.563  0.0427 -0.0488 -0.0091
  204loPI   C2B 3262   5.275   5.901   9.192 -0.4503 -0.2135  0.0353
  204loPI   C3B 3263   5.346   5.922   8.762 -0.1496 -0.0048  0.2366
  204loPI   C4B 3264   5.450   6.122   8.353  0.2398  0.2380  0.1829
  205loPI    C1 3265   4.566  11.068  10.085  0.2149  0.0366 -0.1021
  205loPI    C2 3266   4.538  10.924  10.457  0.2184  0.2344 -0.0240
  205loPI    C3 3267   4.473  11.313  10.387  0.3235  0.2192 -0.2144
  205loPI   PO4 3268   4.758  11.007  10.007 -0.0584 -0.2871  0.1612
  205loPI   GL1 3269   4.979  10.972   9.685 -0.0856 -0.1792  0.0809
  205loPI   GL2 3270   4.831  11.178   9.546  0.1235  0.1789 -0.0434
  205loPI   C1A 3271   4.965  10.735   9.299 -0.1647 -0.1685  0.0322
  205loPI   C2A 3272   4.897  10.633   9.020 -0.3082  0.1361 -0.1314
  205loPI   C3A 3273   4.735  10.552   8.630 -0.1566  0.0859 -0.0013
  205loPI   C4A 3274   4.712  10.353   8.237  0.1838  0.1778 -0.2476
  205loPI   C5A 3275   4.846  10.205   7.842  0.1797 -0.5651 -0.0251
  205loPI   C6A 3276   5.013   9.953   7.489  0.0046  0.0284  0.2179
  205loPI   C1B 3277   4.716  11.187   9.144 -0.0212  0.0076 -0.0701
  205loPI   C2B 3278   4.652  11.048   8.735  0.1684  0.0410 -0.1019
  205loPI   C3B 3279   4.629  11.184   8.395  0.1144 -0.2112  0.0271
  205loPI   C4B 3280   4.644  10.980   7.996  0.0752 -0.1721  0.0235
  206loPI    C1 3281   8.020  15.495  10.067 -0.1338 -0.1199 -0.2088
  206loPI    C2 3282   8.277  15.629  10.343 -0.0138 -0.2914 -0.2360
  206loPI    C3 3283   7.890  15.584  10.435 -0.0144 -0.1409 -0.1613
  206loPI   PO4 3284   8.292  15.394   9.894  0.2627 -0.0011  0.0701
  206loPI   GL1 3285   8.580  15.530   9.622  0.1880 -0.1223 -0.1743
  206loPI   GL2 3286   8.790  15.256   9.615 -0.0427  0.2215 -0.3440
  206loPI   C1A 3287   8.627  15.703   9.299  0.1290  0.2206  0.5128
  206loPI   C2A 3288   8.490  15.735   8.894  0.0723  0.2223  0.1003
  206loPI   C3A 3289   8.609  15.771   8.458  0.3294 -0.0698 -0.4641
  206loPI   C4A 3290   8.938  15.874   8.172  0.2753 -0.1366  0.1146
  206loPI   C5A 3291   9.060  15.631   7.827  0.0968  0.6143 -0.1077
  206loPI   C6A 3292   9.228  15.157   7.984  0.2274  0.0664  0.0264
  206loPI   C1B 3293   8.898  15.062   9.210 -0.0801 -0.0011 -0.1828
  206loPI   C2B 3294   8.935  15.044   8.778  0.2466 -0.2940 -0.1260
  206loPI   C3B 3295   9.008  14.882   8.420 -0.0479 -0.0581  0.0153
  206loPI   C4B 3296   9.335  14.784   8.203 -0.0029 -0.0987  0.0105
  207loPI    C1 3297   7.818   6.516  10.607 -0.0412 -0.0804  0.0132
  207loPI    C2 3298   7.643   6.755  10.876 -0.0627  0.0256 -0.0938
  207loPI    C3 3299   8.015   6.620  10.939 -0.1335 -0.0959  0.0733
  207loPI   PO4 3300   7.662   6.604  10.434 -0.3853 -0.0818 -0.1595
  207loPI   GL1 3301   7.571   6.774  10.136  0.3768 -0.0374  0.1554
  207loPI   GL2 3302   7.151   6.891  10.107 -0.2731  0.1392 -0.1125
  207loPI   C1A 3303   7.716   6.549   9.764  0.1927 -0.1079 -0.0325
  207loPI   C2A 3304   7.671   6.666   9.412 -0.0901  0.0421 -0.0603
  207loPI   C3A 3305   7.708   6.678   9.033 -0.4598 -0.0289  0.1317
  207loPI   C4A 3306   7.681   6.588   8.599  0.0327 -0.1235  0.3360
  207loPI   C5A 3307   7.645   6.441   8.111 -0.0922  0.0648 -0.1492
  207loPI   C6A 3308   7.573   6.104   7.795  0.1934  0.1117  0.2803
  207loPI   C1B 3309   7.404   7.131   9.653 -0.0402  0.0519  0.3685
  207loPI   C2B 3310   7.319   7.161   9.176  0.2098 -0.1247 -0.1491
  207loPI   C3B 3311   7.429   7.082   8.752  0.3330 -0.1679  0.1749
  207loPI   C4B 3312   7.486   6.892   8.241 -0.1218  0.2547 -0.1111
  208loPI    C1 3313   5.742   8.018  10.656 -0.0501  0.0210  0.2344
  208loPI    C2 3314   6.093   8.025  10.847  0.0185  0.2366  0.1024
  208loPI    C3 3315   5.758   8.124  11.042  0.0141 -0.0743  0.2583
  208loPI   PO4 3316   5.805   8.050  10.435  0.4321  0.2623  0.2442
  208loPI   GL1 3317   6.085   8.133  10.006 -0.0109  0.1985  0.0618
  208loPI   GL2 3318   6.091   7.749  10.002 -0.4587  0.1035 -0.2178
  208loPI   C1A 3319   5.856   8.410   9.732  0.0228 -0.0373  0.0479
  208loPI   C2A 3320   5.722   8.614   9.407  0.2017  0.3386 -0.0431
  208loPI   C3A 3321   5.653   8.710   9.024 -0.0884  0.1377  0.0101
  208loPI   C4A 3322   5.598   8.856   8.576 -0.2153 -0.1413  0.4235
  208loPI   C5A 3323   5.627   9.053   8.103  0.0169  0.2878 -0.0113
  208loPI   C6A 3324   5.394   8.937   7.664  0.0464  0.1213  0.1037
  208loPI   C1B 3325   6.184   7.823   9.550 -0.0659 -0.1341 -0.0240
  208loPI   C2B 3326   6.275   7.882   9.072 -0.0622  0.0516  0.0659
  208loPI   C3B 3327   6.199   7.918   8.618  0.1042 -0.1037  0.1837
  208loPI   C4B 3328   6.277   7.620   8.342  0.2705 -0.0059  0.0135
  209loPI    C1 3329   8.985   5.387  10.740 -0.2009  0.1375  0.0810
  209loPI    C2 3330   8.919   5.054  10.951  0.0833 -0.0294 -0.0866
  209loPI    C3 3331   9.166   5.334  11.093  0.0835 -0.0300 -0.0857
  209loPI   PO4 3332   8.984   5.228  10.506  0.1102 -0.0330  0.1544
  209loPI   GL1 3333   8.705   4.987  10.165  0.1550  0.3197 -0.0349
  209loPI   GL2 3334   8.808   5.210  10.052 -0.0728 -0.2155 -0.0520
  209loPI   C1A 3335   8.664   4.671   9.853 -0.1684  0.0679 -0.4597
  209loPI   C2A 3336   8.677   4.655   9.445  0.2649 -0.2366  0.2834
  209loPI   C3A 3337   8.527   4.545   8.999 -0.2772 -0.1657  0.0090
  209loPI   C4A 3338   8.613   4.748   8.635  0.1825  0.1266 -0.1161
  209loPI   C5A 3339   8.620   4.465   8.292 -0.1857 -0.2844  0.2673
  209loPI   C6A 3340   8.487   4.280   7.954  0.1175  0.2617  0.1465
  209loPI   C1B 3341   8.864   5.052   9.639  0.0494  0.2475  0.0510
  209loPI   C2B 3342   8.899   5.063   9.188 -0.1144 -0.1572 -0.0598
  209loPI   C3B 3343   8.893   5.264   8.758 -0.1817  0.2116 -0.0262
  209loPI   C4B 3344   8.939   5.357   8.264  0.2853  0.0590  0.1334
  210loPI    C1 3345  10.359   0.052  10.432 -0.2424 -0.0221 -0.0461
  210loPI    C2 3346  10.191  -0.097  10.763 -0.0238 -0.3351 -0.0709
  210loPI    C3 3347  10.547   0.086  10.783 -0.2084  0.0335 -0.0696
  210loPI   PO4 3348  10.271  -0.069  10.235 -0.3680  0.2032 -0.0859
  210loPI   GL1 3349  10.396  -0.103   9.925  0.2346  0.0753  0.0062
  210loPI   GL2 3350  10.142  -0.317   9.693  0.0261  0.1348 -0.2844
  210loPI   C1A 3351  10.599  -0.089   9.457  0.2752 -0.0123 -0.1780
  210loPI   C2A 3352  10.545  -0.115   8.997 -0.0308 -0.1253  0.0414
  210loPI   C3A 3353  10.668  -0.243   8.614 -0.0337 -0.2107  0.0146
  210loPI   C4A 3354  10.508  -0.425   8.324 -0.0203 -0.4613 -0.0841
  210loPI   C5A 3355  10.247  -0.239   7.929 -0.0323  0.0684 -0.1772
  210loPI   C6A 3356  10.033  -0.133   7.598 -0.1472 -0.2641  0.1129
  210loPI   C1B 3357  10.203  -0.354   9.257 -0.0941  0.1227 -0.0812
  210loPI   C2B 3358  10.195  -0.395   8.756  0.2167 -0.3540 -0.1641
  210loPI   C3B 3359   9.980  -0.555   8.350  0.3670  0.1387 -0.0909
  210loPI   C4B 3360   9.735  -0.209   7.999 -0.1641 -0.0771 -0.1004
  211loPI    C1 3361   3.508   3.418  10.460  0.3794 -0.1483  0.0512
  211loPI    C2 3362   3.421   3.030  10.417 -0.1392 -0.0514  0.1639
  211loPI    C3 3363   3.363   3.210  10.769  0.3573  0.0705  0.1899
  211loPI   PO4 3364   3.704   3.486  10.355 -0.0019  0.0892  0.0773
  211loPI   GL1 3365   3.753   3.100  10.042 -0.0136 -0.0713  0.0222
  211loPI   GL2 3366   3.956   3.429   9.938  0.0232 -0.2949 -0.1258
  211loPI   C1A 3367   4.020   2.965   9.720 -0.1470  0.0819  0.3564
  211loPI   C2A 3368   4.021   2.977   9.242 -0.1136  0.0708 -0.0746
  211loPI   C3A 3369   4.013   2.825   8.867  0.0821 -0.1594 -0.0111
  211loPI   C4A 3370   3.856   2.839   8.514  0.1396  0.3065  0.1904
  211loPI   C5A 3371   3.800   2.923   8.120 -0.1928  0.0783  0.0218
  211loPI   C6A 3372   3.637   3.365   7.936  0.1927  0.0611 -0.2817
  211loPI   C1B 3373   4.034   3.479   9.491 -0.1744 -0.1912  0.1106
  211loPI   C2B 3374   4.020   3.441   9.026 -0.0601 -0.3821  0.0275
  211loPI   C3B 3375   3.979   3.283   8.681 -0.1800  0.0638  0.0814
  211loPI   C4B 3376   4.133   3.229   8.362  0.0026 -0.0324 -0.1278
  212loPI    C1 3377  16.886  10.045  10.643 -0.0890  0.0076 -0.0073
  212loPI    C2 3378  16.791  10.379  10.841 -0.4018  0.1232 -0.3408
  212loPI    C3 3379  16.622  10.031  10.944 -0.4011  0.1442 -0.2679
  212loPI   PO4 3380  16.915  10.081  10.486  0.1381  0.0218  0.3570
  212loPI   GL1 3381  16.865   9.923  10.057 -0.0705  0.0671  0.0468
  212loPI   GL2 3382  16.617  10.173  10.054  0.1340  0.1155  0.4761
  212loPI   C1A 3383  16.966  10.172   9.662 -0.2042  0.0705 -0.1787
  212loPI   C2A 3384  16.970  10.168   9.277 -0.3142 -0.0890 -0.0215
  212loPI   C3A 3385  16.920  10.004   8.890  0.1761  0.4095  0.0563
  212loPI   C4A 3386  16.759   9.891   8.594 -0.0270  0.1588  0.2293
  212loPI   C5A 3387  16.761   9.778   8.066  0.2824  0.2109 -0.3501
  212loPI   C6A 3388  16.629   9.581   7.728 -0.2909 -0.0172 -0.0067
  212loPI   C1B 3389  16.457  10.178   9.628  0.0776  0.0488  0.1669
  212loPI   C2B 3390  16.485  10.140   9.121  0.1657  0.2178 -0.0177
  212loPI   C3B 3391  16.383  10.151   8.659  0.1253  0.0928 -0.0628
  212loPI   C4B 3392  16.330  10.188   8.217  0.0425  0.2859 -0.0084
  213loPI    C1 3393   3.101   7.001  10.531  0.1170  0.0223  0.1973
  213loPI    C2 3394   2.959   7.302  10.309  0.2054 -0.0851 -0.0082
  213loPI    C3 3395   3.145   7.379  10.654 -0.0609  0.0750  0.1036
  213loPI   PO4 3396   3.188   6.852  10.298  0.0054  0.0482  0.2734
  213loPI   GL1 3397   3.301   7.193   9.943  0.1488  0.4425  0.0888
  213loPI   GL2 3398   3.158   7.463   9.889  0.0624  0.3110  0.3652
  213loPI   C1A 3399   3.331   7.142   9.555  0.1151  0.1178  0.2462
  213loPI   C2A 3400   3.273   7.001   9.131  0.2075  0.2033  0.2375
  213loPI   C3A 3401   3.363   6.807   8.798  0.1219  0.1431  0.1451
  213loPI   C4A 3402   3.290   6.611   8.379  0.2810  0.1365 -0.2120
  213loPI   C5A 3403   3.299   6.369   7.995  0.1963 -0.0391 -0.0721
  213loPI   C6A 3404   3.411   6.000   7.769  0.2869  0.0123  0.0613
  213loPI   C1B 3405   2.916   7.454   9.552  0.0496  0.3987 -0.1774
  213loPI   C2B 3406   2.875   7.357   9.134  0.1065 -0.0178 -0.2607
  213loPI   C3B 3407   2.836   7.216   8.767  0.2496 -0.2506  0.0766
  213loPI   C4B 3408   2.901   6.833   8.587 -0.3788 -0.0085  0.4013
  214loPI    C1 3409  12.278  10.813  10.420  0.0554 -0.0205  0.0362
  214loPI    C2 3410  11.989  11.036  10.257  0.0538  0.1286  0.2391
  214loPI    C3 3411  11.897  10.693  10.441  0.0480 -0.0054 -0.0089
  214loPI   PO4 3412  12.455  10.710  10.178  0.0791 -0.0537 -0.0180
  214loPI   GL1 3413  12.522  10.783   9.754 -0.0064  0.1862  0.1209
  214loPI   GL2 3414  12.421  10.936   9.458  0.1568 -0.0842 -0.0065
  214loPI   C1A 3415  12.624  10.508   9.378  0.3369 -0.0169 -0.1138
  214loPI   C2A 3416  12.588  10.338   8.970 -0.0546 -0.1216  0.1309
  214loPI   C3A 3417  12.816  10.173   8.696  0.1102 -0.0136  0.0620
  214loPI   C4A 3418  13.068  10.199   8.414  0.1946 -0.2553 -0.1352
  214loPI   C5A 3419  13.440   9.981   8.154 -0.3212  0.0702  0.1008
  214loPI   C6A 3420  13.544   9.679   7.791 -0.2564 -0.3112  0.1343
  214loPI   C1B 3421  12.487  10.875   8.989  0.0639  0.2839 -0.0996
  214loPI   C2B 3422  12.413  10.729   8.622 -0.2057  0.0387  0.1658
  214loPI   C3B 3423  12.564  10.381   8.295  0.0189 -0.0162 -0.2385
  214loPI   C4B 3424  12.553  10.029   8.245  0.0348 -0.2158 -0.3767
  215loPI    C1 3425   9.071  15.674  10.155  0.1848 -0.0122  0.1450
  215loPI    C2 3426   8.787  15.618  10.431 -0.1534  0.0663 -0.1791
  215loPI    C3 3427   8.928  15.986  10.360  0.1518  0.0068  0.0931
  215loPI   PO4 3428   9.046  15.611   9.977  0.2461  0.0523  0.0486
  215loPI   GL1 3429   9.227  15.819   9.677 -0.1311  0.1692 -0.1033
  215loPI   GL2 3430   8.948  15.947   9.558 -0.1240 -0.2028  0.2565
  215loPI   C1A 3431   9.423  15.852   9.404 -0.2581  0.1043 -0.3152
  215loPI   C2A 3432   9.515  16.018   9.014 -0.1721  0.0109 -0.0096
  215loPI   C3A 3433   9.530  15.882   8.621 -0.0383  0.2973  0.0653
  215loPI   C4A 3434   9.429  15.815   8.211 -0.0096 -0.0718  0.6505
  215loPI   C5A 3435   9.464  15.987   7.836  0.1942 -0.1182  0.0587
  215loPI   C6A 3436   9.517  16.196   7.481  0.1187  0.2554 -0.1748
  215loPI   C1B 3437   9.004  16.054   9.136  0.1967 -0.0995 -0.2987
  215loPI   C2B 3438   9.093  16.148   8.666 -0.1495  0.2548 -0.0339
  215loPI   C3B 3439   9.232  16.275   8.211  0.1121  0.0944 -0.1649
  215loPI   C4B 3440   9.358  16.505   7.859  0.0428 -0.1885  0.2036
  216loPI    C1 3441  12.236   3.803  10.159  0.0099  0.1525 -0.3108
  216loPI    C2 3442  12.558   3.780  10.396 -0.0984 -0.1357 -0.1867
  216loPI    C3 3443  12.297   4.080  10.441  0.0660  0.0080 -0.1796
  216loPI   PO4 3444  12.319   3.828   9.964 -0.1843  0.1217  0.2540
  216loPI   GL1 3445  12.439   3.981   9.619 -0.1113  0.1148 -0.1068
  216loPI   GL2 3446  12.662   3.808   9.509  0.0484  0.1737 -0.1032
  216loPI   C1A 3447  12.160   4.169   9.315  0.1744  0.2764  0.2506
  216loPI   C2A 3448  11.936   4.224   9.000 -0.1227  0.1267  0.1168
  216loPI   C3A 3449  11.987   4.071   8.612  0.1642  0.2174 -0.0982
  216loPI   C4A 3450  11.878   4.032   8.254 -0.0042 -0.2161  0.0020
  216loPI   C5A 3451  11.826   4.015   7.753  0.3211 -0.0601  0.1787
  216loPI   C6A 3452  11.860   4.043   7.355 -0.2876 -0.0470 -0.2634
  216loPI   C1B 3453  12.617   3.798   9.057 -0.2025 -0.3549 -0.2165
  216loPI   C2B 3454  12.385   4.029   8.840 -0.0217  0.3576  0.1356
  216loPI   C3B 3455  12.443   4.078   8.352 -0.1603 -0.0731 -0.1668
  216loPI   C4B 3456  12.262   3.897   7.999  0.1283 -0.3152  0.1057
  217loPI    C1 3457  12.326  12.709  10.412  0.0304  0.0246  0.0576
  217loPI    C2 3458  12.300  13.108  10.402  0.0868  0.0260 -0.0493
  217loPI    C3 3459  12.228  12.911  10.743 -0.2174  0.1075 -0.0636
  217loPI   PO4 3460  12.454  12.671  10.121 -0.2474 -0.4031  0.1454
  217loPI   GL1 3461  12.468  12.711   9.711 -0.2843  0.1632  0.0142
  217loPI   GL2 3462  12.202  12.851   9.562 -0.1831 -0.1639  0.4928
  217loPI   C1A 3463  12.746  13.062   9.558 -0.2328  0.0013 -0.2530
  217loPI   C2A 3464  12.836  13.277   9.193  0.0521  0.1926  0.2756
  217loPI   C3A 3465  12.845  13.305   8.739  0.1259  0.1102 -0.0350
  217loPI   C4A 3466  12.935  13.136   8.340  0.1332 -0.2462 -0.1094
  217loPI   C5A 3467  13.126  12.772   8.136 -0.1863  0.0722  0.0563
  217loPI   C6A 3468  13.191  12.637   7.803  0.0951  0.0224 -0.0292
  217loPI   C1B 3469  12.515  12.877   9.213 -0.1042  0.2088 -0.0120
  217loPI   C2B 3470  12.609  12.898   8.861  0.1142 -0.0606 -0.0859
  217loPI   C3B 3471  12.628  12.783   8.417 -0.2746 -0.2111 -0.0813
  217loPI   C4B 3472  12.661  12.805   7.965 -0.0836  0.0695 -0.1097
  218loPI    C1 3473  13.897  10.566  10.405  0.0070 -0.0742  0.0451
  218loPI    C2 3474  13.653  10.810  10.607 -0.1263 -0.1212 -0.0578
  218loPI    C3 3475  14.049  10.859  10.631 -0.1416 -0.1027  0.1835
  218loPI   PO4 3476  13.954  10.543  10.169 -0.2000  0.2934  0.1021
  218loPI   GL1 3477  13.760  10.584   9.734 -0.0498  0.0800 -0.1792
  218loPI   GL2 3478  13.811  10.354   9.675  0.1481 -0.2778  0.1070
  218loPI   C1A 3479  13.809  10.774   9.446 -0.1406 -0.2555 -0.1184
  218loPI   C2A 3480  13.828  10.771   8.942 -0.1354  0.1756  0.1991
  218loPI   C3A 3481  14.053  10.615   8.539  0.0566  0.0108  0.0370
  218loPI   C4A 3482  14.288  10.741   8.122  0.0675 -0.0814 -0.0384
  218loPI   C5A 3483  14.495  10.612   7.773  0.1330 -0.0915  0.1148
  218loPI   C6A 3484  14.942  10.528   7.714  0.0563  0.1094  0.1482
  218loPI   C1B 3485  13.753  10.379   9.174 -0.0450  0.2480 -0.0316
  218loPI   C2B 3486  13.921  10.276   8.849 -0.1239 -0.0175  0.1232
  218loPI   C3B 3487  14.280  10.108   8.545 -0.1295  0.1598 -0.3606
  218loPI   C4B 3488  14.479  10.303   8.222 -0.4751 -0.1202  0.4273
  219loPI    C1 3489   4.742  15.535  10.435  0.1600 -0.0252 -0.2808
  219loPI    C2 3490   4.442  15.774  10.550  0.1483 -0.1519 -0.0418
  219loPI    C3 3491   4.801  15.930  10.464  0.0614 -0.0183 -0.1674
  219loPI   PO4 3492   4.550  15.345  10.300  0.3199  0.3110 -0.0635
  219loPI   GL1 3493   4.459  15.304   9.910  0.0028  0.1493 -0.1164
  219loPI   GL2 3494   4.180  15.158   9.838 -0.0714 -0.2901 -0.0860
  219loPI   C1A 3495   4.368  15.489   9.500 -0.4634 -0.0251 -0.0329
  219loPI   C2A 3496   4.402  15.569   9.158  0.1847  0.0285 -0.0572
  219loPI   C3A 3497   4.345  15.465   8.694 -0.1531 -0.0302  0.2623
  219loPI   C4A 3498   4.287  15.249   8.291  0.3726  0.0806  0.0851
  219loPI   C5A 3499   4.638  15.122   7.939 -0.0664  0.0722 -0.1359
  219loPI   C6A 3500   4.970  15.188   7.724 -0.2633  0.0716 -0.1691
  219loPI   C1B 3501   4.084  15.065   9.377  0.1426 -0.0204 -0.1720
  219loPI   C2B 3502   4.059  14.974   8.824  0.0297 -0.0712 -0.1940
  219loPI   C3B 3503   3.948  15.010   8.440  0.2028  0.0024 -0.0448
  219loPI   C4B 3504   3.861  15.016   7.957  0.0819 -0.0382 -0.0322
  220loPI    C1 3505   3.332   2.468  10.395  0.2715  0.0090 -0.0298
  220loPI    C2 3506   3.554   2.272  10.665  0.0093 -0.1454  0.0776
  220loPI    C3 3507   3.189   2.403  10.763 -0.0397 -0.0945 -0.1657
  220loPI   PO4 3508   3.241   2.282  10.192 -0.4531 -0.1804 -0.0816
  220loPI   GL1 3509   3.098   2.183   9.773  0.4168  0.0845 -0.2160
  220loPI   GL2 3510   3.042   1.993   9.592  0.4306  0.0121 -0.0854
  220loPI   C1A 3511   3.127   2.381   9.383  0.4136 -0.1387  0.1457
  220loPI   C2A 3512   3.046   2.576   9.057 -0.2067  0.1440 -0.0241
  220loPI   C3A 3513   2.912   2.544   8.565  0.0268  0.1291 -0.1610
  220loPI   C4A 3514   2.769   2.626   8.178  0.0517 -0.0808 -0.0944
  220loPI   C5A 3515   2.617   2.900   7.946 -0.0957  0.0311  0.0610
  220loPI   C6A 3516   2.530   3.265   7.830  0.0504 -0.1422 -0.0119
  220loPI   C1B 3517   3.114   1.956   9.104 -0.0597 -0.0476  0.2365
  220loPI   C2B 3518   3.083   2.125   8.719 -0.3378 -0.0124 -0.1482
  220loPI   C3B 3519   3.066   2.232   8.290 -0.1147  0.2085 -0.1710
  220loPI   C4B 3520   3.224   2.573   7.944  0.0130 -0.1003 -0.0818
  221loPI    C1 3521   1.743  10.389  10.508 -0.2152  0.0845  0.1694
  221loPI    C2 3522   1.701  10.038  10.322  0.0987  0.1993 -0.1284
  221loPI    C3 3523   1.819  10.049  10.704 -0.1020 -0.0231 -0.0574
  221loPI   PO4 3524   1.975  10.489  10.395 -0.1587 -0.2974 -0.0280
  221loPI   GL1 3525   1.988  10.498  10.053  0.0625  0.2236  0.0729
  221loPI   GL2 3526   1.682  10.391   9.997 -0.0114 -0.0665  0.0815
  221loPI   C1A 3527   1.980  10.691   9.731 -0.0747 -0.1152 -0.2341
  221loPI   C2A 3528   2.086  11.043   9.453 -0.0058 -0.1575 -0.1642
  221loPI   C3A 3529   2.361  11.073   9.068  0.1644  0.0111  0.1699
  221loPI   C4A 3530   2.222  11.058   8.707  0.2995 -0.3839  0.1046
  221loPI   C5A 3531   2.395  10.954   8.288 -0.1106 -0.1230  0.0798
  221loPI   C6A 3532   2.455  10.744   7.896  0.2198  0.0405  0.0343
  221loPI   C1B 3533   1.569  10.316   9.628 -0.3850 -0.0873  0.1368
  221loPI   C2B 3534   1.591  10.307   9.244 -0.2344 -0.1279  0.0501
  221loPI   C3B 3535   1.681  10.254   8.774  0.2317 -0.2698  0.1484
  221loPI   C4B 3536   1.576  10.260   8.363  0.0116  0.1244  0.3212
  222loPI    C1 3537   6.000  10.573  10.302 -0.0930  0.1137 -0.0557
  222loPI    C2 3538   6.048  10.962  10.222  0.2411  0.1455  0.2698
  222loPI    C3 3539   5.753  10.842  10.465 -0.0941  0.1524 -0.1212
  222loPI   PO4 3540   6.084  10.486  10.044 -0.4111  0.0103  0.1779
  222loPI   GL1 3541   6.038  10.387   9.714  0.1357  0.1571  0.1632
  222loPI   GL2 3542   5.905  10.110   9.549 -0.1195  0.0446 -0.0559
  222loPI   C1A 3543   5.888  10.484   9.204 -0.0733 -0.2008  0.1770
  222loPI   C2A 3544   5.745  10.290   8.886  0.0630  0.1292 -0.0768
  222loPI   C3A 3545   5.687  10.154   8.432  0.2779  0.0676  0.0527
  222loPI   C4A 3546   5.672   9.852   8.081  0.3478 -0.0247  0.2291
  222loPI   C5A 3547   5.331   9.732   7.759 -0.0168  0.1615  0.4458
  222loPI   C6A 3548   5.328   9.617   7.310  0.2087  0.2957 -0.3034
  222loPI   C1B 3549   5.972  10.002   9.160  0.0838  0.1895 -0.1471
  222loPI   C2B 3550   6.050   9.896   8.724  0.4952 -0.3159  0.4181
  222loPI   C3B 3551   6.167   9.786   8.337  0.3687  0.3414  0.1831
  222loPI   C4B 3552   6.120   9.783   7.841  0.0060  0.2241 -0.0833
  223loPI    C1 3553   5.946   5.325  10.788  0.1269 -0.2851 -0.1454
  223loPI    C2 3554   6.253   5.315  11.045  0.0916 -0.1007 -0.0949
  223loPI    C3 3555   6.019   4.994  11.000  0.0404 -0.1030  0.1751
  223loPI   PO4 3556   6.024   5.364  10.578 -0.3402 -0.2865  0.1677
  223loPI   GL1 3557   6.116   5.415  10.174  0.0784  0.1617 -0.3023
  223loPI   GL2 3558   5.711   5.419  10.224  0.0137  0.0290 -0.3199
  223loPI   C1A 3559   6.371   5.321   9.757  0.3008  0.0365  0.2964
  223loPI   C2A 3560   6.436   5.450   9.362 -0.2065  0.0216  0.1064
  223loPI   C3A 3561   6.607   5.676   9.039 -0.4319 -0.0208 -0.0682
  223loPI   C4A 3562   6.644   5.628   8.590 -0.0372 -0.2171 -0.1074
  223loPI   C5A 3563   6.434   5.269   8.318 -0.1583  0.2274 -0.0685
  223loPI   C6A 3564   6.638   4.954   8.242 -0.1417 -0.2192  0.1795
  223loPI   C1B 3565   5.873   5.283   9.783  0.1781 -0.0047 -0.3878
  223loPI   C2B 3566   5.990   5.085   9.431 -0.4055 -0.0136 -0.0570
  223loPI   C3B 3567   6.111   5.125   9.043  0.4289  0.1167 -0.0931
  223loPI   C4B 3568   6.307   5.360   8.790 -0.0694  0.0098 -0.1195
  224loPI    C1 3569  14.130   5.361  10.369 -0.0627 -0.0059  0.0799
  224loPI    C2 3570  14.447   5.584  10.470 -0.0542  0.1183 -0.2120
  224loPI    C3 3571  14.132   5.561  10.716  0.1341  0.0824  0.0294
  224loPI   PO4 3572  14.249   5.318  10.054 -0.0367  0.0520 -0.0402
  224loPI   GL1 3573  14.120   5.308   9.649  0.0692 -0.1528 -0.1417
  224loPI   GL2 3574  13.877   5.164   9.633 -0.0997 -0.0412 -0.1598
  224loPI   C1A 3575  14.445   5.371   9.262  0.1898 -0.2331  0.0496
  224loPI   C2A 3576  14.730   5.319   8.776  0.2538 -0.2449  0.0511
  224loPI   C3A 3577  14.984   5.348   8.395  0.1833  0.0600 -0.0330
  224loPI   C4A 3578  15.040   5.550   7.977  0.0805  0.0972 -0.1954
  224loPI   C5A 3579  15.331   5.854   7.667 -0.1183  0.3944 -0.1145
  224loPI   C6A 3580  15.842   5.993   7.553  0.0608  0.1035 -0.1799
  224loPI   C1B 3581  13.905   5.155   9.238  0.2334 -0.0225  0.1530
  224loPI   C2B 3582  13.842   5.051   8.803 -0.0759 -0.2827 -0.1452
  224loPI   C3B 3583  13.968   4.868   8.483 -0.1514  0.0921  0.1270
  224loPI   C4B 3584  14.170   4.866   8.069 -0.1804  0.1273 -0.3503
  225loPI    C1 3585  16.218   2.066  10.455  0.3406 -0.0597  0.0343
  225loPI    C2 3586  16.220   1.906  10.822  0.3184  0.0021  0.0615
  225loPI    C3 3587  16.247   2.302  10.777 -0.5152  0.0732  0.0357
  225loPI   PO4 3588  16.361   1.875  10.299 -0.0367  0.4007  0.0394
  225loPI   GL1 3589  16.589   1.760   9.860 -0.0234 -0.1166  0.1832
  225loPI   GL2 3590  16.304   1.973   9.738 -0.0459 -0.3630 -0.0791
  225loPI   C1A 3591  16.497   1.441   9.580  0.1769 -0.1393 -0.0739
  225loPI   C2A 3592  16.479   1.414   9.058 -0.2086 -0.0194 -0.1692
  225loPI   C3A 3593  16.408   1.400   8.630  0.0797  0.0441 -0.2084
  225loPI   C4A 3594  16.330   1.443   8.172  0.1619 -0.0708 -0.2668
  225loPI   C5A 3595  16.006   1.557   7.878  0.0772 -0.0038 -0.0542
  225loPI   C6A 3596  15.574   1.398   7.756 -0.1452 -0.2392 -0.1402
  225loPI   C1B 3597  16.299   2.027   9.298  0.3306  0.2845  0.0328
  225loPI   C2B 3598  16.283   1.848   8.940  0.0048  0.0533 -0.0051
  225loPI   C3B 3599  16.333   1.879   8.469  0.1999 -0.0092  0.0625
  225loPI   C4B 3600  16.221   1.978   8.091 -0.0207  0.0646  0.0224
  226loPI    C1 3601   7.721   8.726  10.750 -0.0029 -0.0842 -0.1965
  226loPI    C2 3602   7.418   8.519  10.910 -0.0655  0.1803  0.0341
  226loPI    C3 3603   7.795   8.395  10.962 -0.1167 -0.0077 -0.0357
  226loPI   PO4 3604   7.646   8.755  10.496 -0.1408  0.3518  0.2041
  226loPI   GL1 3605   7.698   8.732  10.137 -0.0248  0.1887  0.1729
  226loPI   GL2 3606   7.649   8.440  10.044 -0.0996 -0.0092  0.0851
  226loPI   C1A 3607   7.860   8.817   9.784 -0.1558  0.0496 -0.0270
  226loPI   C2A 3608   8.099   9.032   9.566 -0.1304 -0.3315 -0.1959
  226loPI   C3A 3609   7.922   8.940   9.175  0.3172 -0.2192  0.3323
  226loPI   C4A 3610   7.842   8.855   8.696  0.0167 -0.0453  0.0980
  226loPI   C5A 3611   7.665   8.781   8.348  0.3497 -0.1861 -0.0035
  226loPI   C6A 3612   7.820   8.538   8.025  0.1181  0.2067 -0.0521
  226loPI   C1B 3613   7.562   8.365   9.557  0.0319  0.1758 -0.2869
  226loPI   C2B 3614   7.658   8.510   9.203 -0.0428  0.1185 -0.1481
  226loPI   C3B 3615   7.604   8.430   8.772  0.0306  0.0611  0.0939
  226loPI   C4B 3616   7.350   8.374   8.408 -0.1109 -0.3175 -0.0395
  227loPI    C1 3617   1.965   9.281  10.785  0.0163 -0.0883  0.1193
  227loPI    C2 3618   2.344   9.317  10.907  0.1204  0.0877 -0.2403
  227loPI    C3 3619   2.116   9.643  10.864 -0.0339 -0.0065 -0.1469
  227loPI   PO4 3620   2.018   9.061  10.570 -0.0244 -0.0412  0.3354
  227loPI   GL1 3621   2.178   8.793  10.206 -0.0371 -0.3200 -0.3626
  227loPI   GL2 3622   2.266   9.076  10.111 -0.1273  0.0711  0.0077
  227loPI   C1A 3623   2.047   8.559   9.813  0.1009  0.1456 -0.1193
  227loPI   C2A 3624   2.120   8.543   9.331  0.0635  0.0347 -0.0640
  227loPI   C3A 3625   2.039   8.566   8.927  0.0025  0.3338  0.2519
  227loPI   C4A 3626   2.104   8.529   8.395  0.2859  0.2351 -0.2907
  227loPI   C5A 3627   1.816   8.649   8.054 -0.1514 -0.0105  0.1457
  227loPI   C6A 3628   1.873   8.725   7.637 -0.2804  0.0965 -0.0852
  227loPI   C1B 3629   2.209   9.023   9.612  0.2982  0.2071  0.2281
  227loPI   C2B 3630   2.243   9.078   9.070  0.5497  0.2929  0.0317
  227loPI   C3B 3631   2.341   9.472   8.753 -0.0888 -0.0534  0.2489
  227loPI   C4B 3632   2.504   9.440   8.349 -0.2259  0.2991  0.1775
  228loPI    C1 3633   1.494  16.811  10.320 -0.0153  0.1770 -0.1439
  228loPI    C2 3634   1.147  16.743  10.133 -0.1087  0.1618  0.0326
  228loPI    C3 3635   1.149  16.912  10.496  0.0668  0.1279  0.0484
  228loPI   PO4 3636   1.615  16.906  10.059 -0.4235 -0.0558  0.0472
  228loPI   GL1 3637   1.717  16.975   9.651 -0.0881 -0.0148 -0.2272
  228loPI   GL2 3638   1.471  17.195   9.589 -0.0705  0.1030 -0.0330
  228loPI   C1A 3639   1.788  16.965   9.158  0.1590 -0.1374  0.1217
  228loPI   C2A 3640   1.840  16.710   8.843 -0.1850 -0.0615 -0.2444
  228loPI   C3A 3641   1.860  16.696   8.378  0.0438  0.3083  0.0155
  228loPI   C4A 3642   1.928  16.791   7.943  0.1419 -0.1872 -0.2588
  228loPI   C5A 3643   1.681  16.939   7.586  0.0599  0.0829  0.0254
  228loPI   C6A 3644   1.407  17.287   7.448  0.1521 -0.1543  0.0045
  228loPI   C1B 3645   1.356  17.261   8.997  0.0759  0.1575 -0.2966
  228loPI   C2B 3646   1.501  17.021   8.645  0.1647 -0.2057 -0.0414
  228loPI   C3B 3647   1.470  16.910   8.187  0.1790 -0.1437  0.2747
  228loPI   C4B 3648   1.163  16.526   8.046  0.1795 -0.0792 -0.4014
  229loPI    C1 3649  12.765  11.047  10.317 -0.2262 -0.0072  0.0890
  229loPI    C2 3650  12.864  11.385  10.506  0.0814 -0.0467  0.0034
  229loPI    C3 3651  12.482  11.315  10.410  0.0258  0.3152 -0.0548
  229loPI   PO4 3652  12.837  11.072  10.079  0.1755  0.0583  0.5087
  229loPI   GL1 3653  12.859  11.125   9.687  0.4801  0.0409  0.3431
  229loPI   GL2 3654  13.075  11.426   9.671  0.1693  0.1247 -0.1330
  229loPI   C1A 3655  12.899  10.907   9.383  0.3947  0.2807  0.0869
  229loPI   C2A 3656  12.935  10.693   9.011  0.3797  0.2114  0.0150
  229loPI   C3A 3657  12.982  10.700   8.593 -0.3157  0.0278  0.1157
  229loPI   C4A 3658  12.942  10.851   8.130 -0.2880 -0.3311 -0.0102
  229loPI   C5A 3659  12.983  11.145   7.842  0.0100  0.1062 -0.3071
  229loPI   C6A 3660  13.176  11.242   7.490  0.1176 -0.1987 -0.0243
  229loPI   C1B 3661  13.227  11.605   9.346 -0.0884 -0.0352  0.0723
  229loPI   C2B 3662  13.413  11.544   8.892 -0.0023  0.3249 -0.2893
  229loPI   C3B 3663  13.358  11.642   8.484 -0.0576  0.3813 -0.1059
  229loPI   C4B 3664  13.380  11.665   8.012  0.1255  0.0731  0.2239
  230loPI    C1 3665  14.244  10.133  10.307 -0.4664 -0.1872 -0.1850
  230loPI    C2 3666  14.296   9.836  10.569  0.0526  0.2649  0.2503
  230loPI    C3 3667  13.979  10.078  10.601 -0.3005 -0.1461 -0.0257
  230loPI   PO4 3668  14.497  10.173  10.286  0.0593 -0.0239  0.0672
  230loPI   GL1 3669  14.545   9.989   9.782  0.1072  0.0701 -0.0657
  230loPI   GL2 3670  14.144  10.005   9.773  0.0205 -0.0381  0.3323
  230loPI   C1A 3671  14.657   9.856   9.386 -0.2414  0.0120 -0.0123
  230loPI   C2A 3672  14.806  10.057   9.037 -0.0661 -0.1932  0.0615
  230loPI   C3A 3673  14.861  10.161   8.560  0.0086  0.3171 -0.1703
  230loPI   C4A 3674  14.949  10.249   8.085  0.0599 -0.0193  0.4325
  230loPI   C5A 3675  14.886   9.987   7.767  0.2760  0.0717 -0.1435
  230loPI   C6A 3676  14.559   9.670   7.692  0.2362  0.2470 -0.0268
  230loPI   C1B 3677  14.180   9.995   9.353 -0.2209 -0.1789  0.1292
  230loPI   C2B 3678  14.253   9.822   8.947  0.0246 -0.2632  0.1322
  230loPI   C3B 3679  14.283   9.565   8.445  0.1372  0.1448  0.0058
  230loPI   C4B 3680  14.633   9.801   8.193  0.3307 -0.0390  0.0641
  231loPI    C1 3681   9.258  14.156  10.107 -0.3718 -0.1479  0.1063
  231loPI    C2 3682   9.132  14.172  10.486 -0.1118 -0.0427  0.1910
  231loPI    C3 3683   9.343  13.857  10.359 -0.0509  0.0018  0.1816
  231loPI   PO4 3684   9.374  14.413  10.034 -0.4639 -0.1398  0.3874
  231loPI   GL1 3685   9.530  14.678   9.765 -0.0222 -0.0856 -0.1392
  231loPI   GL2 3686   9.847  14.607   9.691  0.2224 -0.1483  0.0074
  231loPI   C1A 3687   9.627  14.950   9.439 -0.2483  0.0575  0.1213
  231loPI   C2A 3688   9.357  15.049   9.048 -0.0048 -0.3517  0.1837
  231loPI   C3A 3689   9.459  14.961   8.709 -0.2597 -0.1284  0.1869
  231loPI   C4A 3690   9.686  15.087   8.400 -0.2935  0.1264  0.0934
  231loPI   C5A 3691   9.633  15.417   8.043 -0.0400 -0.2249 -0.0571
  231loPI   C6A 3692   9.796  15.383   7.590  0.3018 -0.0510  0.0778
  231loPI   C1B 3693   9.667  14.488   9.287 -0.0367 -0.1011 -0.1853
  231loPI   C2B 3694   9.775  14.553   8.871  0.0883  0.2205 -0.1723
  231loPI   C3B 3695   9.733  14.542   8.449 -0.1190 -0.0558 -0.3036
  231loPI   C4B 3696   9.843  14.437   8.107  0.1426 -0.3337 -0.0067
  232loPI    C1 3697  15.816  15.463  10.561 -0.1754  0.1601 -0.1448
  232loPI    C2 3698  15.812  15.713  10.873 -0.1147 -0.1854  0.1394
  232loPI    C3 3699  15.675  15.339  10.914  0.2561 -0.3587 -0.1418
  232loPI   PO4 3700  16.063  15.704  10.433 -0.2473 -0.0349  0.2821
  232loPI   GL1 3701  16.201  15.774  10.026 -0.0250 -0.0438  0.2408
  232loPI   GL2 3702  16.327  15.448  10.040 -0.3229  0.0502 -0.1154
  232loPI   C1A 3703  16.174  15.808   9.529 -0.3584  0.0190 -0.1258
  232loPI   C2A 3704  16.113  15.690   9.112  0.0428  0.0791 -0.1101
  232loPI   C3A 3705  16.046  15.594   8.746 -0.0723  0.3422 -0.1308
  232loPI   C4A 3706  15.831  15.382   8.397 -0.0996  0.2889  0.0100
  232loPI   C5A 3707  15.713  14.889   8.190 -0.0762  0.1970  0.2185
  232loPI   C6A 3708  15.993  14.598   8.148 -0.1343 -0.1300  0.2650
  232loPI   C1B 3709  16.411  15.382   9.685  0.1297  0.2863 -0.2835
  232loPI   C2B 3710  16.465  15.302   9.197 -0.0454  0.0556 -0.0302
  232loPI   C3B 3711  16.456  15.248   8.716  0.3136  0.1860  0.0298
  232loPI   C4B 3712  16.143  15.024   8.429 -0.2412 -0.1209 -0.0787
  233loPI    C1 3713  11.677  14.697  10.587  0.0748  0.2139 -0.2549
  233loPI    C2 3714  11.802  14.317  10.578  0.1332  0.2269 -0.0474
  233loPI    C3 3715  11.446  14.407  10.737  0.1006  0.2548 -0.1355
  233loPI   PO4 3716  11.682  14.838  10.319 -0.1607 -0.0645  0.0340
  233loPI   GL1 3717  12.125  15.001  10.035 -0.2539 -0.1334  0.0251
  233loPI   GL2 3718  11.896  15.024   9.750 -0.0471  0.1334 -0.0499
  233loPI   C1A 3719  12.388  15.152   9.713 -0.0300 -0.1065 -0.2587
  233loPI   C2A 3720  12.512  15.342   9.335 -0.0375 -0.2102 -0.0413
  233loPI   C3A 3721  12.656  15.610   8.915 -0.0328  0.0158 -0.0555
  233loPI   C4A 3722  12.788  15.797   8.599 -0.2293  0.1693  0.0896
  233loPI   C5A 3723  12.992  16.050   8.299  0.1216  0.1148 -0.4702
  233loPI   C6A 3724  13.148  16.351   8.009 -0.1308 -0.1876  0.1900
  233loPI   C1B 3725  12.085  15.125   9.384  0.0500  0.0317  0.3478
  233loPI   C2B 3726  12.208  15.165   8.946  0.0468  0.0163 -0.1166
  233loPI   C3B 3727  12.406  15.294   8.573  0.0664 -0.1001  0.0330
  233loPI   C4B 3728  12.429  15.270   8.179 -0.0374  0.0284  0.0463
  234loPI    C1 3729  18.074  10.143  10.721  0.1974 -0.0995 -0.0278
  234loPI    C2 3730  18.343  10.168  11.015 -0.2042 -0.0570  0.3465
  234loPI    C3 3731  17.970  10.048  11.095 -0.3578  0.0829 -0.1255
  234loPI   PO4 3732  18.218  10.109  10.494  0.2592 -0.2136 -0.0121
  234loPI   GL1 3733  18.189  10.112  10.031  0.0862 -0.3397  0.1320
  234loPI   GL2 3734  18.028   9.910   9.850  0.1931  0.0836  0.0237
  234loPI   C1A 3735  18.494  10.238   9.796  0.2407  0.0126  0.1111
  234loPI   C2A 3736  18.554  10.300   9.400 -0.1882  0.0025  0.0513
  234loPI   C3A 3737  18.551  10.397   8.891 -0.3113 -0.0406 -0.2595
  234loPI   C4A 3738  18.565  10.430   8.429 -0.0933  0.0644 -0.4155
  234loPI   C5A 3739  18.349  10.272   8.077  0.3111  0.0979  0.3498
  234loPI   C6A 3740  18.009  10.024   8.124 -0.1456  0.2046  0.1892
  234loPI   C1B 3741  17.892   9.714   9.514  0.1003  0.1624  0.0166
  234loPI   C2B 3742  17.671   9.524   9.281  0.1437  0.0628  0.0322
  234loPI   C3B 3743  17.658   9.461   8.874  0.3016 -0.3027  0.2382
  234loPI   C4B 3744  17.593   9.359   8.400  0.0386 -0.0584 -0.4950
  235loPI    C1 3745   1.610   4.295  10.440 -0.1932 -0.0220 -0.4042
  235loPI    C2 3746   1.311   4.377  10.693 -0.0582 -0.1357 -0.2054
  235loPI    C3 3747   1.388   3.998  10.590  0.1070 -0.1197 -0.1440
  235loPI   PO4 3748   1.527   4.410  10.223 -0.3697  0.2356  0.4156
  235loPI   GL1 3749   1.401   4.289   9.816 -0.1844  0.0124 -0.1578
  235loPI   GL2 3750   1.450   4.546   9.628  0.3095  0.1331  0.0336
  235loPI   C1A 3751   1.113   4.258   9.416 -0.0228 -0.0857  0.1466
  235loPI   C2A 3752   1.006   4.346   8.952 -0.1113  0.2245 -0.2834
  235loPI   C3A 3753   0.820   4.313   8.493  0.0165 -0.1177 -0.0890
  235loPI   C4A 3754   1.084   4.175   8.143  0.0115  0.1065  0.2251
  235loPI   C5A 3755   1.193   3.730   7.960  0.2065 -0.2168  0.0705
  235loPI   C6A 3756   1.589   3.675   7.773 -0.1526 -0.5453 -0.0115
  235loPI   C1B 3757   1.345   4.694   9.181  0.0169 -0.2766 -0.2180
  235loPI   C2B 3758   1.262   4.782   8.808 -0.0525 -0.0511 -0.0190
  235loPI   C3B 3759   1.156   4.666   8.453  0.0347 -0.0284  0.1489
  235loPI   C4B 3760   0.816   4.601   8.093  0.0144  0.0817  0.2632
  236loPI    C1 3761  12.662   4.952  10.333 -0.0090  0.0975  0.1880
  236loPI    C2 3762  12.320   4.777  10.221  0.0532  0.1140 -0.0336
  236loPI    C3 3763  12.356   4.929  10.590 -0.0806 -0.1349  0.0845
  236loPI   PO4 3764  12.868   4.774  10.136  0.2893 -0.2044  0.2259
  236loPI   GL1 3765  12.684   4.659   9.763  0.1581  0.0199  0.3842
  236loPI   GL2 3766  12.807   4.361   9.680  0.1418  0.1986  0.1267
  236loPI   C1A 3767  12.878   4.792   9.351  0.0371  0.1555 -0.2606
  236loPI   C2A 3768  12.876   4.703   8.955  0.1714  0.0985 -0.2954
  236loPI   C3A 3769  12.985   4.744   8.597 -0.1657 -0.2395 -0.0231
  236loPI   C4A 3770  13.031   4.927   8.183  0.0493  0.1236 -0.1336
  236loPI   C5A 3771  12.786   5.176   7.860  0.1239 -0.0747 -0.1320
  236loPI   C6A 3772  12.429   5.345   7.662 -0.1594 -0.0148 -0.0907
  236loPI   C1B 3773  12.730   4.254   9.266  0.0914  0.1219  0.0290
  236loPI   C2B 3774  12.852   4.212   8.824 -0.0233  0.1107  0.3249
  236loPI   C3B 3775  12.872   4.277   8.455 -0.0118  0.0498 -0.3400
  236loPI   C4B 3776  13.112   4.365   8.120 -0.2824  0.2105 -0.1506
  237loPI    C1 3777   6.543  12.589  10.011  0.0636 -0.0619 -0.1414
  237loPI    C2 3778   6.645  12.258   9.810  0.3319 -0.0300 -0.0616
  237loPI    C3 3779   6.689  12.273  10.207 -0.1600 -0.0788  0.0013
  237loPI   PO4 3780   6.334  12.622   9.915 -0.0197 -0.1669  0.2340
  237loPI   GL1 3781   6.228  12.371   9.542  0.1145  0.1759  0.1099
  237loPI   GL2 3782   6.171  12.680   9.406 -0.1604  0.0287  0.2881
  237loPI   C1A 3783   6.432  12.236   9.203  0.2136  0.1287 -0.0626
  237loPI   C2A 3784   6.420  12.232   8.763  0.1049  0.2016  0.0119
  237loPI   C3A 3785   6.442  12.220   8.318  0.0970 -0.2283  0.1937
  237loPI   C4A 3786   6.404  12.377   7.940 -0.2479  0.0812  0.0021
  237loPI   C5A 3787   6.322  12.540   7.526 -0.0454 -0.0507  0.3592
  237loPI   C6A 3788   6.188  12.441   7.050 -0.3882  0.4750  0.0773
  237loPI   C1B 3789   6.314  12.722   9.037 -0.0315  0.0718 -0.5123
  237loPI   C2B 3790   6.614  12.681   8.696 -0.1074 -0.1638  0.1925
  237loPI   C3B 3791   6.798  12.537   8.325  0.1501 -0.5689  0.1451
  237loPI   C4B 3792   6.823  12.641   7.891  0.0689 -0.2713 -0.0978
  238loPI    C1 3793   5.295  15.919  10.244  0.0666  0.2167  0.0067
  238loPI    C2 3794   5.368  15.858  10.633 -0.0327 -0.0716 -0.0172
  238loPI    C3 3795   5.659  15.990  10.393  0.0735 -0.0495  0.1227
  238loPI   PO4 3796   5.130  15.706  10.127  0.2529  0.2039 -0.3526
  238loPI   GL1 3797   5.153  15.649   9.628  0.0019  0.0810  0.2148
  238loPI   GL2 3798   4.920  15.460   9.459  0.4038  0.5462 -0.0366
  238loPI   C1A 3799   5.397  15.590   9.261 -0.1847 -0.1171  0.0337
  238loPI   C2A 3800   5.518  15.459   8.864  0.2229  0.0125 -0.3006
  238loPI   C3A 3801   5.446  15.565   8.381 -0.2167  0.2636 -0.1038
  238loPI   C4A 3802   5.338  15.568   7.947 -0.0762 -0.1208  0.0439
  238loPI   C5A 3803   5.507  15.230   7.662  0.2877 -0.1064 -0.1966
  238loPI   C6A 3804   5.334  14.864   7.448 -0.2144 -0.1168  0.1077
  238loPI   C1B 3805   4.945  15.520   8.964  0.0262 -0.1566  0.2398
  238loPI   C2B 3806   4.859  15.578   8.515  0.3112 -0.3248 -0.2202
  238loPI   C3B 3807   4.905  15.652   8.113  0.2512 -0.1640 -0.1588
  238loPI   C4B 3808   4.987  15.887   7.724  0.4540  0.0276 -0.2851
  239loPI    C1 3809   6.840   6.374  10.933  0.1742  0.0546  0.1081
  239loPI    C2 3810   6.676   6.085  11.155 -0.2185 -0.2487 -0.5457
  239loPI    C3 3811   7.071   6.093  11.100 -0.0927 -0.0859  0.2492
  239loPI   PO4 3812   6.745   6.360  10.686  0.0954  0.1016 -0.0227
  239loPI   GL1 3813   6.839   6.424  10.229 -0.2318 -0.1275 -0.1076
  239loPI   GL2 3814   6.628   6.665  10.231  0.2698  0.0640  0.3083
  239loPI   C1A 3815   6.618   6.226   9.885  0.1098  0.0338 -0.1863
  239loPI   C2A 3816   6.489   6.043   9.521  0.0705 -0.2330 -0.0747
  239loPI   C3A 3817   6.581   6.089   9.184  0.3344 -0.0683 -0.2177
  239loPI   C4A 3818   6.950   6.195   8.862  0.4211 -0.1310  0.0005
  239loPI   C5A 3819   7.043   6.345   8.444 -0.1144  0.3434 -0.2849
  239loPI   C6A 3820   7.139   6.240   8.011 -0.1355  0.2341 -0.0324
  239loPI   C1B 3821   6.650   6.697   9.830 -0.0646  0.2250 -0.2869
  239loPI   C2B 3822   6.698   6.551   9.430 -0.3142  0.3521  0.1676
  239loPI   C3B 3823   6.590   6.602   9.016  0.3154 -0.0245 -0.0845
  239loPI   C4B 3824   6.608   6.680   8.582  0.0532 -0.2055 -0.0932
  240loPI    C1 3825  11.945  16.448  10.338  0.1386  0.0416 -0.1388
  240loPI    C2 3826  11.698  16.759  10.390  0.0295 -0.0779  0.0736
  240loPI    C3 3827  12.082  16.788  10.498 -0.0189 -0.0705  0.2458
  240loPI   PO4 3828  11.890  16.368  10.108  0.1681 -0.0882 -0.0976
  240loPI   GL1 3829  12.001  16.595   9.691 -0.1822  0.0714  0.0188
  240loPI   GL2 3830  11.744  16.658   9.764  0.0147  0.0249  0.1262
  240loPI   C1A 3831  12.081  16.742   9.368 -0.2092 -0.1968  0.0454
  240loPI   C2A 3832  12.318  16.792   9.055  0.1511  0.2201 -0.0825
  240loPI   C3A 3833  12.548  16.844   8.756 -0.0813 -0.1739  0.1958
  240loPI   C4A 3834  12.507  17.125   8.442 -0.1372  0.0162  0.0464
  240loPI   C5A 3835  12.368  17.109   8.083  0.0303 -0.0920 -0.0376
  240loPI   C6A 3836  12.632  17.323   7.802 -0.0981  0.1467 -0.0964
  240loPI   C1B 3837  11.538  16.797   9.281 -0.1541  0.2486 -0.0084
  240loPI   C2B 3838  11.825  16.811   8.907 -0.0565  0.1595 -0.3432
  240loPI   C3B 3839  12.094  16.889   8.502  0.1905  0.2606  0.1861
  240loPI   C4B 3840  12.368  16.625   8.278 -0.1201 -0.2368 -0.0946
  241loPI    C1 3841  14.780   0.174  10.854  0.1231  0.2458  0.0661
  241loPI    C2 3842  14.503   0.310  10.600 -0.1805 -0.1492  0.1764
  241loPI    C3 3843  14.458   0.365  10.994  0.1236  0.1713  0.1704
  241loPI   PO4 3844  14.987   0.206  10.765 -0.1421  0.3224 -0.1217
  241loPI   GL1 3845  15.074   0.228  10.315  0.1460 -0.0497  0.0310
  241loPI   GL2 3846  14.945   0.542  10.376 -0.1546  0.0734 -0.0042
  241loPI   C1A 3847  15.074  -0.108   9.916 -0.0001 -0.1843  0.3003
  241loPI   C2A 3848  14.897  -0.153   9.529  0.0664  0.4053 -0.0765
  241loPI   C3A 3849  15.077  -0.425   9.160 -0.2839 -0.0261 -0.0925
  241loPI   C4A 3850  15.246  -0.293   8.789 -0.1452  0.0415 -0.1276
  241loPI   C5A 3851  15.625  -0.157   8.576  0.0120 -0.2241 -0.0267
  241loPI   C6A 3852  15.919   0.000   8.242  0.3343 -0.0336 -0.3118
  241loPI   C1B 3853  14.738   0.403  10.040  0.0429  0.1540  0.1470
  241loPI   C2B 3854  14.460   0.275   9.720 -0.2608 -0.0219  0.6594
  241loPI   C3B 3855  14.326   0.096   9.363 -0.2248 -0.3984 -0.0354
  241loPI   C4B 3856  14.367   0.151   8.939 -0.4286 -0.0229 -0.1273
  242loPI    C1 3857  16.360  13.449  10.581  0.2406 -0.2113 -0.1470
  242loPI    C2 3858  16.331  13.210  10.261 -0.0847 -0.1213 -0.1879
  242loPI    C3 3859  16.321  13.054  10.630  0.1241 -0.2091 -0.2183
  242loPI   PO4 3860  16.524  13.689  10.418  0.1791 -0.1383  0.0824
  242loPI   GL1 3861  16.820  13.593  10.172  0.3239 -0.0363  0.0569
  242loPI   GL2 3862  16.772  13.384  10.048 -0.1718 -0.1332 -0.1455
  242loPI   C1A 3863  16.763  13.811   9.730  0.0886  0.2660  0.1585
  242loPI   C2A 3864  16.853  13.756   9.309  0.1037 -0.0933 -0.1002
  242loPI   C3A 3865  17.055  14.034   9.035  0.1276 -0.1921  0.1046
  242loPI   C4A 3866  17.177  14.009   8.684 -0.2274 -0.0124 -0.0541
  242loPI   C5A 3867  17.189  14.016   8.285  0.2950 -0.1008 -0.2321
  242loPI   C6A 3868  17.108  14.173   7.879  0.3916  0.0886 -0.2448
  242loPI   C1B 3869  16.967  13.378   9.646  0.3978  0.0479 -0.2217
  242loPI   C2B 3870  17.000  13.259   9.222 -0.2004  0.0639  0.0469
  242loPI   C3B 3871  16.946  13.183   8.853  0.1649  0.1170  0.1743
  242loPI   C4B 3872  16.816  13.111   8.409  0.0287  0.0556 -0.1904
  243loPI    C1 3873  12.518  16.350  10.869  0.1688  0.2218 -0.1777
  243loPI    C2 3874  12.430  16.733  10.796  0.1281  0.2476  0.0036
  243loPI    C3 3875  12.144  16.482  10.919  0.1005  0.0984 -0.3523
  243loPI   PO4 3876  12.671  16.240  10.657  0.4970 -0.1990 -0.2018
  243loPI   GL1 3877  12.786  16.149  10.247  0.0616  0.0723  0.0928
  243loPI   GL2 3878  13.042  15.811  10.253  0.1201 -0.1065 -0.0618
  243loPI   C1A 3879  12.877  16.397   9.923 -0.2315 -0.0342  0.2377
  243loPI   C2A 3880  12.890  16.615   9.564  0.1527 -0.1937  0.1052
  243loPI   C3A 3881  12.894  16.853   9.165  0.0043 -0.1783  0.1209
  243loPI   C4A 3882  13.082  17.099   8.694 -0.0837 -0.0003 -0.0765
  243loPI   C5A 3883  13.338  17.399   8.410 -0.1435  0.3992 -0.2843
  243loPI   C6A 3884  13.553  17.731   8.156  0.1682  0.1576 -0.5077
  243loPI   C1B 3885  13.227  15.958   9.844 -0.1626  0.0333  0.0980
  243loPI   C2B 3886  13.141  16.158   9.535  0.0469 -0.0869  0.4136
  243loPI   C3B 3887  13.321  16.444   9.247  0.3416  0.0776 -0.0524
  243loPI   C4B 3888  13.395  16.712   8.913 -0.3143 -0.0066  0.0223
  244loPI    C1 3889   0.173  13.264  10.537  0.1841 -0.3515 -0.0369
  244loPI    C2 3890  -0.179  13.131  10.399  0.1737 -0.2359 -0.1232
  244loPI    C3 3891   0.030  12.911  10.660 -0.0375 -0.2329  0.0502
  244loPI   PO4 3892   0.292  13.330  10.305  0.2684 -0.1355 -0.2295
  244loPI   GL1 3893   0.414  13.279   9.928  0.0534  0.1365  0.1474
  244loPI   GL2 3894   0.473  13.558   9.756 -0.1262  0.0999 -0.0710
  244loPI   C1A 3895   0.208  13.096   9.589 -0.2928 -0.2384 -0.1965
  244loPI   C2A 3896   0.283  13.056   9.107 -0.1934  0.0273  0.0035
  244loPI   C3A 3897   0.311  12.936   8.713 -0.1104  0.1095  0.1143
  244loPI   C4A 3898   0.076  12.859   8.362 -0.2520 -0.1499  0.1710
  244loPI   C5A 3899   0.019  12.567   7.960 -0.2497 -0.0111  0.0659
  244loPI   C6A 3900   0.037  12.522   7.561  0.0522 -0.3516 -0.0492
  244loPI   C1B 3901   0.533  13.484   9.221 -0.0336  0.0567  0.1522
  244loPI   C2B 3902   0.711  13.479   8.749 -0.1004 -0.1248 -0.0948
  244loPI   C3B 3903   0.826  13.404   8.371  0.1575 -0.2003 -0.0405
  244loPI   C4B 3904   0.733  13.651   8.049 -0.1194 -0.0826  0.3140
  245loPI    C1 3905  10.915   1.715  10.520 -0.3335 -0.0151  0.2439
  245loPI    C2 3906  10.908   1.872  10.887  0.1016  0.0055  0.2488
  245loPI    C3 3907  11.112   1.534  10.818  0.1870  0.1080 -0.0123
  245loPI   PO4 3908  10.588   1.871  10.460 -0.1535  0.0071 -0.4532
  245loPI   GL1 3909  10.327   1.859  10.027  0.0453  0.0837  0.0043
  245loPI   GL2 3910  10.047   2.106   9.990  0.2078 -0.0428 -0.0170
  245loPI   C1A 3911  10.632   1.850   9.621 -0.0091 -0.1761 -0.0697
  245loPI   C2A 3912  10.570   1.921   9.163  0.2688  0.1173  0.0208
  245loPI   C3A 3913  10.613   1.882   8.740 -0.3705  0.2199  0.0001
  245loPI   C4A 3914  10.719   1.864   8.304  0.3373 -0.0757 -0.0364
  245loPI   C5A 3915  10.504   1.907   8.032 -0.0202  0.0768  0.1200
  245loPI   C6A 3916  10.827   1.764   7.673 -0.3389  0.2215 -0.3334
  245loPI   C1B 3917   9.890   2.354   9.551 -0.0399  0.2001 -0.1199
  245loPI   C2B 3918   9.879   2.414   8.983 -0.2083  0.1394 -0.1826
  245loPI   C3B 3919   9.851   2.383   8.494 -0.1282 -0.0473 -0.0105
  245loPI   C4B 3920   9.938   2.368   8.038 -0.0088 -0.2512 -0.1657
  246loPI    C1 3921  16.400  10.901  10.416 -0.2925  0.0693 -0.3409
  246loPI    C2 3922  16.363  11.245  10.215  0.0369  0.2345 -0.1288
  246loPI    C3 3923  16.513  11.245  10.585 -0.1032 -0.1234 -0.0675
  246loPI   PO4 3924  16.253  10.787  10.341 -0.2324 -0.1100 -0.4956
  246loPI   GL1 3925  16.049  10.842   9.974  0.1487 -0.3733  0.1147
  246loPI   GL2 3926  15.712  11.043   9.813  0.1615 -0.0045  0.0373
  246loPI   C1A 3927  16.285  11.121   9.685  0.1011  0.0773  0.0544
  246loPI   C2A 3928  16.355  11.088   9.324  0.2186 -0.0300 -0.1007
  246loPI   C3A 3929  16.353  10.949   8.887 -0.0649 -0.0136 -0.1638
  246loPI   C4A 3930  16.465  10.992   8.525 -0.0500 -0.0070  0.2102
  246loPI   C5A 3931  16.291  11.135   8.097 -0.1341  0.0549 -0.1232
  246loPI   C6A 3932  16.107  11.349   7.806 -0.0111  0.3110  0.1738
  246loPI   C1B 3933  15.891  10.983   9.454 -0.2636  0.0025 -0.0271
  246loPI   C2B 3934  15.857  10.962   9.028  0.2068 -0.2386 -0.1018
  246loPI   C3B 3935  15.940  11.038   8.635  0.0465 -0.0308  0.1108
  246loPI   C4B 3936  15.968  11.389   8.326 -0.0274  0.0281  0.0467
  247loPI    C1 3937   0.909  10.370  10.521  0.2526 -0.0492  0.0849
  247loPI    C2 3938   0.857  10.701  10.739  0.0456 -0.0484  0.0358
  247loPI    C3 3939   0.839  10.342  10.914  0.1859 -0.0371  0.0740
  247loPI   PO4 3940   0.752  10.387  10.251 -0.1405  0.0094  0.1678
  247loPI   GL1 3941   0.822  10.457   9.978  0.0850  0.0601 -0.1653
  247loPI   GL2 3942   0.580  10.644   9.873 -0.1457  0.3269 -0.2855
  247loPI   C1A 3943   0.759  10.357   9.523  0.0096  0.2226  0.1686
  247loPI   C2A 3944   0.750  10.532   9.164  0.3183  0.3297 -0.0950
  247loPI   C3A 3945   0.757  10.610   8.780 -0.2384  0.2001 -0.0048
  247loPI   C4A 3946   0.746  10.788   8.356  0.2624 -0.1447  0.0700
  247loPI   C5A 3947   0.749  10.764   7.916 -0.1205 -0.1037  0.1117
  247loPI   C6A 3948   0.752  10.546   7.439 -0.3075 -0.0971  0.3163
  247loPI   C1B 3949   0.457  10.775   9.488  0.2564  0.3533 -0.1553
  247loPI   C2B 3950   0.401  10.840   8.986  0.3369  0.0057 -0.1239
  247loPI   C3B 3951   0.243  10.945   8.581  0.2557 -0.0704  0.0536
  247loPI   C4B 3952   0.197  10.832   8.115 -0.0172 -0.1578 -0.1574
  248loPI    C1 3953   0.198  10.977  10.258  0.0977  0.0834  0.1244
  248loPI    C2 3954   0.529  10.806  10.404  0.0947 -0.0793 -0.0553
  248loPI    C3 3955   0.377  11.131  10.581  0.1627 -0.1981  0.2257
  248loPI   PO4 3956   0.214  10.989  10.041  0.0350  0.2471 -0.0964
  248loPI   GL1 3957   0.225  11.189   9.694 -0.2154 -0.3434  0.0412
  248loPI   GL2 3958   0.414  11.476   9.817  0.0209  0.2632 -0.1821
  248loPI   C1A 3959   0.104  11.222   9.283 -0.1149 -0.1112  0.0363
  248loPI   C2A 3960  -0.182  11.146   8.969  0.1270 -0.1688 -0.0499
  248loPI   C3A 3961  -0.338  11.124   8.607  0.1315 -0.1829  0.0997
  248loPI   C4A 3962  -0.549  11.170   8.277 -0.1248  0.3629  0.1419
  248loPI   C5A 3963  -0.526  11.253   7.885 -0.1931  0.1269 -0.3736
  248loPI   C6A 3964  -0.823  11.337   7.524 -0.0299 -0.6094  0.3452
  248loPI   C1B 3965   0.563  11.423   9.370  0.3530  0.1040 -0.2210
  248loPI   C2B 3966   0.411  11.411   8.935  0.0866 -0.3068 -0.3315
  248loPI   C3B 3967   0.155  11.479   8.566 -0.0415  0.3676 -0.1383
  248loPI   C4B 3968  -0.084  11.353   8.242 -0.0652 -0.0908 -0.0718
  249loPI    C1 3969  17.583  16.633  10.310  0.1954 -0.0917 -0.0820
  249loPI    C2 3970  17.481  16.709  10.690  0.1487 -0.1896 -0.0748
  249loPI    C3 3971  17.720  16.399  10.605  0.0499 -0.2495 -0.1375
  249loPI   PO4 3972  17.325  16.626  10.161 -0.0393 -0.0517  0.0500
  249loPI   GL1 3973  17.064  16.519   9.797 -0.3171  0.0449  0.2651
  249loPI   GL2 3974  17.292  16.779   9.667 -0.0401 -0.1133  0.0627
  249loPI   C1A 3975  16.896  16.421   9.413  0.1639  0.0477  0.0631
  249loPI   C2A 3976  16.682  16.380   9.061 -0.2203  0.2494  0.1477
  249loPI   C3A 3977  16.390  16.489   8.718 -0.1937 -0.1452 -0.1316
  249loPI   C4A 3978  16.236  16.744   8.368 -0.1386  0.0482 -0.2164
  249loPI   C5A 3979  16.427  17.055   8.077 -0.0861 -0.0585 -0.0661
  249loPI   C6A 3980  16.424  17.550   7.965  0.0123 -0.0884 -0.0053
  249loPI   C1B 3981  17.385  16.827   9.259 -0.1349  0.3293  0.5537
  249loPI   C2B 3982  17.119  16.648   8.990 -0.1607 -0.1039 -0.0645
  249loPI   C3B 3983  17.113  16.324   8.709  0.0613  0.1783  0.1654
  249loPI   C4B 3984  16.747  16.242   8.542  0.0324 -0.0161 -0.0397
  250loPI    C1 3985   9.129  16.359  10.686 -0.1856  0.1499  0.1234
  250loPI    C2 3986   8.843  16.123  10.837 -0.0734 -0.1460 -0.1171
  250loPI    C3 3987   9.212  15.980  10.780  0.1399  0.2433  0.2254
  250loPI   PO4 3988   9.028  16.476  10.423 -0.2072 -0.0933 -0.2533
  250loPI   GL1 3989   9.157  16.574  10.061  0.4948 -0.0247 -0.2472
  250loPI   GL2 3990   8.998  16.234   9.948  0.0831 -0.2273  0.0761
  250loPI   C1A 3991   8.972  16.688   9.692 -0.2523 -0.3944 -0.0981
  250loPI   C2A 3992   9.022  16.685   9.315 -0.0022  0.1143  0.1063
  250loPI   C3A 3993   8.973  16.604   8.895  0.1121 -0.1441 -0.0283
  250loPI   C4A 3994   9.005  16.607   8.447  0.1280 -0.2586  0.0783
  250loPI   C5A 3995   9.057  16.947   8.135 -0.5315 -0.0794 -0.0945
  250loPI   C6A 3996   8.994  17.121   7.692 -0.0998 -0.1712 -0.2186
  250loPI   C1B 3997   9.321  16.327   9.656  0.1479  0.1258  0.1850
  250loPI   C2B 3998   9.677  16.401   9.425  0.0216 -0.2008 -0.0779
  250loPI   C3B 3999   9.755  16.459   8.984  0.2923 -0.3593 -0.0827
  250loPI   C4B 4000   9.610  16.372   8.641 -0.0457 -0.0527 -0.0377
  251loPI    C1 4001   5.359   3.781  10.926  0.2413 -0.0762  0.2700
  251loPI    C2 4002   4.975   3.863  10.999  0.2025  0.1933 -0.1991
  251loPI    C3 4003   5.199   3.690  11.282 -0.2193  0.1733  0.1340
  251loPI   PO4 4004   5.301   3.631  10.579  0.1080 -0.0818 -0.3048
  251loPI   GL1 4005   5.162   3.772  10.204  0.1054 -0.1273  0.0297
  251loPI   GL2 4006   4.920   3.684  10.119 -0.1688  0.1760 -0.4447
  251loPI   C1A 4007   5.381   3.932   9.830  0.2196  0.1186  0.4051
  251loPI   C2A 4008   5.292   3.894   9.316 -0.0157  0.1072  0.1074
  251loPI   C3A 4009   5.292   3.799   8.897 -0.1068  0.4924 -0.2404
  251loPI   C4A 4010   5.470   3.969   8.465 -0.0040 -0.2416  0.0876
  251loPI   C5A 4011   5.432   3.808   8.123  0.2430 -0.0232 -0.1031
  251loPI   C6A 4012   5.268   3.572   7.909  0.0202  0.0294 -0.1292
  251loPI   C1B 4013   4.929   3.754   9.659 -0.1318  0.0588 -0.4244
  251loPI   C2B 4014   4.906   3.588   9.219 -0.2645 -0.2112 -0.0895
  251loPI   C3B 4015   4.928   3.456   8.804 -0.2151 -0.2764 -0.1552
  251loPI   C4B 4016   5.021   3.358   8.440  0.3929  0.1341  0.0137
  252loPI    C1 4017   4.512   5.259  10.973 -0.0506  0.1690  0.1880
  252loPI    C2 4018   4.510   5.568  10.719 -0.1680  0.0007 -0.0208
  252loPI    C3 4019   4.404   5.622  11.101 -0.0740  0.2395 -0.0264
  252loPI   PO4 4020   4.623   4.993  10.766  0.2673 -0.1309 -0.0157
  252loPI   GL1 4021   4.690   5.019  10.275 -0.0096 -0.0862  0.0249
  252loPI   GL2 4022   4.952   4.996  10.175 -0.4386 -0.0083  0.0412
  252loPI   C1A 4023   4.541   4.982   9.947  0.2349 -0.2006  0.0083
  252loPI   C2A 4024   4.655   5.029   9.561  0.0128 -0.2109  0.2354
  252loPI   C3A 4025   4.694   4.946   9.145 -0.0921  0.0754  0.1406
  252loPI   C4A 4026   4.862   5.009   8.780  0.1846 -0.0082  0.5173
  252loPI   C5A 4027   4.757   4.961   8.426 -0.2684  0.2631  0.2202
  252loPI   C6A 4028   4.701   5.263   8.091  0.2907  0.1720 -0.3775
  252loPI   C1B 4029   5.336   4.989   9.757 -0.0018 -0.0370 -0.1253
  252loPI   C2B 4030   5.510   5.016   9.417  0.1835 -0.0937  0.4713
  252loPI   C3B 4031   5.626   5.011   8.962  0.2774 -0.0709 -0.0886
  252loPI   C4B 4032   5.689   5.168   8.551 -0.2423 -0.0724 -0.0911
  253loPI    C1 4033  15.904   6.417  10.239  0.1478  0.0338 -0.0824
  253loPI    C2 4034  15.629   6.698  10.166  0.2771  0.1388 -0.1691
  253loPI    C3 4035  15.582   6.449  10.475  0.1171  0.1973 -0.1453
  253loPI   PO4 4036  16.106   6.578  10.121 -0.1644  0.0813  0.2622
  253loPI   GL1 4037  16.372   6.415   9.717 -0.0375 -0.2461 -0.0225
  253loPI   GL2 4038  16.631   6.204   9.657  0.0981  0.0139 -0.2890
  253loPI   C1A 4039  16.236   6.661   9.347  0.0327 -0.0088  0.2160
  253loPI   C2A 4040  16.321   6.595   8.901  0.0957  0.0010 -0.0813
  253loPI   C3A 4041  16.312   6.573   8.382 -0.3081 -0.1307 -0.2244
  253loPI   C4A 4042  16.160   6.745   8.018  0.0929  0.1487 -0.1688
  253loPI   C5A 4043  16.333   6.954   7.674  0.0462  0.0955 -0.0611
  253loPI   C6A 4044  16.311   7.102   7.251  0.1569  0.0520  0.2583
  253loPI   C1B 4045  16.781   5.906   9.352  0.5435 -0.4128 -0.1317
  253loPI   C2B 4046  16.936   5.825   8.928  0.1738  0.0695  0.0746
  253loPI   C3B 4047  17.071   5.824   8.553 -0.0369  0.3003 -0.3442
  253loPI   C4B 4048  17.178   5.797   8.128 -0.0933  0.2210  0.1016
  254loPI    C1 4049  10.093  17.215  10.439 -0.3091  0.1053  0.3046
  254loPI    C2 4050  10.191  16.970  10.739 -0.0622  0.0144  0.1534
  254loPI    C3 4051  10.264  17.362  10.770  0.1732 -0.0261  0.1224
  254loPI   PO4 4052  10.189  17.125  10.219 -0.1221 -0.1664  0.1512
  254loPI   GL1 4053  10.468  17.212   9.861 -0.0485 -0.1454  0.1074
  254loPI   GL2 4054  10.700  16.978  10.056 -0.1070 -0.1654 -0.0620
  254loPI   C1A 4055  10.604  17.175   9.453  0.0181  0.0113  0.0767
  254loPI   C2A 4056  10.541  17.135   9.012 -0.0505 -0.1794  0.1185
  254loPI   C3A 4057  10.329  17.031   8.493  0.1096 -0.0454 -0.1928
  254loPI   C4A 4058  10.326  16.825   8.089  0.0024 -0.2479  0.2150
  254loPI   C5A 4059  10.513  16.651   7.621  0.0109 -0.2295  0.0174
  254loPI   C6A 4060  10.651  16.600   7.192  0.2215  0.0710  0.0808
  254loPI   C1B 4061  10.571  16.711   9.712 -0.0429 -0.0645  0.2162
  254loPI   C2B 4062  10.579  16.705   9.231 -0.0533  0.4793 -0.0003
  254loPI   C3B 4063  10.679  16.749   8.751 -0.0139  0.1140 -0.2208
  254loPI   C4B 4064  10.732  16.569   8.343  0.0980  0.2153 -0.0490
  255loPI    C1 4065  17.564  13.022  10.364 -0.5254  0.2043  0.1906
  255loPI    C2 4066  17.791  12.950  10.685 -0.0544  0.1251 -0.1495
  255loPI    C3 4067  17.600  13.300  10.649 -0.3338  0.0324  0.3368
  255loPI   PO4 4068  17.413  12.740  10.262 -0.1010  0.1644 -0.2097
  255loPI   GL1 4069  17.349  12.388   9.944  0.1220  0.0855 -0.1155
  255loPI   GL2 4070  17.709  12.384  10.093  0.1488  0.2849 -0.1164
  255loPI   C1A 4071  17.318  12.391   9.514  0.1111  0.0271  0.0272
  255loPI   C2A 4072  17.205  12.340   9.149  0.0177  0.0105  0.0686
  255loPI   C3A 4073  17.236  12.235   8.698  0.0140  0.2491  0.2215
  255loPI   C4A 4074  17.194  12.208   8.184 -0.1021  0.0948 -0.0803
  255loPI   C5A 4075  16.898  11.892   8.051 -0.0031  0.2567 -0.3448
  255loPI   C6A 4076  16.512  11.746   7.885 -0.1114 -0.0484  0.0659
  255loPI   C1B 4077  17.821  12.248   9.729 -0.2900  0.3633 -0.3144
  255loPI   C2B 4078  18.047  12.141   9.399 -0.2138  0.0902  0.1973
  255loPI   C3B 4079  17.975  12.043   9.019 -0.0451  0.2375  0.2356
  255loPI   C4B 4080  17.733  12.164   8.545  0.2563  0.0657 -0.0825
  256loPI    C1 4081  10.788  12.817  10.145  0.0281 -0.0195  0.0448
  256loPI    C2 4082  10.908  12.611  10.466  0.0894  0.0454  0.0639
  256loPI    C3 4083  10.660  12.922  10.509  0.1108  0.0643  0.0499
  256loPI   PO4 4084  10.968  12.795   9.857  0.1193  0.1573 -0.2164
  256loPI   GL1 4085  10.929  12.751   9.397 -0.1553 -0.1142 -0.0348
  256loPI   GL2 4086  10.707  12.544   9.346  0.0978  0.0029  0.3422
  256loPI   C1A 4087  11.048  12.864   8.942 -0.0254  0.3192  0.0468
  256loPI   C2A 4088  11.072  12.601   8.519 -0.1833  0.1080  0.3347
  256loPI   C3A 4089  11.049  12.437   8.097  0.0506  0.0124  0.0876
  256loPI   C4A 4090  10.823  12.361   7.789  0.0937 -0.3994  0.2054
  256loPI   C5A 4091  10.726  11.990   7.556  0.0694 -0.1930 -0.0173
  256loPI   C6A 4092  10.492  11.653   7.314  0.1879  0.0745 -0.1943
  256loPI   C1B 4093  10.639  12.644   8.948  0.1400 -0.1140 -0.0176
  256loPI   C2B 4094  10.607  12.545   8.528  0.1322 -0.0170 -0.2592
  256loPI   C3B 4095  10.421  12.498   8.080  0.3379  0.1513  0.2985
  256loPI   C4B 4096  10.250  12.211   7.672 -0.1403  0.0427  0.0809
  257loPI    C1 4097   2.599   3.619  10.424  0.1545 -0.0424 -0.0040
  257loPI    C2 4098   2.812   3.918  10.585 -0.0596  0.1876 -0.1400
  257loPI    C3 4099   2.423   3.880  10.672 -0.0364 -0.0477 -0.1321
  257loPI   PO4 4100   2.741   3.685  10.120  0.2568  0.0268  0.0118
  257loPI   GL1 4101   3.101   3.568   9.950  0.0680  0.2035 -0.2360
  257loPI   GL2 4102   3.294   3.321  10.002  0.2649  0.1086  0.1519
  257loPI   C1A 4103   2.972   3.563   9.494  0.0604 -0.0837 -0.0449
  257loPI   C2A 4104   3.118   3.568   9.001  0.3473  0.1501 -0.0661
  257loPI   C3A 4105   3.239   3.591   8.545  0.2274  0.1562 -0.1964
  257loPI   C4A 4106   3.467   3.752   8.194  0.1025  0.1851 -0.0289
  257loPI   C5A 4107   3.614   3.964   7.745  0.0822  0.0672 -0.1310
  257loPI   C6A 4108   4.093   3.958   7.640 -0.0590  0.1250  0.2506
  257loPI   C1B 4109   3.463   3.383   9.593 -0.0431  0.3216  0.0100
  257loPI   C2B 4110   3.615   3.269   9.273  0.0885 -0.2138  0.0524
  257loPI   C3B 4111   3.518   3.242   8.891 -0.0054 -0.2199  0.0468
  257loPI   C4B 4112   3.624   3.276   8.383  0.0163  0.0588 -0.0870
  258loPI    C1 4113  14.688   6.035  10.293 -0.0548 -0.1720  0.1541
  258loPI    C2 4114  14.535   6.404  10.316  0.0800 -0.0927 -0.1686
  258loPI    C3 4115  14.692   6.232  10.641  0.0454  0.1467 -0.0227
  258loPI   PO4 4116  14.754   6.075  10.012 -0.2957  0.2003  0.3117
  258loPI   GL1 4117  14.767   6.421   9.795  0.0161 -0.0761  0.0310
  258loPI   GL2 4118  14.433   6.369   9.811 -0.0925  0.1477  0.1899
  258loPI   C1A 4119  14.959   6.291   9.418 -0.0304 -0.3588 -0.1600
  258loPI   C2A 4120  14.874   6.527   9.092  0.1549 -0.0144  0.5188
  258loPI   C3A 4121  14.989   6.601   8.640 -0.0019  0.2926  0.2340
  258loPI   C4A 4122  14.778   6.306   8.346 -0.1537 -0.1771 -0.2506
  258loPI   C5A 4123  14.661   6.159   8.038 -0.1951  0.0933  0.1261
  258loPI   C6A 4124  14.678   5.878   7.714  0.1078  0.3637  0.0171
  258loPI   C1B 4125  14.374   6.424   9.375  0.0617 -0.2453  0.4009
  258loPI   C2B 4126  14.439   6.385   8.865 -0.0041  0.0601 -0.1345
  258loPI   C3B 4127  14.297   6.337   8.473 -0.0720 -0.2701  0.1388
  258loPI   C4B 4128  14.122   6.375   8.026  0.0667  0.0117 -0.1942
  259loPI    C1 4129   3.427   4.288  10.519  0.1235 -0.0162 -0.1025
  259loPI    C2 4130   3.387   4.578  10.792  0.1334  0.0484 -0.1694
  259loPI    C3 4131   3.178   4.238  10.829  0.1064  0.0722 -0.1019
  259loPI   PO4 4132   3.419   4.383  10.251  0.2332 -0.0942  0.1247
  259loPI   GL1 4133   3.224   4.232   9.887 -0.1437 -0.5059  0.1509
  259loPI   GL2 4134   3.011   3.981   9.768  0.1114  0.1681  0.2437
  259loPI   C1A 4135   3.298   4.457   9.588 -0.1027  0.2751  0.0584
  259loPI   C2A 4136   3.397   4.483   9.127  0.2059 -0.1422 -0.1920
  259loPI   C3A 4137   3.555   4.209   8.703 -0.0889  0.1387  0.0405
  259loPI   C4A 4138   3.857   4.076   8.182  0.2168  0.1564  0.1626
  259loPI   C5A 4139   3.988   3.613   8.135  0.0988  0.2469 -0.0902
  259loPI   C6A 4140   4.144   3.423   7.787  0.4721  0.1471 -0.0514
  259loPI   C1B 4141   3.070   4.045   9.359  0.0152  0.0764 -0.3377
  259loPI   C2B 4142   3.139   4.085   8.952 -0.1282 -0.0035 -0.0890
  259loPI   C3B 4143   3.112   4.174   8.494 -0.2178 -0.1377  0.3471
  259loPI   C4B 4144   3.395   4.270   8.184  0.0078  0.1058 -0.1474
  260loPI    C1 4145   9.450   7.535  10.472  0.1551 -0.1024  0.0143
  260loPI    C2 4146   9.186   7.835  10.485  0.2469 -0.0067 -0.2561
  260loPI    C3 4147   9.400   7.743  10.810 -0.0210  0.0009 -0.0739
  260loPI   PO4 4148   9.291   7.360  10.336  0.0819  0.3186 -0.0433
  260loPI   GL1 4149   8.962   7.441   9.952  0.0556 -0.1253 -0.1642
  260loPI   GL2 4150   8.771   7.723  10.037  0.3202  0.0363  0.1130
  260loPI   C1A 4151   8.942   7.123   9.584  0.2895 -0.2287  0.0135
  260loPI   C2A 4152   8.915   7.020   9.187  0.1514  0.0448 -0.3199
  260loPI   C3A 4153   8.947   7.105   8.742 -0.0407  0.0998  0.1420
  260loPI   C4A 4154   8.919   7.072   8.359 -0.1794 -0.0343  0.0755
  260loPI   C5A 4155   9.079   7.151   7.959 -0.3234  0.1955  0.0546
  260loPI   C6A 4156   9.139   6.914   7.437 -0.1827  0.4357 -0.2284
  260loPI   C1B 4157   8.599   7.529   9.630  0.2419  0.0447  0.2309
  260loPI   C2B 4158   8.628   7.504   9.154 -0.0464  0.0713  0.1725
  260loPI   C3B 4159   8.763   7.541   8.782 -0.4695  0.4230 -0.0814
  260loPI   C4B 4160   8.685   7.605   8.344  0.0519 -0.2919  0.0023
  261loPI    C1 4161   9.268  11.584  10.404  0.0763 -0.1270  0.1127
  261loPI    C2 4162   9.066  11.671  10.071  0.2818  0.0403  0.0296
  261loPI    C3 4163   8.904  11.746  10.429  0.0909 -0.0711 -0.0319
  261loPI   PO4 4164   9.352  11.338  10.259 -0.2866 -0.2814  0.0101
  261loPI   GL1 4165   9.346  11.224   9.892  0.0233 -0.0568  0.0432
  261loPI   GL2 4166   8.988  11.231   9.847  0.0185  0.0402  0.2018
  261loPI   C1A 4167   9.192  10.903   9.531  0.0452  0.1450  0.0144
  261loPI   C2A 4168   9.111  10.845   9.143  0.0019  0.1601  0.3095
  261loPI   C3A 4169   9.061  10.635   8.779  0.3177 -0.0625 -0.1845
  261loPI   C4A 4170   9.041  10.375   8.434  0.3196  0.0049  0.3360
  261loPI   C5A 4171   9.120  10.387   7.915 -0.1867  0.0153 -0.3764
  261loPI   C6A 4172   8.974  10.594   7.604  0.0594  0.0115 -0.2682
  261loPI   C1B 4173   8.792  11.310   9.485 -0.3417  0.2605 -0.3688
  261loPI   C2B 4174   8.843  11.263   9.035 -0.2360 -0.4084 -0.2298
  261loPI   C3B 4175   8.939  11.147   8.571  0.0991  0.0504  0.0514
  261loPI   C4B 4176   9.070  10.861   8.210  0.4109 -0.1808 -0.0906
  262loPI    C1 4177  16.678   5.778  10.297  0.0078 -0.1836 -0.1180
  262loPI    C2 4178  16.454   5.460  10.202 -0.1755 -0.0008 -0.3073
  262loPI    C3 4179  16.335   5.709  10.492  0.0185 -0.1573 -0.0897
  262loPI   PO4 4180  16.704   5.816   9.963 -0.2541  0.1293 -0.3599
  262loPI   GL1 4181  16.947   5.537   9.702  0.1506  0.4125  0.1317
  262loPI   GL2 4182  17.283   5.571   9.715  0.0347  0.0671 -0.0266
  262loPI   C1A 4183  17.240   5.501   9.217 -0.1895  0.1155 -0.4225
  262loPI   C2A 4184  17.427   5.538   8.825  0.0481 -0.3139  0.1546
  262loPI   C3A 4185  17.644   5.518   8.379  0.0676 -0.1321 -0.1039
  262loPI   C4A 4186  17.750   5.580   7.959  0.1116 -0.1982  0.0400
  262loPI   C5A 4187  17.831   5.519   7.580 -0.2737  0.0112 -0.3122
  262loPI   C6A 4188  18.050   5.757   7.388  0.3102  0.0373  0.4163
  262loPI   C1B 4189  17.712   5.635   9.729 -0.0666 -0.1095 -0.0649
  262loPI   C2B 4190  18.032   5.479   9.499 -0.1599 -0.0900 -0.1787
  262loPI   C3B 4191  18.238   5.243   9.150  0.0652  0.3092 -0.2549
  262loPI   C4B 4192  18.530   4.899   8.868  0.0820 -0.0823  0.1454
  263loPI    C1 4193  14.420   3.812  10.330  0.0862 -0.2973  0.0968
  263loPI    C2 4194  14.125   3.674  10.562 -0.0852  0.0798  0.1113
  263loPI    C3 4195  14.506   3.591  10.652 -0.1659 -0.0596  0.3323
  263loPI   PO4 4196  14.303   3.694  10.070  0.1752  0.3450  0.2942
  263loPI   GL1 4197  13.967   3.912   9.818 -0.0665 -0.0320  0.2293
  263loPI   GL2 4198  13.662   4.195   9.754 -0.2112 -0.1063  0.0308
  263loPI   C1A 4199  14.248   3.889   9.403  0.1193 -0.2595 -0.0420
  263loPI   C2A 4200  14.211   3.657   9.024 -0.0024  0.0715 -0.2546
  263loPI   C3A 4201  14.084   3.720   8.574 -0.0649  0.1083 -0.3982
  263loPI   C4A 4202  14.306   3.649   8.119  0.2776  0.1624  0.0978
  263loPI   C5A 4203  14.580   3.778   7.770 -0.0539  0.1962 -0.0766
  263loPI   C6A 4204  14.918   3.708   7.397  0.2335 -0.0969 -0.3302
  263loPI   C1B 4205  13.759   4.213   9.362 -0.0278  0.2707 -0.3041
  263loPI   C2B 4206  13.838   4.043   8.983  0.1146  0.1659 -0.0153
  263loPI   C3B 4207  13.743   4.022   8.579  0.1564 -0.1108  0.1402
  263loPI   C4B 4208  13.943   4.020   8.169  0.0403  0.0627 -0.1135
  264loPI    C1 4209   4.670   1.596  10.520 -0.0598  0.1752 -0.0262
  264loPI    C2 4210   4.809   1.867  10.261  0.1308  0.0492 -0.0578
  264loPI    C3 4211   5.013   1.789  10.596  0.1290 -0.1262 -0.0969
  264loPI   PO4 4212   4.656   1.337  10.362 -0.4279  0.1237  0.2220
  264loPI   GL1 4213   4.901   1.494   9.983  0.2844 -0.1320 -0.5244
  264loPI   GL2 4214   4.904   1.271   9.821  0.0031  0.1149  0.2074
  264loPI   C1A 4215   4.547   1.667   9.678 -0.1510 -0.2089 -0.0475
  264loPI   C2A 4216   4.467   1.595   9.333 -0.0629  0.2381 -0.1541
  264loPI   C3A 4217   4.527   1.625   8.947  0.0312 -0.2614 -0.0780
  264loPI   C4A 4218   4.387   1.622   8.551  0.1395  0.3166  0.1839
  264loPI   C5A 4219   4.346   1.720   8.133 -0.0667  0.1714  0.1961
  264loPI   C6A 4220   4.415   1.644   7.701 -0.0871 -0.2195 -0.1778
  264loPI   C1B 4221   4.871   1.294   9.357 -0.0233  0.0814  0.0304
  264loPI   C2B 4222   4.950   1.259   8.920 -0.0509 -0.1234 -0.1107
  264loPI   C3B 4223   4.830   1.357   8.473  0.1253 -0.1591 -0.1027
  264loPI   C4B 4224   4.702   1.370   7.998  0.0733 -0.0313  0.0237
  265loPI    C1 4225  17.496   5.843  10.809  0.1036 -0.0348 -0.2913
  265loPI    C2 4226  17.211   5.599  10.671  0.0792  0.0569 -0.4041
  265loPI    C3 4227  17.462   5.472  10.955 -0.2909  0.0888 -0.0523
  265loPI   PO4 4228  17.612   5.977  10.556 -0.0146 -0.1990  0.3753
  265loPI   GL1 4229  17.604   6.158  10.164 -0.1187 -0.1287 -0.1175
  265loPI   GL2 4230  17.319   6.372  10.032 -0.2998 -0.1109  0.1065
  265loPI   C1A 4231  17.689   6.131   9.677  0.0205 -0.0974  0.5389
  265loPI   C2A 4232  17.771   6.198   9.311  0.0822 -0.1282  0.1848
  265loPI   C3A 4233  17.873   6.134   8.977  0.1683 -0.0202  0.2057
  265loPI   C4A 4234  17.769   6.045   8.560  0.1480  0.3311 -0.0161
  265loPI   C5A 4235  17.730   6.109   8.135 -0.2231  0.1403  0.2408
  265loPI   C6A 4236  17.508   5.978   7.762 -0.0570 -0.0155 -0.1203
  265loPI   C1B 4237  17.504   6.573   9.599  0.0293 -0.0718 -0.1156
  265loPI   C2B 4238  17.526   6.701   9.204  0.2230 -0.1100  0.3010
  265loPI   C3B 4239  17.699   6.553   8.854  0.0162 -0.0214 -0.1116
  265loPI   C4B 4240  17.769   6.540   8.370 -0.1212 -0.2210  0.0983
  266loPI    C1 4241  13.966   0.530  11.080 -0.0089  0.3654  0.1556
  266loPI    C2 4242  13.654   0.440  11.314  0.0876  0.0496  0.1679
  266loPI    C3 4243  13.975   0.202  11.309  0.1918  0.1909 -0.0965
  266loPI   PO4 4244  13.941   0.516  10.735 -0.0819  0.0361  0.0221
  266loPI   GL1 4245  14.303   0.824  10.594 -0.1598  0.1892  0.2123
  266loPI   GL2 4246  14.470   1.027  10.391  0.2208  0.0263 -0.0168
  266loPI   C1A 4247  14.265   0.496  10.172 -0.0401  0.2891 -0.1040
  266loPI   C2A 4248  14.070   0.565   9.852  0.0445 -0.0909  0.0498
  266loPI   C3A 4249  13.976   0.462   9.495  0.5477  0.2658  0.0727
  266loPI   C4A 4250  13.934   0.189   9.103 -0.0067 -0.1521 -0.4846
  266loPI   C5A 4251  13.942   0.114   8.650 -0.1846 -0.1590  0.0849
  266loPI   C6A 4252  14.157  -0.313   8.587 -0.0306 -0.0869 -0.0904
  266loPI   C1B 4253  14.574   0.891  10.000 -0.1144 -0.1659  0.3098
  266loPI   C2B 4254  14.608   0.742   9.612  0.3583 -0.4887  0.2227
  266loPI   C3B 4255  14.555   0.564   9.261  0.2451 -0.0051  0.0617
  266loPI   C4B 4256  14.393   0.752   8.895 -0.1470  0.0854  0.1547
  267loPI    C1 4257  14.643   7.403  10.345 -0.0348  0.0814 -0.1021
  267loPI    C2 4258  14.388   7.101  10.285  0.0146  0.0316 -0.0624
  267loPI    C3 4259  14.538   7.167  10.650  0.0558  0.0626 -0.0850
  267loPI   PO4 4260  14.779   7.395  10.109  0.0279  0.1916  0.0253
  267loPI   GL1 4261  14.801   7.729   9.846 -0.0513 -0.1116  0.1091
  267loPI   GL2 4262  14.766   8.079   9.798  0.0782 -0.6737  0.5328
  267loPI   C1A 4263  14.818   7.743   9.431  0.0530  0.1246 -0.1473
  267loPI   C2A 4264  14.646   7.897   9.075 -0.2457  0.0972 -0.1108
  267loPI   C3A 4265  14.662   7.799   8.671 -0.1708 -0.1225 -0.0926
  267loPI   C4A 4266  14.783   7.947   8.217  0.1178  0.1441  0.0477
  267loPI   C5A 4267  14.949   7.805   7.787 -0.0849 -0.1177 -0.2154
  267loPI   C6A 4268  14.795   7.816   7.313  0.1947 -0.2568  0.0166
  267loPI   C1B 4269  14.530   8.306   9.449 -0.0914  0.0937  0.1666
  267loPI   C2B 4270  14.495   8.400   9.042 -0.0073  0.2492  0.3815
  267loPI   C3B 4271  14.459   8.233   8.627  0.0022  0.0837  0.1307
  267loPI   C4B 4272  14.313   8.146   8.182  0.3294 -0.0023  0.0395
  268loPI    C1 4273   0.074  14.353  10.460  0.0908  0.1643  0.1350
  268loPI    C2 4274  -0.121  14.702  10.460 -0.1838  0.0157 -0.1111
  268loPI    C3 4275  -0.250  14.401  10.690  0.0295  0.0612  0.0714
  268loPI   PO4 4276   0.143  14.347  10.123  0.0035 -0.2830 -0.1627
  268loPI   GL1 4277   0.017  14.262   9.857  0.2319 -0.0315  0.2416
  268loPI   GL2 4278   0.255  14.581   9.742 -0.0149 -0.0745  0.1904
  268loPI   C1A 4279  -0.029  14.162   9.429  0.0905 -0.1362  0.3187
  268loPI   C2A 4280   0.008  13.977   8.981  0.0508  0.1245 -0.0151
  268loPI   C3A 4281  -0.056  13.850   8.601 -0.0092 -0.0745  0.1386
  268loPI   C4A 4282  -0.035  13.545   8.292  0.1646  0.0708 -0.0890
  268loPI   C5A 4283  -0.081  13.534   7.817  0.0597 -0.2866 -0.2539
  268loPI   C6A 4284   0.017  13.647   7.386  0.1002  0.0081 -0.3355
  268loPI   C1B 4285   0.297  14.573   9.302  0.0560 -0.0530  0.1196
  268loPI   C2B 4286   0.226  14.440   8.865  0.0986 -0.0460  0.1620
  268loPI   C3B 4287   0.215  14.389   8.478 -0.0240  0.3048 -0.0262
  268loPI   C4B 4288   0.074  14.021   8.133  0.0371 -0.0051 -0.0006
  269loPI    C1 4289   3.488   9.636  10.832 -0.0303  0.1921 -0.0736
  269loPI    C2 4290   3.670   9.415  11.111 -0.0017  0.2730 -0.0279
  269loPI    C3 4291   3.385   9.253  10.881 -0.0358  0.2102  0.0579
  269loPI   PO4 4292   3.702   9.735  10.666 -0.0319 -0.0298  0.1362
  269loPI   GL1 4293   3.742   9.905  10.240 -0.1004  0.1428 -0.0268
  269loPI   GL2 4294   4.040   9.613  10.308 -0.1628  0.1068 -0.0753
  269loPI   C1A 4295   3.589   9.758   9.926  0.1918 -0.3830  0.2878
  269loPI   C2A 4296   3.406   9.751   9.587 -0.3154  0.2169 -0.1352
  269loPI   C3A 4297   3.294   9.733   9.207  0.1396  0.1588 -0.2388
  269loPI   C4A 4298   2.857   9.731   9.119  0.2345  0.0167  0.0183
  269loPI   C5A 4299   2.657   9.823   8.740  0.1688 -0.2105 -0.1977
  269loPI   C6A 4300   2.542   9.931   8.270 -0.1545  0.1882  0.1646
  269loPI   C1B 4301   4.085   9.692   9.859  0.0544  0.0276 -0.2059
  269loPI   C2B 4302   3.942   9.723   9.500 -0.3793 -0.1472 -0.0913
  269loPI   C3B 4303   3.790   9.680   9.136  0.0164  0.1408  0.1116
  269loPI   C4B 4304   3.590   9.533   8.854  0.0541  0.2141  0.0329
  270loPI    C1 4305  17.590   0.537  10.525 -0.1931  0.1516 -0.0273
  270loPI    C2 4306  17.871   0.631  10.794 -0.2088  0.1209 -0.0003
  270loPI    C3 4307  17.599   0.349  10.878 -0.2400  0.1421 -0.0311
  270loPI   PO4 4308  17.666   0.578  10.269 -0.0658  0.0585  0.0610
  270loPI   GL1 4309  17.753   0.147   9.962  0.0323  0.0335  0.0897
  270loPI   GL2 4310  17.471  -0.045   9.740  0.1056 -0.0447  0.1724
  270loPI   C1A 4311  17.945   0.086   9.510  0.1011 -0.0382 -0.3960
  270loPI   C2A 4312  17.936   0.071   9.095  0.0124  0.0668  0.0205
  270loPI   C3A 4313  17.717   0.059   8.699  0.1378  0.2676  0.1940
  270loPI   C4A 4314  17.495  -0.049   8.380  0.0660 -0.2980 -0.0801
  270loPI   C5A 4315  17.390  -0.069   8.034 -0.0518 -0.5356  0.2522
  270loPI   C6A 4316  17.285  -0.288   7.660 -0.1934  0.2120 -0.0029
  270loPI   C1B 4317  17.408  -0.162   9.304  0.0321  0.3359 -0.0156
  270loPI   C2B 4318  17.246  -0.220   8.840  0.0343 -0.0534 -0.0473
  270loPI   C3B 4319  17.051  -0.275   8.400 -0.2285 -0.0281  0.2886
  270loPI   C4B 4320  16.804  -0.579   8.208 -0.2175  0.1246 -0.0890
  271loPI    C1 4321   3.675  15.831  10.293 -0.0889 -0.0105  0.1304
  271loPI    C2 4322   3.989  16.000  10.475  0.0432 -0.0106 -0.0936
  271loPI    C3 4323   3.646  16.203  10.437  0.0647  0.0469  0.0145
  271loPI   PO4 4324   3.688  15.623  10.319 -0.3333  0.0705  0.0570
  271loPI   GL1 4325   3.647  15.458   9.880 -0.1824  0.0311 -0.2503
  271loPI   GL2 4326   3.658  15.878   9.758 -0.1019  0.2444 -0.1223
  271loPI   C1A 4327   3.852  15.479   9.536  0.0571 -0.0088 -0.0292
  271loPI   C2A 4328   3.928  15.482   9.110  0.0605 -0.1061 -0.1048
  271loPI   C3A 4329   3.835  15.445   8.763  0.0594 -0.1693  0.2371
  271loPI   C4A 4330   3.865  15.527   8.416  0.0306  0.2965 -0.1521
  271loPI   C5A 4331   3.893  15.515   8.007  0.0028 -0.0050  0.2730
  271loPI   C6A 4332   4.170  15.522   7.752 -0.2083 -0.3278 -0.0161
  271loPI   C1B 4333   3.549  15.826   9.306  0.0662 -0.0851  0.0404
  271loPI   C2B 4334   3.494  15.878   8.908 -0.2193 -0.2498 -0.1272
  271loPI   C3B 4335   3.447  15.956   8.480  0.3623  0.0747 -0.2490
  271loPI   C4B 4336   3.713  15.956   8.202 -0.0419 -0.4534  0.1254
  272loPI    C1 4337   3.644  10.617  10.210  0.2405  0.0972  0.1589
  272loPI    C2 4338   3.492  10.756  10.553  0.1436  0.3196  0.0281
  272loPI    C3 4339   3.661  10.394  10.541 -0.1229  0.1846  0.2412
  272loPI   PO4 4340   3.767  10.826  10.090  0.0531 -0.0117  0.2475
  272loPI   GL1 4341   3.914  10.835   9.667  0.0344  0.0336  0.1746
  272loPI   GL2 4342   3.928  10.554   9.563 -0.2009 -0.3755 -0.1005
  272loPI   C1A 4343   3.672  11.025   9.331  0.3085  0.1337  0.2634
  272loPI   C2A 4344   3.604  11.059   8.946 -0.2308 -0.0654  0.1265
  272loPI   C3A 4345   3.785  11.028   8.602 -0.1408  0.1767 -0.1848
  272loPI   C4A 4346   3.838  10.942   8.253  0.0755  0.1452 -0.0542
  272loPI   C5A 4347   3.818  10.563   8.108  0.0218  0.3029  0.0003
  272loPI   C6A 4348   3.781  10.188   7.839 -0.2459  0.3067 -0.3562
  272loPI   C1B 4349   3.802  10.490   9.108 -0.3166 -0.0466 -0.3836
  272loPI   C2B 4350   3.759  10.523   8.625 -0.3023  0.0773 -0.1583
  272loPI   C3B 4351   3.436  10.296   8.381  0.2638 -0.1088  0.2523
  272loPI   C4B 4352   3.229  10.061   8.140  0.0926 -0.0826 -0.1742
  273loPI    C1 4353   4.808   9.184  10.445 -0.2738 -0.1814  0.0974
  273loPI    C2 4354   4.955   8.859  10.626  0.2746 -0.0021 -0.0084
  273loPI    C3 4355   4.876   9.188  10.839 -0.1246 -0.1436  0.0716
  273loPI   PO4 4356   4.963   9.220  10.132 -0.0907  0.2449 -0.0479
  273loPI   GL1 4357   4.861   9.189   9.704 -0.0135 -0.1086 -0.0360
  273loPI   GL2 4358   5.119   9.386   9.619  0.2084  0.1124  0.3429
  273loPI   C1A 4359   4.592   9.130   9.285 -0.0672  0.1410 -0.0137
  273loPI   C2A 4360   4.506   9.096   8.829 -0.2057  0.1792 -0.2127
  273loPI   C3A 4361   4.501   9.187   8.402  0.1498  0.1094 -0.0253
  273loPI   C4A 4362   4.313   9.219   8.031 -0.0093 -0.1291 -0.0401
  273loPI   C5A 4363   4.671   9.138   7.769  0.1875 -0.3742  0.2222
  273loPI   C6A 4364   5.012   9.117   8.079  0.1415  0.0164 -0.0082
  273loPI   C1B 4365   5.088   9.371   9.140 -0.2109 -0.4585 -0.3944
  273loPI   C2B 4366   4.815   9.458   8.771 -0.2118  0.0076 -0.1509
  273loPI   C3B 4367   4.824   9.546   8.357  0.3515  0.3767 -0.1698
  273loPI   C4B 4368   4.899   9.596   7.790  0.3371  0.1414 -0.0424
  274loPI    C1 4369  11.154  17.271  10.620  0.0660 -0.0447  0.1622
  274loPI    C2 4370  11.472  17.109  10.800  0.1221  0.0396  0.1397
  274loPI    C3 4371  11.109  17.071  10.963  0.1296 -0.1378  0.1169
  274loPI   PO4 4372  11.243  17.252  10.332 -0.0615 -0.2259  0.1300
  274loPI   GL1 4373  11.435  16.980   9.982 -0.0448  0.0261 -0.0156
  274loPI   GL2 4374  11.172  16.904  10.025 -0.3643 -0.1925  0.0722
  274loPI   C1A 4375  11.466  17.249   9.504  0.1655  0.3206 -0.0422
  274loPI   C2A 4376  11.451  17.191   8.988  0.2097 -0.0441  0.0291
  274loPI   C3A 4377  11.543  17.242   8.535  0.7610 -0.1673 -0.0644
  274loPI   C4A 4378  11.913  17.349   8.287 -0.2241 -0.2491 -0.1677
  274loPI   C5A 4379  12.339  17.644   8.227  0.0949  0.0590 -0.1671
  274loPI   C6A 4380  12.662  17.854   8.018 -0.3530  0.0971 -0.1505
  274loPI   C1B 4381  11.020  16.924   9.622 -0.1098  0.0116  0.0774
  274loPI   C2B 4382  11.077  16.925   9.147 -0.2463  0.1966 -0.0123
  274loPI   C3B 4383  11.242  16.740   8.736 -0.3884 -0.0211 -0.0832
  274loPI   C4B 4384  11.245  16.702   8.283 -0.0105  0.0515  0.0892
  275loPI    C1 4385  15.502  10.889  10.285  0.2370  0.0243 -0.1246
  275loPI    C2 4386  15.505  10.890  10.685  0.2565  0.1726 -0.1242
  275loPI    C3 4387  15.265  11.141  10.486  0.1915  0.0474 -0.2061
  275loPI   PO4 4388  15.634  10.690  10.236 -0.1437  0.1038  0.0669
  275loPI   GL1 4389  15.740  10.508   9.812 -0.1188 -0.3806 -0.3695
  275loPI   GL2 4390  15.673  10.593   9.683  0.0119 -0.4292  0.1982
  275loPI   C1A 4391  16.129  10.554   9.503  0.1688  0.0418 -0.0160
  275loPI   C2A 4392  16.183  10.530   9.017  0.0038 -0.1210  0.0981
  275loPI   C3A 4393  16.201  10.622   8.528 -0.0703 -0.0595  0.1197
  275loPI   C4A 4394  16.395  10.652   8.160 -0.0782  0.1227 -0.4176
  275loPI   C5A 4395  16.505  10.496   7.750  0.1863 -0.1756  0.0548
  275loPI   C6A 4396  16.325  10.099   7.611  0.0581  0.3496 -0.0361
  275loPI   C1B 4397  15.660  10.544   9.220  0.0323 -0.1253 -0.2745
  275loPI   C2B 4398  15.717  10.540   8.756  0.1287 -0.1986  0.0549
  275loPI   C3B 4399  15.726  10.623   8.308 -0.0638 -0.1114  0.0130
  275loPI   C4B 4400  15.813  11.003   8.028  0.3483 -0.1842  0.1319
  276loPI    C1 4401  17.144   2.713  10.355 -0.0899  0.0183 -0.1387
  276loPI    C2 4402  17.108   2.356  10.533 -0.1866 -0.0693 -0.3317
  276loPI    C3 4403  17.149   2.687  10.755  0.0331 -0.2129 -0.1537
  276loPI   PO4 4404  17.120   2.583  10.101 -0.0212  0.0865 -0.0359
  276loPI   GL1 4405  17.054   2.390   9.729  0.0681 -0.0368 -0.0393
  276loPI   GL2 4406  16.702   2.300   9.734  0.1768  0.0845 -0.2041
  276loPI   C1A 4407  17.141   2.541   9.337  0.1249 -0.0399  0.0318
  276loPI   C2A 4408  17.050   2.427   8.940 -0.2614 -0.0278  0.3279
  276loPI   C3A 4409  16.969   2.259   8.573  0.1633  0.1255  0.1290
  276loPI   C4A 4410  17.274   2.160   8.195  0.0921  0.0637 -0.1503
  276loPI   C5A 4411  17.618   2.337   8.051 -0.0798 -0.0044 -0.1307
  276loPI   C6A 4412  17.919   2.709   8.124 -0.0556 -0.1640 -0.1740
  276loPI   C1B 4413  16.806   1.973   9.437 -0.3185 -0.1370  0.4290
  276loPI   C2B 4414  16.787   2.041   9.058 -0.2046  0.3206  0.1969
  276loPI   C3B 4415  16.789   1.782   8.716  0.1901 -0.0319  0.1717
  276loPI   C4B 4416  16.785   1.917   8.226  0.0154 -0.0707 -0.3564
  277loPI    C1 4417  15.623   7.167  10.455  0.0567 -0.2200 -0.0583
  277loPI    C2 4418  15.884   6.868  10.503  0.1927 -0.1119 -0.1175
  277loPI    C3 4419  15.548   6.877  10.720  0.2841 -0.2007  0.0301
  277loPI   PO4 4420  15.667   7.176  10.147  0.0942 -0.1104  0.1330
  277loPI   GL1 4421  15.586   6.988   9.680  0.0270  0.3783 -0.2701
  277loPI   GL2 4422  15.846   6.867   9.702 -0.0619  0.0862 -0.1166
  277loPI   C1A 4423  15.405   7.158   9.375  0.2650 -0.2414  0.4104
  277loPI   C2A 4424  15.483   7.169   8.883 -0.0957  0.1056 -0.1787
  277loPI   C3A 4425  15.530   7.220   8.507  0.2703 -0.2544  0.1717
  277loPI   C4A 4426  15.549   7.425   8.125  0.0323 -0.1968  0.3676
  277loPI   C5A 4427  15.428   7.825   7.992  0.3074 -0.0498 -0.2657
  277loPI   C6A 4428  15.639   8.234   7.817  0.0286 -0.1338 -0.0388
  277loPI   C1B 4429  15.978   7.096   9.306 -0.0003  0.1733  0.1415
  277loPI   C2B 4430  15.976   7.084   8.906  0.3228 -0.2153  0.2502
  277loPI   C3B 4431  15.915   6.842   8.552 -0.0033  0.0468 -0.0582
  277loPI   C4B 4432  15.783   6.509   8.401  0.0297  0.1666  0.1509
  278loPI    C1 4433   7.553   6.187  11.025 -0.1730 -0.0842  0.1049
  278loPI    C2 4434   7.725   6.446  11.276  0.1491 -0.0030 -0.1920
  278loPI    C3 4435   7.942   6.152  11.111 -0.0847 -0.1236 -0.2889
  278loPI   PO4 4436   7.466   6.264  10.861  0.2343  0.6843  0.1765
  278loPI   GL1 4437   7.233   6.072  10.476  0.4825  0.1819  0.1986
  278loPI   GL2 4438   7.308   6.294  10.245  0.2676  0.0613  0.1101
  278loPI   C1A 4439   7.017   5.949  10.005  0.0453 -0.0261 -0.3468
  278loPI   C2A 4440   6.995   6.079   9.529 -0.0479 -0.4287 -0.4539
  278loPI   C3A 4441   7.451   6.175   9.295 -0.1809  0.3516 -0.2487
  278loPI   C4A 4442   7.430   6.230   8.832  0.1571  0.0605  0.0739
  278loPI   C5A 4443   7.560   6.078   8.455  0.2026 -0.2656  0.1244
  278loPI   C6A 4444   7.910   5.823   8.263  0.1887  0.0713 -0.2767
  278loPI   C1B 4445   7.222   6.414   9.824 -0.2330  0.1614  0.1318
  278loPI   C2B 4446   7.160   6.646   9.670  0.3926 -0.2722 -0.0684
  278loPI   C3B 4447   7.218   6.620   9.234 -0.0395  0.0137  0.0901
  278loPI   C4B 4448   7.074   6.676   8.849  0.0878  0.0155  0.0979
  279loPI    C1 4449   6.874  13.146  10.147 -0.0218 -0.2665  0.0522
  279loPI    C2 4450   6.769  13.129  10.533 -0.0708  0.1329  0.0607
  279loPI    C3 4451   7.156  13.129  10.430 -0.0589 -0.3236  0.0860
  279loPI   PO4 4452   6.760  13.307   9.984 -0.0080 -0.1239  0.1372
  279loPI   GL1 4453   6.555  13.549   9.598  0.0520  0.2365  0.3360
  279loPI   GL2 4454   6.749  13.656   9.311 -0.2060  0.1509 -0.2880
  279loPI   C1A 4455   6.517  13.251   9.214  0.1728  0.0941 -0.1227
  279loPI   C2A 4456   6.373  13.158   8.809 -0.1145  0.3560 -0.0964
  279loPI   C3A 4457   6.331  12.988   8.417  0.0746  0.0987  0.0696
  279loPI   C4A 4458   6.366  12.900   8.034  0.3538  0.1442  0.0631
  279loPI   C5A 4459   6.213  13.016   7.709 -0.2985  0.1876  0.3789
  279loPI   C6A 4460   6.050  12.911   7.260  0.1073  0.1226  0.0465
  279loPI   C1B 4461   6.625  13.639   8.919  0.5376  0.1250  0.1282
  279loPI   C2B 4462   6.457  13.511   8.546  0.0237 -0.1516 -0.0526
  279loPI   C3B 4463   6.419  13.401   8.089 -0.2521 -0.1462  0.1710
  279loPI   C4B 4464   6.477  13.517   7.604  0.0018  0.0621  0.0546
  280loPI    C1 4465   9.873  10.009  10.504 -0.0071  0.0884  0.2260
  280loPI    C2 4466   9.735   9.649  10.401  0.1265  0.0521  0.1717
  280loPI    C3 4467   9.789   9.738  10.787  0.1274  0.0016  0.1835
  280loPI   PO4 4468  10.070  10.061  10.305  0.1222  0.0998 -0.4111
  280loPI   GL1 4469   9.927   9.748   9.944 -0.2885  0.1434  0.0500
  280loPI   GL2 4470   9.742   9.414   9.882 -0.1666 -0.0543  0.1407
  280loPI   C1A 4471  10.100   9.713   9.599  0.1630  0.1543 -0.2174
  280loPI   C2A 4472  10.008   9.646   9.179  0.1768  0.0403  0.0024
  280loPI   C3A 4473   9.946   9.685   8.714 -0.2885  0.1074 -0.1801
  280loPI   C4A 4474  10.031   9.641   8.214 -0.0917 -0.1188 -0.0368
  280loPI   C5A 4475   9.957   9.864   7.893  0.1220  0.2674  0.2495
  280loPI   C6A 4476  10.260   9.904   7.541 -0.0860 -0.1049  0.2399
  280loPI   C1B 4477   9.892   9.287   9.438  0.0016 -0.0184  0.0426
  280loPI   C2B 4478   9.841   9.243   8.977 -0.1454  0.2558 -0.0100
  280loPI   C3B 4479   9.736   9.182   8.490  0.0553  0.3098  0.1798
  280loPI   C4B 4480   9.882   9.082   8.097  0.1537  0.0131 -0.2634
  281loPI    C1 4481  14.876  16.234  10.719  0.1463  0.0247 -0.2268
  281loPI    C2 4482  14.796  16.481  11.023 -0.1911 -0.2533 -0.0839
  281loPI    C3 4483  15.081  16.203  11.062  0.1041  0.0266 -0.2015
  281loPI   PO4 4484  14.894  16.427  10.516 -0.2070 -0.1402  0.0950
  281loPI   GL1 4485  14.677  16.419  10.264  0.1355 -0.1772  0.0955
  281loPI   GL2 4486  14.528  16.173  10.131  0.1911  0.0835  0.0506
  281loPI   C1A 4487  14.582  16.719   9.826  0.5130  0.3045 -0.2948
  281loPI   C2A 4488  14.426  16.716   9.479 -0.3172 -0.1353 -0.0177
  281loPI   C3A 4489  14.374  16.845   9.154  0.0801  0.2856  0.0039
  281loPI   C4A 4490  14.071  17.110   8.967  0.0035 -0.1091 -0.1695
  281loPI   C5A 4491  14.180  17.272   8.541  0.2565 -0.1693  0.0526
  281loPI   C6A 4492  13.812  17.312   8.212 -0.1874  0.1284  0.1672
  281loPI   C1B 4493  14.454  16.226   9.697 -0.1682 -0.0236  0.0245
  281loPI   C2B 4494  14.242  16.287   9.349  0.0119 -0.2139 -0.1555
  281loPI   C3B 4495  14.206  16.337   8.943 -0.2601  0.0434  0.2974
  281loPI   C4B 4496  14.276  16.629   8.568 -0.2313  0.0656  0.0893
  282loPI    C1 4497   1.481   7.118  10.833 -0.2278 -0.1601 -0.0412
  282loPI    C2 4498   1.579   6.963  11.188  0.0792  0.0742 -0.0201
  282loPI    C3 4499   1.851   6.979  10.895 -0.1432 -0.0254 -0.2348
  282loPI   PO4 4500   1.323   6.971  10.684  0.0445 -0.1248  0.1116
  282loPI   GL1 4501   1.418   6.986  10.260  0.1988  0.1525  0.0275
  282loPI   GL2 4502   1.715   6.823  10.364  0.3178 -0.1743  0.1225
  282loPI   C1A 4503   1.367   7.169   9.861 -0.0477 -0.3863 -0.0677
  282loPI   C2A 4504   1.416   7.289   9.359  0.3765 -0.3480  0.2897
  282loPI   C3A 4505   1.456   7.345   8.862  0.6342  0.2557 -0.1185
  282loPI   C4A 4506   1.223   7.415   8.495  0.2065 -0.2250 -0.0803
  282loPI   C5A 4507   0.791   7.421   8.309  0.0619 -0.2008 -0.1315
  282loPI   C6A 4508   0.309   7.445   8.157 -0.0129  0.3008 -0.1204
  282loPI   C1B 4509   1.776   6.873   9.891 -0.0256  0.1968  0.0786
  282loPI   C2B 4510   1.770   6.954   9.541  0.0978 -0.3716 -0.0412
  282loPI   C3B 4511   1.737   6.994   9.027 -0.0883 -0.1453  0.3076
  282loPI   C4B 4512   1.718   6.937   8.604 -0.1980 -0.1428 -0.0754
  283loPI    C1 4513   2.913   4.792  10.701  0.0977 -0.0857  0.0543
  283loPI    C2 4514   2.766   4.971  11.026 -0.0560 -0.2426  0.0724
  283loPI    C3 4515   2.897   4.594  11.048  0.1170 -0.1878 -0.0027
  283loPI   PO4 4516   3.069   4.934  10.531  0.0223 -0.0774 -0.1715
  283loPI   GL1 4517   3.107   4.749  10.070 -0.1750 -0.1238  0.0617
  283loPI   GL2 4518   3.428   4.952   9.983  0.1154 -0.0922 -0.2992
  283loPI   C1A 4519   3.014   4.895   9.706 -0.2559 -0.0918 -0.3162
  283loPI   C2A 4520   3.125   4.920   9.361 -0.3772  0.1525 -0.1445
  283loPI   C3A 4521   3.093   4.970   8.973 -0.4592 -0.1527 -0.0911
  283loPI   C4A 4522   3.248   5.074   8.457  0.0842 -0.0898  0.2759
  283loPI   C5A 4523   3.427   4.842   8.015  0.1106 -0.2804  0.0513
  283loPI   C6A 4524   3.576   4.522   7.828  0.1382 -0.0371 -0.2138
  283loPI   C1B 4525   3.567   4.908   9.613  0.0436  0.0706  0.1170
  283loPI   C2B 4526   3.655   4.948   9.215  0.0275  0.1278 -0.0447
  283loPI   C3B 4527   3.641   4.779   8.825 -0.3012  0.3606  0.0337
  283loPI   C4B 4528   3.342   4.604   8.548  0.4238  0.0519  0.4648
  284loPI    C1 4529  17.321   0.115  10.425  0.2320  0.2115 -0.0061
  284loPI    C2 4530  16.971  -0.035  10.546  0.3675 -0.0250  0.0993
  284loPI    C3 4531  17.100   0.314  10.693  0.2266  0.0103  0.1408
  284loPI   PO4 4532  17.312   0.185  10.184  0.0031  0.1485  0.0396
  284loPI   GL1 4533  17.244   0.351   9.873 -0.0063  0.1269  0.2220
  284loPI   GL2 4534  17.523   0.495   9.795 -0.0433 -0.0077  0.1198
  284loPI   C1A 4535  17.043   0.405   9.471  0.1100 -0.1801 -0.0297
  284loPI   C2A 4536  16.803   0.367   9.110 -0.1479  0.0071  0.1104
  284loPI   C3A 4537  16.835   0.210   8.712  0.1160 -0.3233 -0.1993
  284loPI   C4A 4538  16.951   0.241   8.350  0.1033 -0.1021 -0.2961
  284loPI   C5A 4539  16.948   0.250   7.888 -0.1031 -0.0276  0.0123
  284loPI   C6A 4540  16.833   0.429   7.493 -0.0790  0.1304  0.2022
  284loPI   C1B 4541  17.492   0.346   9.360  0.1440 -0.0525 -0.0621
  284loPI   C2B 4542  17.309   0.248   8.950  0.2801 -0.1296  0.0720
  284loPI   C3B 4543  17.428   0.403   8.577 -0.2390 -0.1187 -0.0302
  284loPI   C4B 4544  17.422   0.495   8.184  0.2105  0.0577 -0.0514
  285loPI    C1 4545   4.544   8.587  10.582 -0.0458  0.0399  0.0381
  285loPI    C2 4546   4.460   8.332  10.878 -0.1037  0.0509  0.0315
  285loPI    C3 4547   4.553   8.712  10.961  0.0446  0.0122  0.0452
  285loPI   PO4 4548   4.647   8.297  10.405 -0.1359  0.2302 -0.2443
  285loPI   GL1 4549   4.791   8.228   9.995  0.3547 -0.1528  0.4150
  285loPI   GL2 4550   5.008   8.378   9.797  0.0289  0.0060 -0.0512
  285loPI   C1A 4551   4.595   8.069   9.647  0.0132  0.2520  0.0567
  285loPI   C2A 4552   4.459   8.091   9.253  0.0389  0.1156  0.0521
  285loPI   C3A 4553   4.351   8.215   8.852  0.1353  0.0831 -0.1422
  285loPI   C4A 4554   4.390   8.257   8.372  0.0553 -0.0863 -0.0645
  285loPI   C5A 4555   4.261   8.283   7.940 -0.1108  0.0907  0.0889
  285loPI   C6A 4556   4.310   8.356   7.460  0.2048  0.0929  0.2369
  285loPI   C1B 4557   4.942   8.301   9.365  0.1051 -0.3231  0.2327
  285loPI   C2B 4558   4.891   8.194   8.909 -0.0036 -0.0067  0.2587
  285loPI   C3B 4559   4.905   8.268   8.479 -0.1134 -0.1553  0.1473
  285loPI   C4B 4560   5.015   8.083   8.086  0.4053  0.0708  0.1507
  286loPI    C1 4561   4.177   3.838  10.856  0.1521  0.0460 -0.3434
  286loPI    C2 4562   4.288   3.454  10.837 -0.1248 -0.0619  0.0793
  286loPI    C3 4563   4.470   3.704  11.092 -0.1664  0.0073  0.0417
  286loPI   PO4 4564   4.248   3.996  10.582  0.0109 -0.5929 -0.1731
  286loPI   GL1 4565   4.382   4.070  10.299 -0.1774 -0.0841 -0.0273
  286loPI   GL2 4566   4.081   4.079  10.095 -0.2759 -0.1483  0.0502
  286loPI   C1A 4567   4.443   3.864   9.910  0.2607 -0.0295 -0.1166
  286loPI   C2A 4568   4.537   3.894   9.487  0.1184 -0.1225  0.2489
  286loPI   C3A 4569   4.475   3.702   9.007 -0.2295 -0.0667  0.0397
  286loPI   C4A 4570   4.485   3.588   8.556 -0.0282  0.2111  0.1324
  286loPI   C5A 4571   4.524   3.447   8.133 -0.2493 -0.0286 -0.1475
  286loPI   C6A 4572   4.872   3.251   7.950 -0.0436  0.0097  0.1007
  286loPI   C1B 4573   4.009   3.995   9.646 -0.0180  0.4651  0.1654
  286loPI   C2B 4574   4.064   4.021   9.172 -0.1342  0.1039 -0.1339
  286loPI   C3B 4575   4.272   4.095   8.860  0.0547  0.3077  0.3090
  286loPI   C4B 4576   4.327   4.077   8.374 -0.1212 -0.0852  0.1736
  287loPI    C1 4577   1.367  10.237  10.797  0.0899  0.0739 -0.0959
  287loPI    C2 4578   1.484  10.129  11.164 -0.1158 -0.0971 -0.0787
  287loPI    C3 4579   1.653  10.444  10.984  0.0478 -0.0660  0.1265
  287loPI   PO4 4580   1.348  10.013  10.646  0.1657 -0.1427  0.3168
  287loPI   GL1 4581   1.215   9.845  10.198  0.6101 -0.2192 -0.0244
  287loPI   GL2 4582   1.023  10.016  10.131  0.0967 -0.2177  0.3704
  287loPI   C1A 4583   1.523   9.823   9.892  0.1336  0.0217 -0.2580
  287loPI   C2A 4584   1.613   9.766   9.448  0.1137  0.0978 -0.2891
  287loPI   C3A 4585   1.468   9.798   8.975 -0.1106  0.1225  0.1922
  287loPI   C4A 4586   1.616   9.711   8.488  0.0068 -0.1557  0.2104
  287loPI   C5A 4587   1.933   9.471   8.399 -0.3117 -0.0901  0.1906
  287loPI   C6A 4588   2.070   9.134   8.047  0.0897 -0.0166  0.0287
  287loPI   C1B 4589   1.122  10.082   9.749  0.0848 -0.2716 -0.0165
  287loPI   C2B 4590   1.145  10.066   9.346  0.1017 -0.1225  0.0919
  287loPI   C3B 4591   1.107  10.170   8.937  0.0199  0.0875  0.1012
  287loPI   C4B 4592   1.044  10.338   8.440 -0.2250  0.0827 -0.2525
  288loPI    C1 4593   9.342   4.767  10.945  0.0110  0.0499 -0.0347
  288loPI    C2 4594   9.274   4.906  11.313 -0.0557 -0.2099  0.0537
  288loPI    C3 4595   9.583   4.661  11.246  0.0938  0.0190 -0.1113
  288loPI   PO4 4596   9.382   4.965  10.763 -0.4371  0.2976  0.0150
  288loPI   GL1 4597   9.611   4.989  10.392  0.0391 -0.0207 -0.2934
  288loPI   GL2 4598   9.419   4.995  10.239  0.3130 -0.0116  0.2013
  288loPI   C1A 4599   9.871   5.141  10.082  0.0993 -0.0771  0.2174
  288loPI   C2A 4600   9.862   5.094   9.722  0.1209 -0.1909 -0.0828
  288loPI   C3A 4601   9.888   5.071   9.273 -0.1005 -0.0785 -0.0034
  288loPI   C4A 4602   9.977   5.201   8.951  0.1499  0.0994  0.0330
  288loPI   C5A 4603   9.888   5.208   8.512 -0.0338  0.0570  0.1649
  288loPI   C6A 4604   9.803   4.916   8.180 -0.4315 -0.0369 -0.1452
  288loPI   C1B 4605   9.267   5.049   9.880  0.2275 -0.2038  0.3031
  288loPI   C2B 4606   9.376   5.042   9.410  0.1763  0.0079 -0.0025
  288loPI   C3B 4607   9.521   5.162   8.892  0.1723  0.3375 -0.0641
  288loPI   C4B 4608   9.323   5.202   8.475 -0.3494  0.0323  0.0053
  289loPI    C1 4609   4.594   3.280  10.448  0.1250 -0.0020 -0.2180
  289loPI    C2 4610   4.800   3.267  10.791 -0.1590  0.0607 -0.0422
  289loPI    C3 4611   4.779   3.608  10.583 -0.0202  0.0331 -0.1030
  289loPI   PO4 4612   4.630   3.077  10.318 -0.1143  0.3462 -0.2154
  289loPI   GL1 4613   4.527   3.062   9.878 -0.1180  0.3829  0.4427
  289loPI   GL2 4614   4.491   3.377   9.910  0.2156  0.1367 -0.0819
  289loPI   C1A 4615   4.524   2.818   9.474  0.1903 -0.2237 -0.1610
  289loPI   C2A 4616   4.436   2.685   9.093  0.0840  0.2308  0.2938
  289loPI   C3A 4617   4.430   2.616   8.763  0.3255  0.0062  0.0987
  289loPI   C4A 4618   4.298   2.679   8.361 -0.2199  0.2398 -0.0191
  289loPI   C5A 4619   4.296   2.941   7.982 -0.3753 -0.4000 -0.2709
  289loPI   C6A 4620   3.939   2.927   7.683  0.0224  0.3284 -0.1847
  289loPI   C1B 4621   4.533   3.396   9.445 -0.0350 -0.2495  0.3572
  289loPI   C2B 4622   4.499   3.192   9.091  0.1617  0.1091 -0.2526
  289loPI   C3B 4623   4.595   3.113   8.654 -0.1055 -0.3531 -0.0468
  289loPI   C4B 4624   4.746   2.859   8.312 -0.0911 -0.3168 -0.0039
  290loPI    C1 4625   4.127   1.211  10.356  0.0485  0.0449 -0.1258
  290loPI    C2 4626   4.002   1.210  10.736 -0.0124  0.0308 -0.1458
  290loPI    C3 4627   4.203   1.524  10.593  0.2222 -0.0655 -0.0334
  290loPI   PO4 4628   3.908   1.161  10.136 -0.0564 -0.0143  0.2478
  290loPI   GL1 4629   3.645   1.117   9.736  0.1014 -0.1854 -0.1879
  290loPI   GL2 4630   3.931   1.119   9.554  0.0784 -0.1965  0.1094
  290loPI   C1A 4631   3.442   1.075   9.326  0.4119 -0.0762  0.1774
  290loPI   C2A 4632   3.410   1.231   8.937  0.0563  0.2287  0.0776
  290loPI   C3A 4633   3.466   1.262   8.485 -0.4291  0.0270  0.2832
  290loPI   C4A 4634   3.574   1.509   8.070  0.0483 -0.2376  0.0508
  290loPI   C5A 4635   3.737   1.729   7.748 -0.3062  0.0316 -0.0492
  290loPI   C6A 4636   3.816   2.033   7.468 -0.3757 -0.0557 -0.4032
  290loPI   C1B 4637   3.960   1.447   9.295 -0.1281  0.0074  0.0373
  290loPI   C2B 4638   4.047   1.431   8.841  0.3716  0.1868 -0.0954
  290loPI   C3B 4639   3.953   1.398   8.426  0.0985 -0.0591  0.0006
  290loPI   C4B 4640   4.073   1.322   7.961 -0.3392 -0.0542  0.2065
  291loPI    C1 4641  12.331   6.751  10.436 -0.0056  0.1953 -0.0684
  291loPI    C2 4642  12.557   6.996  10.657  0.0370 -0.0868  0.2080
  291loPI    C3 4643  12.715   6.661  10.506 -0.0432  0.0093 -0.0953
  291loPI   PO4 4644  12.306   6.819  10.139 -0.1246 -0.2904  0.1145
  291loPI   GL1 4645  12.458   6.862   9.779  0.2073  0.1025 -0.0617
  291loPI   GL2 4646  12.572   6.598   9.595 -0.0204 -0.0877  0.0640
  291loPI   C1A 4647  12.198   6.926   9.407  0.0670 -0.0287  0.4119
  291loPI   C2A 4648  12.122   6.866   8.993  0.0971 -0.0220  0.1200
  291loPI   C3A 4649  12.162   6.873   8.596  0.2925  0.1353  0.2263
  291loPI   C4A 4650  12.022   7.028   8.147 -0.0262  0.1150  0.0967
  291loPI   C5A 4651  11.961   7.562   8.079  0.3687 -0.3106 -0.1099
  291loPI   C6A 4652  11.722   7.709   7.696 -0.1301 -0.1290  0.1264
  291loPI   C1B 4653  12.590   6.654   9.201 -0.0167 -0.1467 -0.1630
  291loPI   C2B 4654  12.551   6.595   8.835  0.0432  0.0337  0.0679
  291loPI   C3B 4655  12.448   6.467   8.509 -0.0763  0.2305  0.3807
  291loPI   C4B 4656  12.289   6.525   8.056  0.0968  0.1547 -0.1305
  292loPI    C1 4657  11.877   2.479  10.408  0.0715 -0.0627  0.0211
  292loPI    C2 4658  11.589   2.714  10.556  0.0331  0.0511 -0.2288
  292loPI    C3 4659  11.686   2.374  10.743 -0.0288  0.1799  0.0425
  292loPI   PO4 4660  11.776   2.424  10.076  0.3825  0.1481 -0.3171
  292loPI   GL1 4661  11.574   2.354   9.740  0.1596 -0.0583  0.2370
  292loPI   GL2 4662  11.326   2.425   9.884  0.0549 -0.0117  0.0339
  292loPI   C1A 4663  11.306   2.247   9.396 -0.1701 -0.0423  0.2043
  292loPI   C2A 4664  11.393   2.233   8.930 -0.1252 -0.0326  0.0245
  292loPI   C3A 4665  11.414   2.145   8.491 -0.0449  0.1103  0.2402
  292loPI   C4A 4666  11.398   2.350   8.085 -0.0306 -0.0335  0.1868
  292loPI   C5A 4667  11.266   2.765   7.988  0.1539  0.0146  0.0263
  292loPI   C6A 4668  11.441   3.127   8.057  0.2271 -0.0402  0.0064
  292loPI   C1B 4669  11.187   2.666   9.615  0.0291 -0.3173  0.2645
  292loPI   C2B 4670  11.118   2.763   9.210  0.0669 -0.1033 -0.1693
  292loPI   C3B 4671  11.117   2.743   8.835  0.3473  0.0324  0.1550
  292loPI   C4B 4672  11.146   2.777   8.452 -0.0141 -0.0713 -0.1410
  293loPI    C1 4673  15.979   6.021   9.860  0.0212  0.0748  0.3983
  293loPI    C2 4674  15.874   6.377   9.711 -0.1350 -0.0778  0.1347
  293loPI    C3 4675  15.694   6.045   9.580  0.4218 -0.3150 -0.0621
  293loPI   PO4 4676  16.170   5.937   9.803 -0.3256 -0.0071  0.2245
  293loPI   GL1 4677  16.316   5.864   9.379 -0.1478  0.1634 -0.2705
  293loPI   GL2 4678  16.233   6.198   9.173  0.3519  0.0458  0.1553
  293loPI   C1A 4679  16.462   5.848   8.924  0.0575 -0.1095  0.0381
  293loPI   C2A 4680  16.555   5.736   8.620  0.0517 -0.0747 -0.0929
  293loPI   C3A 4681  16.567   5.650   8.266 -0.3364 -0.3594 -0.2069
  293loPI   C4A 4682  16.313   5.920   7.959 -0.0590 -0.1920 -0.2389
  293loPI   C5A 4683  16.004   6.238   8.018 -0.0635 -0.2016 -0.0063
  293loPI   C6A 4684  15.552   6.333   7.978 -0.0063  0.1387 -0.0220
  293loPI   C1B 4685  15.873   5.880   9.141  0.2021 -0.0178 -0.0069
  293loPI   C2B 4686  15.599   5.807   8.753  0.1099 -0.1634 -0.1257
  293loPI   C3B 4687  15.402   5.563   8.354 -0.2023 -0.0195 -0.0980
  293loPI   C4B 4688  15.439   5.384   7.791  0.0113 -0.2242  0.2112
  294loPI    C1 4689  10.120  13.017   9.754 -0.0576 -0.0597 -0.0306
  294loPI    C2 4690  10.305  12.822  10.051  0.1007 -0.0349 -0.1118
  294loPI    C3 4691  10.515  12.954   9.737 -0.0377  0.0920 -0.1524
  294loPI   PO4 4692   9.968  13.174   9.866  0.3382 -0.1028  0.1942
  294loPI   GL1 4693   9.795  13.494   9.698 -0.2088  0.1180 -0.1130
  294loPI   GL2 4694   9.693  13.643   9.531  0.1999 -0.0470 -0.2041
  294loPI   C1A 4695  10.077  13.462   9.267 -0.3140  0.1440 -0.2312
  294loPI   C2A 4696  10.054  13.499   8.861 -0.0550 -0.0804 -0.1017
  294loPI   C3A 4697  10.097  13.784   8.437  0.2394 -0.1066 -0.0802
  294loPI   C4A 4698  10.202  13.776   8.041 -0.0157 -0.0005  0.1822
  294loPI   C5A 4699  10.641  13.849   7.911  0.2031  0.1770 -0.1321
  294loPI   C6A 4700  11.111  13.806   7.883 -0.0086 -0.2215 -0.2923
  294loPI   C1B 4701   9.623  13.597   9.143  0.0438 -0.1941  0.1634
  294loPI   C2B 4702   9.581  13.617   8.683  0.0129  0.3018  0.1412
  294loPI   C3B 4703   9.623  13.537   8.239  0.4097  0.2968 -0.0355
  294loPI   C4B 4704   9.835  13.398   7.835  0.0354  0.0601  0.0379
  295loPI    C1 4705   8.408  14.791  10.036  0.1127 -0.3140  0.0272
  295loPI    C2 4706   8.202  15.039  10.272  0.1724 -0.0332 -0.2110
  295loPI    C3 4707   8.489  14.809  10.427  0.1033  0.0312  0.0164
  295loPI   PO4 4708   8.475  14.903   9.784 -0.0570 -0.3856 -0.0296
  295loPI   GL1 4709   8.460  14.706   9.349  0.0289 -0.1027 -0.0972
  295loPI   GL2 4710   8.161  14.782   9.271  0.1533 -0.1358  0.2302
  295loPI   C1A 4711   8.684  14.638   8.946 -0.0422  0.1035 -0.0367
  295loPI   C2A 4712   8.495  14.555   8.531 -0.2631 -0.0741 -0.3959
  295loPI   C3A 4713   8.636  14.783   8.094 -0.1689 -0.0624  0.1570
  295loPI   C4A 4714   8.977  14.723   7.825  0.0363  0.0196  0.4035
  295loPI   C5A 4715   9.428  14.817   7.707 -0.0885  0.3965  0.0573
  295loPI   C6A 4716   9.820  14.951   7.888  0.0281  0.0253  0.2231
  295loPI   C1B 4717   8.072  14.704   8.848  0.0152  0.1736 -0.0573
  295loPI   C2B 4718   8.051  14.655   8.363  0.1621 -0.0661 -0.0887
  295loPI   C3B 4719   8.154  14.789   8.006 -0.0385  0.0674 -0.0804
  295loPI   C4B 4720   8.124  14.848   7.532  0.3169 -0.1622  0.2816
  296loPI    C1 4721   2.078  16.488  10.304  0.1096  0.0042 -0.1149
  296loPI    C2 4722   2.106  16.869  10.421  0.2180 -0.0155 -0.0759
  296loPI    C3 4723   1.891  16.609  10.636  0.1063  0.0338 -0.1275
  296loPI   PO4 4724   2.050  16.547  10.022  0.0587  0.4556  0.1171
  296loPI   GL1 4725   1.943  16.497   9.674  0.0300 -0.0025  0.0916
  296loPI   GL2 4726   2.221  16.637   9.544  0.0771  0.1875 -0.1867
  296loPI   C1A 4727   1.753  16.491   9.299  0.1511 -0.0378  0.2531
  296loPI   C2A 4728   1.520  16.379   8.979  0.4495 -0.0240  0.1564
  296loPI   C3A 4729   1.398  16.457   8.530 -0.2649 -0.1482  0.3738
  296loPI   C4A 4730   1.641  16.222   8.236  0.1644 -0.2653 -0.0029
  296loPI   C5A 4731   1.886  15.987   8.028  0.2821  0.2906  0.0775
  296loPI   C6A 4732   2.165  15.925   7.681 -0.1917 -0.0086 -0.1012
  296loPI   C1B 4733   2.264  16.762   9.116  0.0794 -0.1054  0.3573
  296loPI   C2B 4734   2.375  16.759   8.744 -0.1381 -0.0185 -0.0393
  296loPI   C3B 4735   2.377  16.721   8.314  0.0068 -0.0177  0.1003
  296loPI   C4B 4736   2.443  16.831   7.863  0.1917 -0.0698  0.2673
  297loPI    C1 4737  10.048   3.225  10.892  0.3511  0.3173 -0.1449
  297loPI    C2 4738  10.277   3.422  11.155  0.4759 -0.0426  0.0228
  297loPI    C3 4739  10.320   3.027  11.108 -0.2306 -0.1535  0.1867
  297loPI   PO4 4740  10.178   3.361  10.543 -0.1221 -0.1226 -0.2636
  297loPI   GL1 4741  10.175   3.312  10.191 -0.0605  0.2145 -0.0430
  297loPI   GL2 4742  10.295   3.531  10.044  0.1012 -0.1901 -0.1955
  297loPI   C1A 4743   9.890   3.201   9.892 -0.4384 -0.0878  0.4710
  297loPI   C2A 4744   9.881   3.284   9.510  0.1987  0.0433  0.2395
  297loPI   C3A 4745   9.933   3.252   9.084  0.3421 -0.0134 -0.6022
  297loPI   C4A 4746  10.003   3.260   8.619  0.2359 -0.0951 -0.0032
  297loPI   C5A 4747   9.833   3.353   8.185  0.1378 -0.2777 -0.3150
  297loPI   C6A 4748  10.057   3.348   7.773  0.3090 -0.0729  0.0951
  297loPI   C1B 4749  10.177   3.649   9.680  0.0262  0.1240 -0.2560
  297loPI   C2B 4750  10.191   3.790   9.226  0.1959 -0.2622  0.1048
  297loPI   C3B 4751  10.195   3.739   8.784 -0.2297 -0.1037  0.0203
  297loPI   C4B 4752  10.140   3.700   8.327  0.1536  0.2145 -0.0011
  298loPI    C1 4753  10.052   6.944  10.616 -0.2126 -0.0962  0.0687
  298loPI    C2 4754  10.302   6.782  10.883 -0.1294 -0.0251  0.0344
  298loPI    C3 4755  10.333   7.169  10.789 -0.0393 -0.0907 -0.2132
  298loPI   PO4 4756   9.978   6.750  10.479 -0.3736 -0.0487 -0.1208
  298loPI   GL1 4757   9.897   6.636  10.130  0.2309  0.1624  0.2062
  298loPI   GL2 4758  10.151   6.352  10.125  0.1743  0.2281 -0.1417
  298loPI   C1A 4759   9.699   6.593   9.704 -0.0397 -0.0870  0.4221
  298loPI   C2A 4760   9.758   6.451   9.242 -0.0804 -0.2949  0.0857
  298loPI   C3A 4761   9.771   6.536   8.727 -0.2256  0.0606  0.1166
  298loPI   C4A 4762   9.644   6.637   8.395 -0.3024 -0.1717 -0.1458
  298loPI   C5A 4763   9.621   6.720   8.022  0.2400  0.0716 -0.1300
  298loPI   C6A 4764   9.704   6.600   7.644 -0.1160 -0.2072  0.1927
  298loPI   C1B 4765  10.333   6.469   9.736  0.0228 -0.0021 -0.0090
  298loPI   C2B 4766  10.273   6.473   9.286  0.1297  0.0590 -0.4366
  298loPI   C3B 4767  10.373   6.525   8.834  0.1569 -0.2590 -0.0051
  298loPI   C4B 4768  10.183   6.639   8.403  0.0067  0.0377 -0.2042
  299loPI    C1 4769  13.080   7.413  10.210  0.0984 -0.0408 -0.0303
  299loPI    C2 4770  12.767   7.401  10.459  0.0518 -0.0134 -0.0870
  299loPI    C3 4771  13.122   7.530  10.590  0.0336 -0.0223 -0.0286
  299loPI   PO4 4772  13.054   7.410  10.058  0.1997  0.1397  0.2938
  299loPI   GL1 4773  13.029   7.298   9.650 -0.4594  0.2524  0.0099
  299loPI   GL2 4774  13.361   7.202   9.543 -0.1537 -0.0203  0.2456
  299loPI   C1A 4775  12.632   7.257   9.403 -0.2948 -0.2630  0.1601
  299loPI   C2A 4776  12.576   7.157   9.016 -0.3007  0.0599 -0.1937
  299loPI   C3A 4777  12.461   7.267   8.676  0.3437  0.1331  0.1463
  299loPI   C4A 4778  12.392   7.356   8.308 -0.1193  0.1350  0.2340
  299loPI   C5A 4779  12.423   7.484   7.972 -0.0048 -0.1642  0.0637
  299loPI   C6A 4780  12.469   7.888   7.835  0.2182 -0.1939 -0.0064
  299loPI   C1B 4781  13.508   7.202   9.224  0.0808  0.0198 -0.3437
  299loPI   C2B 4782  13.419   7.155   8.788  0.0904  0.0299 -0.0690
  299loPI   C3B 4783  13.402   7.188   8.371 -0.0935  0.2074  0.0037
  299loPI   C4B 4784  13.600   7.037   8.043 -0.1203  0.2716  0.2108
  300loPI    C1 4785   1.329   9.495  10.960  0.0905  0.1401  0.0112
  300loPI    C2 4786   1.667   9.706  10.998  0.1089  0.0925  0.1183
  300loPI    C3 4787   1.642   9.339  11.154 -0.0427  0.1540  0.2414
  300loPI   PO4 4788   1.199   9.529  10.701 -0.1752  0.1714  0.1252
  300loPI   GL1 4789   1.082   9.414  10.341 -0.2085 -0.0964  0.2180
  300loPI   GL2 4790   0.776   9.572  10.224 -0.0431 -0.2313 -0.3065
  300loPI   C1A 4791   1.260   9.458   9.923  0.0093  0.1185 -0.2936
  300loPI   C2A 4792   1.381   9.351   9.572 -0.0095  0.0319 -0.1689
  300loPI   C3A 4793   1.443   9.333   9.060  0.0853 -0.0030  0.1093
  300loPI   C4A 4794   1.327   9.167   8.642  0.0375  0.3378 -0.1167
  300loPI   C5A 4795   1.421   8.919   8.342 -0.0502  0.0089 -0.1825
  300loPI   C6A 4796   1.315   8.635   8.134  0.3183 -0.0123 -0.0869
  300loPI   C1B 4797   0.776   9.499   9.851  0.1261  0.0607  0.1207
  300loPI   C2B 4798   0.979   9.618   9.513  0.2166 -0.2087 -0.2337
  300loPI   C3B 4799   0.992   9.655   9.141 -0.1330 -0.0839  0.2059
  300loPI   C4B 4800   1.135   9.567   8.659  0.2710 -0.0095 -0.0045
  301loPI    C1 4801   5.683  17.313  10.476  0.2120 -0.0682  0.0946
  301loPI    C2 4802   5.443  17.593  10.631  0.1994  0.0219 -0.0858
  301loPI    C3 4803   5.411  17.213  10.752 -0.0196  0.0368 -0.0924
  301loPI   PO4 4804   5.666  17.353  10.192  0.0176  0.1512  0.0024
  301loPI   GL1 4805   5.373  17.211   9.809  0.1937  0.5184  0.0193
  301loPI   GL2 4806   5.186  16.980   9.781 -0.1341 -0.1420 -0.3817
  301loPI   C1A 4807   5.420  17.266   9.335 -0.0434 -0.2303 -0.1349
  301loPI   C2A 4808   5.529  17.406   9.016 -0.2077 -0.6295 -0.3075
  301loPI   C3A 4809   5.582  17.424   8.679 -0.2505 -0.0119  0.4761
  301loPI   C4A 4810   5.656  17.430   8.289  0.1996 -0.1405 -0.0737
  301loPI   C5A 4811   5.832  17.269   7.985 -0.1864 -0.1952  0.2615
  301loPI   C6A 4812   5.944  17.109   7.622  0.2148  0.0303  0.0436
  301loPI   C1B 4813   4.954  17.010   9.337 -0.2131  0.1642 -0.2754
  301loPI   C2B 4814   5.138  16.905   8.943 -0.2880 -0.3460 -0.1474
  301loPI   C3B 4815   5.244  16.967   8.541  0.0753 -0.1360 -0.1366
  301loPI   C4B 4816   5.370  16.801   8.126 -0.3205  0.1285 -0.1009
  302loPI    C1 4817   6.734   3.478  10.818 -0.1847 -0.1937 -0.0018
  302loPI    C2 4818   6.894   3.448  11.184  0.0736 -0.0064 -0.0971
  302loPI    C3 4819   6.554   3.256  11.099 -0.0747  0.0762  0.2884
  302loPI   PO4 4820   6.702   3.705  10.652  0.1990 -0.0743 -0.1647
  302loPI   GL1 4821   6.702   3.870  10.197 -0.3175  0.0412 -0.1648
  302loPI   GL2 4822   6.950   4.026  10.368 -0.1973  0.2284  0.1063
  302loPI   C1A 4823   6.813   3.872   9.792 -0.1344 -0.1347 -0.1554
  302loPI   C2A 4824   6.798   3.797   9.339 -0.2363 -0.1237  0.0930
  302loPI   C3A 4825   6.888   3.831   8.885  0.0523  0.2266 -0.0036
  302loPI   C4A 4826   7.021   3.731   8.402  0.0033 -0.2756  0.0539
  302loPI   C5A 4827   7.120   3.898   8.029 -0.1587  0.0648  0.0309
  302loPI   C6A 4828   7.125   4.194   7.683 -0.0510  0.0599 -0.0988
  302loPI   C1B 4829   7.094   4.266   9.931 -0.1791 -0.1471  0.3176
  302loPI   C2B 4830   7.261   4.231   9.532 -0.0945  0.1231 -0.1685
  302loPI   C3B 4831   7.141   4.259   9.088  0.0290 -0.0511  0.2769
  302loPI   C4B 4832   7.222   4.158   8.696 -0.0500 -0.3912  0.0377
  303loPI    C1 4833  16.881  14.786  10.529  0.1178 -0.1390 -0.1951
  303loPI    C2 4834  17.190  14.674  10.302  0.3059 -0.1373  0.0557
  303loPI    C3 4835  16.928  14.401  10.432  0.2756 -0.1581 -0.0475
  303loPI   PO4 4836  16.734  15.012  10.395 -0.1607 -0.0794 -0.0352
  303loPI   GL1 4837  16.721  15.091   9.931 -0.0100  0.0884  0.2919
  303loPI   GL2 4838  17.124  15.070  10.046 -0.0694 -0.0671  0.1153
  303loPI   C1A 4839  16.755  15.082   9.471  0.0922  0.3558 -0.0380
  303loPI   C2A 4840  16.842  14.952   9.123  0.3039  0.3264 -0.0472
  303loPI   C3A 4841  16.740  14.838   8.710  0.2350  0.0866 -0.2539
  303loPI   C4A 4842  16.624  14.680   8.344 -0.0874  0.1534 -0.0824
  303loPI   C5A 4843  16.392  14.879   8.019 -0.2081  0.2224 -0.0909
  303loPI   C6A 4844  16.485  14.813   7.536 -0.0674 -0.0816  0.1519
  303loPI   C1B 4845  17.358  15.092   9.676  0.0079 -0.2104 -0.1071
  303loPI   C2B 4846  17.360  15.105   9.200 -0.2689  0.1930  0.0136
  303loPI   C3B 4847  17.287  14.999   8.758 -0.0502 -0.0630  0.0404
  303loPI   C4B 4848  17.167  15.080   8.435 -0.1155 -0.0400 -0.1226
  304loPI    C1 4849  14.086   4.640  10.583 -0.1908  0.0929  0.0672
  304loPI    C2 4850  14.330   4.864  10.358 -0.0961 -0.0207  0.0558
  304loPI    C3 4851  14.262   4.963  10.739  0.1061 -0.0851  0.1101
  304loPI   PO4 4852  13.900   4.639  10.420 -0.3221 -0.0504 -0.1430
  304loPI   GL1 4853  13.915   4.535  10.006 -0.0512 -0.1943  0.2421
  304loPI   GL2 4854  13.726   4.662   9.855  0.0810 -0.0034 -0.1429
  304loPI   C1A 4855  14.126   4.427   9.593  0.4112 -0.2167 -0.4525
  304loPI   C2A 4856  14.255   4.298   9.153 -0.1067 -0.4383 -0.0757
  304loPI   C3A 4857  14.309   4.090   8.821 -0.2975 -0.2201 -0.3332
  304loPI   C4A 4858  14.535   3.937   8.498  0.1040  0.0915  0.2176
  304loPI   C5A 4859  14.584   4.192   8.101  0.0618  0.2610 -0.0731
  304loPI   C6A 4860  14.667   4.476   7.786 -0.1277  0.0619  0.2969
  304loPI   C1B 4861  13.749   4.714   9.492  0.3247  0.0727  0.0723
  304loPI   C2B 4862  13.912   4.652   9.092  0.1159  0.0561  0.1272
  304loPI   C3B 4863  13.964   4.464   8.677 -0.0507  0.1060 -0.0728
  304loPI   C4B 4864  14.228   4.401   8.336  0.2624  0.1674  0.0515
  305loPI    C1 4865   3.384  13.968  10.450  0.0421  0.0978  0.0710
  305loPI    C2 4866   2.988  13.935  10.404  0.0254 -0.0561  0.3064
  305loPI    C3 4867   3.202  13.619  10.525  0.2688 -0.0681 -0.1354
  305loPI   PO4 4868   3.488  14.048  10.179  0.0245  0.2937 -0.1555
  305loPI   GL1 4869   3.684  14.244   9.795  0.0165 -0.0053  0.3962
  305loPI   GL2 4870   3.534  14.024   9.690  0.2790 -0.3188 -0.1644
  305loPI   C1A 4871   3.401  14.415   9.439  0.0239 -0.1713  0.0248
  305loPI   C2A 4872   3.437  14.543   9.036 -0.0507  0.1766 -0.1953
  305loPI   C3A 4873   3.348  14.470   8.506  0.2727 -0.2267  0.1233
  305loPI   C4A 4874   3.317  14.615   8.065  0.3151 -0.0455  0.1746
  305loPI   C5A 4875   3.111  14.754   7.708  0.1991 -0.1488  0.0659
  305loPI   C6A 4876   2.828  15.028   7.447  0.1052 -0.0609 -0.3146
  305loPI   C1B 4877   3.396  13.809   9.320  0.1406 -0.0459  0.0533
  305loPI   C2B 4878   3.314  13.725   8.900  0.1111  0.0460  0.2884
  305loPI   C3B 4879   3.385  13.668   8.452  0.1379 -0.0879 -0.1388
  305loPI   C4B 4880   3.494  13.663   8.032  0.0850 -0.0892  0.2383
  306loPI    C1 4881  11.887   5.286  10.509 -0.1764  0.1760  0.0391
  306loPI    C2 4882  12.192   5.494  10.662  0.0165 -0.0144 -0.0819
  306loPI    C3 4883  12.056   5.169  10.852 -0.1641  0.1153  0.0126
  306loPI   PO4 4884  12.048   5.198  10.250  0.0437  0.0182 -0.0606
  306loPI   GL1 4885  12.081   5.097   9.947  0.0818 -0.2874  0.1696
  306loPI   GL2 4886  12.079   4.800   9.759  0.0928 -0.2948  0.0045
  306loPI   C1A 4887  11.916   5.241   9.553  0.1247 -0.0141  0.0008
  306loPI   C2A 4888  11.821   5.290   9.114 -0.0440  0.4086 -0.1387
  306loPI   C3A 4889  11.834   5.262   8.690  0.3005 -0.2173 -0.0465
  306loPI   C4A 4890  12.039   5.118   8.319 -0.1804  0.0897 -0.1038
  306loPI   C5A 4891  12.224   4.955   7.940  0.2465  0.1438 -0.3194
  306loPI   C6A 4892  12.481   4.893   7.573 -0.0512  0.0667 -0.1600
  306loPI   C1B 4893  12.317   4.576   9.474 -0.0691  0.1502  0.2151
  306loPI   C2B 4894  12.407   4.498   8.933  0.0929 -0.0158 -0.2652
  306loPI   C3B 4895  12.394   4.513   8.519 -0.1169 -0.0755  0.0155
  306loPI   C4B 4896  12.627   4.588   8.151 -0.1525 -0.1076 -0.1925
  307loPI    C1 4897   0.143   6.589  10.988 -0.0618  0.0898 -0.3190
  307loPI    C2 4898  -0.248   6.656  11.040 -0.0396 -0.0193  0.0095
  307loPI    C3 4899   0.018   6.943  11.125 -0.0251 -0.0796  0.1722
  307loPI   PO4 4900   0.162   6.449  10.695  0.0816 -0.2115  0.5411
  307loPI   GL1 4901   0.086   6.478  10.269  0.0448  0.0978  0.0699
  307loPI   GL2 4902  -0.030   6.170  10.123  0.1813 -0.2963 -0.2455
  307loPI   C1A 4903   0.353   6.754   9.944 -0.0052  0.1161 -0.1144
  307loPI   C2A 4904   0.124   6.832   9.581  0.1589  0.1289  0.1268
  307loPI   C3A 4905   0.172   6.983   9.191  0.0457 -0.0071 -0.0928
  307loPI   C4A 4906   0.161   6.968   8.769 -0.0186  0.0282 -0.1565
  307loPI   C5A 4907   0.239   6.916   8.389 -0.3627 -0.2108  0.0265
  307loPI   C6A 4908   0.315   6.776   8.001 -0.0614  0.2110 -0.0236
  307loPI   C1B 4909   0.039   5.880   9.746  0.1426  0.0609 -0.0830
  307loPI   C2B 4910  -0.040   6.025   9.310  0.2700 -0.4336 -0.1596
  307loPI   C3B 4911   0.055   6.128   8.953 -0.0639 -0.1899  0.3257
  307loPI   C4B 4912   0.090   5.970   8.628 -0.4480  0.1664 -0.2131
  308loPI    C1 4913   2.655  12.338  10.505 -0.0491  0.1369 -0.1359
  308loPI    C2 4914   3.004  12.518  10.580 -0.0740  0.1740 -0.1087
  308loPI    C3 4915   2.906  12.184  10.776 -0.0733  0.1882 -0.0842
  308loPI   PO4 4916   2.667  12.452  10.225  0.2876 -0.0309  0.1123
  308loPI   GL1 4917   2.530  12.868   9.910  0.1653  0.0342 -0.1254
  308loPI   GL2 4918   2.558  13.229   9.864  0.3372 -0.2775  0.0773
  308loPI   C1A 4919   2.276  12.941   9.520 -0.1241  0.0605 -0.1879
  308loPI   C2A 4920   2.355  12.977   9.070  0.0941 -0.0600 -0.1855
  308loPI   C3A 4921   2.327  13.111   8.680 -0.2366 -0.1353 -0.2545
  308loPI   C4A 4922   2.021  13.019   8.387  0.0551  0.1460 -0.5034
  308loPI   C5A 4923   1.987  12.870   8.003  0.1165 -0.0920  0.2536
  308loPI   C6A 4924   1.909  12.496   7.647  0.0698 -0.0424  0.1174
  308loPI   C1B 4925   2.739  13.140   9.413  0.1152  0.1503 -0.0522
  308loPI   C2B 4926   2.786  13.198   8.999 -0.2074  0.3792 -0.2494
  308loPI   C3B 4927   2.851  13.130   8.636 -0.0936 -0.1328 -0.1381
  308loPI   C4B 4928   2.771  13.053   8.162  0.3895 -0.1645 -0.1988
  309loPI    C1 4929   8.336  10.551  10.620  0.1578 -0.0360  0.0298
  309loPI    C2 4930   8.284  10.156  10.575 -0.3183  0.0367 -0.1110
  309loPI    C3 4931   8.045  10.364  10.820  0.0340  0.2162  0.0891
  309loPI   PO4 4932   8.319  10.688  10.326 -0.0532  0.0864 -0.1661
  309loPI   GL1 4933   8.394  10.463   9.898 -0.0976 -0.3697 -0.2264
  309loPI   GL2 4934   8.177  10.287   9.980  0.2375 -0.3811 -0.4524
  309loPI   C1A 4935   8.353  10.461   9.470  0.0048 -0.1959 -0.2024
  309loPI   C2A 4936   8.421  10.397   9.121 -0.3232  0.5182 -0.1368
  309loPI   C3A 4937   8.241  10.490   8.743 -0.1936 -0.5343 -0.0076
  309loPI   C4A 4938   8.204  10.455   8.340  0.1990 -0.0038  0.3551
  309loPI   C5A 4939   7.908  10.236   8.017  0.3655  0.0264 -0.1454
  309loPI   C6A 4940   7.653  10.032   7.664 -0.0891  0.0239 -0.0584
  309loPI   C1B 4941   8.105  10.049   9.634  0.0376  0.0030 -0.0353
  309loPI   C2B 4942   8.162   9.994   9.308 -0.1968 -0.3369  0.5213
  309loPI   C3B 4943   8.169  10.047   8.903  0.0558  0.0909 -0.0511
  309loPI   C4B 4944   8.140   9.932   8.408 -0.2477  0.2889  0.3818
  310loPI    C1 4945  12.740  12.110  10.171 -0.1016 -0.1129  0.0620
  310loPI    C2 4946  12.632  12.275  10.519  0.0370 -0.0314  0.0671
  310loPI    C3 4947  12.709  11.882  10.498  0.0116 -0.0395  0.1246
  310loPI   PO4 4948  12.881  12.325   9.986  0.1952  0.0557  0.0649
  310loPI   GL1 4949  12.881  12.524   9.554 -0.3959  0.0583 -0.1461
  310loPI   GL2 4950  13.175  12.478   9.647  0.0414  0.1701 -0.1417
  310loPI   C1A 4951  12.994  12.671   9.237 -0.0807  0.0099  0.1637
  310loPI   C2A 4952  13.056  12.755   8.769 -0.1152  0.1840 -0.3945
  310loPI   C3A 4953  13.025  12.431   8.497 -0.2966  0.0152  0.1581
  310loPI   C4A 4954  12.804  12.315   7.950 -0.1841  0.0612  0.0275
  310loPI   C5A 4955  12.741  12.583   7.519  0.3403  0.2525  0.0853
  310loPI   C6A 4956  12.812  12.711   7.104  0.1565 -0.0597  0.0397
  310loPI   C1B 4957  13.466  12.572   9.387  0.2369 -0.0525  0.1515
  310loPI   C2B 4958  13.541  12.656   8.910 -0.2531  0.1701  0.4603
  310loPI   C3B 4959  13.526  12.594   8.489  0.0447 -0.0302  0.1994
  310loPI   C4B 4960  13.632  12.481   8.085 -0.4352 -0.1681  0.2519
  311loPI    C1 4961  10.170  10.745  10.535  0.0953 -0.1104 -0.0373
  311loPI    C2 4962  10.455  10.844  10.798  0.2343 -0.0251 -0.2173
  311loPI    C3 4963  10.232  11.129  10.627 -0.3261 -0.1199  0.3178
  311loPI   PO4 4964  10.236  10.619  10.339 -0.2303  0.0711 -0.0793
  311loPI   GL1 4965  10.196  10.508   9.912  0.1032 -0.1640  0.1850
  311loPI   GL2 4966   9.954  10.287   9.860  0.1411 -0.3446  0.3235
  311loPI   C1A 4967  10.105  10.610   9.450 -0.3047  0.1354  0.2372
  311loPI   C2A 4968  10.090  10.748   8.972 -0.0386  0.0499 -0.1905
  311loPI   C3A 4969   9.868  10.925   8.639  0.0336 -0.1459 -0.0147
  311loPI   C4A 4970   9.930  11.118   8.309  0.0858  0.1340 -0.0952
  311loPI   C5A 4971   9.903  11.364   7.838 -0.1555 -0.5275 -0.4276
  311loPI   C6A 4972   9.963  11.653   7.475 -0.1548 -0.0021 -0.0773
  311loPI   C1B 4973   9.971  10.155   9.432  0.2289  0.2866  0.0925
  311loPI   C2B 4974   9.896  10.222   8.944 -0.1440  0.1864  0.3324
  311loPI   C3B 4975   9.877  10.437   8.586  0.1747 -0.0293 -0.3046
  311loPI   C4B 4976  10.106  10.644   8.280 -0.1319 -0.2137 -0.0038
  312loPI    C1 4977   6.190   2.025  10.479 -0.0160  0.3035  0.2007
  312loPI    C2 4978   6.242   2.318  10.210 -0.0621  0.1785  0.0541
  312loPI    C3 4979   6.151   2.408  10.589  0.0635  0.3582  0.0427
  312loPI   PO4 4980   5.987   1.931  10.430 -0.0815  0.3938  0.0492
  312loPI   GL1 4981   5.793   1.947  10.065 -0.1236 -0.1032 -0.1060
  312loPI   GL2 4982   5.864   2.132   9.925  0.0685  0.0915  0.2539
  312loPI   C1A 4983   5.995   1.678   9.760 -0.0534  0.4042 -0.0748
  312loPI   C2A 4984   6.088   1.513   9.414  0.0584 -0.0071  0.0133
  312loPI   C3A 4985   6.037   1.364   9.048  0.3766 -0.2928 -0.1720
  312loPI   C4A 4986   5.933   1.431   8.629  0.0537  0.0682 -0.2907
  312loPI   C5A 4987   5.719   1.555   8.255  0.3020 -0.0101  0.1616
  312loPI   C6A 4988   5.720   1.484   7.828 -0.4475  0.2270  0.3602
  312loPI   C1B 4989   5.810   2.019   9.426  0.3259 -0.1183 -0.0012
  312loPI   C2B 4990   5.850   1.808   8.965 -0.2187 -0.0734  0.2636
  312loPI   C3B 4991   5.909   2.006   8.588 -0.1123  0.1664  0.0506
  312loPI   C4B 4992   6.159   2.070   8.225  0.0848 -0.1357  0.1061
  313loPI    C1 4993   6.943   9.182  10.506  0.0358  0.3286  0.1384
  313loPI    C2 4994   7.103   9.235  10.869  0.0639 -0.1984  0.2104
  313loPI    C3 4995   7.185   8.903  10.661 -0.1038  0.0115 -0.2007
  313loPI   PO4 4996   7.010   9.396  10.391  0.1259  0.0495  0.3514
  313loPI   GL1 4997   6.856   9.444  10.041 -0.1447  0.0723 -0.1636
  313loPI   GL2 4998   7.152   9.401   9.916  0.1453  0.2832 -0.3127
  313loPI   C1A 4999   6.787   9.460   9.557  0.1189 -0.1258  0.0707
  313loPI   C2A 5000   6.731   9.741   9.154 -0.0015 -0.1727  0.0529
  313loPI   C3A 5001   6.949   9.932   8.800 -0.2063 -0.0060 -0.6204
  313loPI   C4A 5002   6.895   9.897   8.317 -0.1421  0.1183  0.1801
  313loPI   C5A 5003   6.589  10.006   7.937  0.0740 -0.0219  0.0230
  313loPI   C6A 5004   6.486  10.386   7.686 -0.0913 -0.0808  0.3145
  313loPI   C1B 5005   7.138   9.091   9.600 -0.1858 -0.0273  0.3128
  313loPI   C2B 5006   6.998   9.074   9.209 -0.1626 -0.0157 -0.0473
  313loPI   C3B 5007   6.785   8.877   8.904  0.0476 -0.2510 -0.2179
  313loPI   C4B 5008   6.636   8.838   8.468 -0.1896  0.0696 -0.1595
  314loPI    C1 5009  14.279  14.633  10.550  0.1100 -0.0235  0.0480
  314loPI    C2 5010  14.204  14.365  10.837 -0.5898  0.2878  0.1767
  314loPI    C3 5011  14.419  14.692  10.920  0.1133 -0.1246  0.0631
  314loPI   PO4 5012  14.046  14.763  10.462 -0.0883 -0.1025  0.2546
  314loPI   GL1 5013  13.962  15.140  10.268 -0.1263  0.1643 -0.1829
  314loPI   GL2 5014  13.715  15.033  10.175  0.1044  0.0027  0.1113
  314loPI   C1A 5015  14.003  15.396   9.913 -0.3134  0.2512 -0.1770
  314loPI   C2A 5016  14.000  15.442   9.422  0.0448 -0.1249 -0.0952
  314loPI   C3A 5017  14.051  15.431   8.996  0.1818  0.4924  0.2486
  314loPI   C4A 5018  14.253  15.343   8.662  0.1215 -0.2903 -0.3376
  314loPI   C5A 5019  14.279  15.342   8.226 -0.0034  0.2924 -0.0206
  314loPI   C6A 5020  13.944  15.294   7.993 -0.1908 -0.0587  0.2261
  314loPI   C1B 5021  13.873  14.923   9.778  0.1812 -0.6086 -0.0694
  314loPI   C2B 5022  13.891  14.965   9.290 -0.0023  0.0526 -0.1000
  314loPI   C3B 5023  14.004  14.942   8.881  0.0691  0.0033  0.0219
  314loPI   C4B 5024  14.046  14.906   8.436  0.1348  0.1192  0.0528
  315loPI    C1 5025  16.958  12.435  10.840  0.1325 -0.1026 -0.2493
  315loPI    C2 5026  16.604  12.249  10.860  0.1834 -0.1722  0.0340
  315loPI    C3 5027  16.941  12.049  10.941  0.2644 -0.0359  0.0376
  315loPI   PO4 5028  16.957  12.534  10.594  0.0219  0.0530  0.1579
  315loPI   GL1 5029  16.865  12.481  10.214  0.2166  0.0754 -0.0610
  315loPI   GL2 5030  16.708  12.228  10.264  0.2567  0.0778  0.0152
  315loPI   C1A 5031  16.915  12.584   9.730 -0.0465 -0.0068 -0.1688
  315loPI   C2A 5032  16.782  12.468   9.379 -0.1230  0.0935  0.2847
  315loPI   C3A 5033  16.759  12.369   8.915 -0.0627  0.2094 -0.0875
  315loPI   C4A 5034  16.729  12.253   8.518 -0.0067  0.2236  0.1017
  315loPI   C5A 5035  16.630  12.350   8.059 -0.1544 -0.0373 -0.3639
  315loPI   C6A 5036  16.495  12.331   7.566 -0.1317 -0.0086 -0.3194
  315loPI   C1B 5037  16.898  11.927   9.957  0.0483 -0.2007 -0.1114
  315loPI   C2B 5038  17.027  11.921   9.391 -0.1166  0.0039 -0.2419
  315loPI   C3B 5039  16.986  11.882   8.982 -0.0074 -0.0010  0.0533
  315loPI   C4B 5040  16.964  11.828   8.614  0.3571 -0.0147  0.0596
  316loPI    C1 5041   4.645  11.881  10.094 -0.1872 -0.0802  0.1430
  316loPI    C2 5042   4.826  11.689  10.395  0.1790  0.0111 -0.0130
  316loPI    C3 5043   4.833  12.088  10.379  0.0249  0.0128 -0.0613
  316loPI   PO4 5044   4.430  11.662  10.023 -0.0158 -0.0805 -0.1688
  316loPI   GL1 5045   4.416  11.401   9.675 -0.0695  0.0349 -0.0697
  316loPI   GL2 5046   4.156  11.214   9.534  0.1488 -0.0595 -0.0363
  316loPI   C1A 5047   4.506  11.657   9.287  0.0544 -0.2291  0.2864
  316loPI   C2A 5048   4.361  11.710   8.879  0.0025 -0.0364  0.2938
  316loPI   C3A 5049   4.398  11.792   8.458  0.3580 -0.0971 -0.0719
  316loPI   C4A 5050   4.596  11.618   8.203  0.4102 -0.0886  0.2200
  316loPI   C5A 5051   4.971  11.633   7.914  0.0259  0.1124 -0.1517
  316loPI   C6A 5052   5.224  11.215   7.896 -0.2461  0.0143  0.1875
  316loPI   C1B 5053   4.226  11.280   9.138  0.0868 -0.0625 -0.2784
  316loPI   C2B 5054   4.197  11.243   8.660  0.0847  0.1826  0.2577
  316loPI   C3B 5055   4.211  11.291   8.209 -0.0170 -0.3286 -0.0159
  316loPI   C4B 5056   4.385  11.340   7.784  0.1538  0.1732  0.2175
  317loPI    C1 5057  13.752   3.085  10.442  0.2246  0.1098 -0.0501
  317loPI    C2 5058  13.477   3.367  10.369  0.1802  0.0089 -0.2812
  317loPI    C3 5059  13.758   3.429  10.647 -0.0786  0.1103 -0.0367
  317loPI   PO4 5060  13.607   2.851  10.372 -0.1831 -0.1195 -0.1236
  317loPI   GL1 5061  13.605   2.583  10.011 -0.0209 -0.1398  0.0785
  317loPI   GL2 5062  13.305   2.709   9.888 -0.1114  0.0442  0.1360
  317loPI   C1A 5063  13.562   2.298   9.656 -0.1135  0.0995  0.2961
  317loPI   C2A 5064  13.470   2.112   9.310  0.1265  0.0423  0.2164
  317loPI   C3A 5065  13.599   2.097   8.886 -0.1933 -0.0145  0.2343
  317loPI   C4A 5066  13.503   2.012   8.397  0.1640  0.0177 -0.1532
  317loPI   C5A 5067  13.413   1.747   8.041  0.1815  0.1295  0.3431
  317loPI   C6A 5068  13.289   1.594   7.669  0.0292 -0.2032 -0.1882
  317loPI   C1B 5069  13.052   2.509   9.601  0.0607 -0.2414 -0.1654
  317loPI   C2B 5070  13.126   2.398   9.144 -0.3913  0.0070  0.1482
  317loPI   C3B 5071  13.171   2.422   8.731 -0.1281  0.1904  0.1981
  317loPI   C4B 5072  13.220   2.459   8.283  0.2307  0.2001  0.1054
  318loPI    C1 5073  13.769  15.961  11.026 -0.1664  0.0427  0.0793
  318loPI    C2 5074  13.773  15.561  11.032  0.0292  0.0369 -0.2050
  318loPI    C3 5075  13.725  15.766  11.372  0.0709 -0.2262 -0.0376
  318loPI   PO4 5076  13.977  16.081  10.922 -0.0736  0.0710  0.0374
  318loPI   GL1 5077  14.074  16.101  10.453  0.2339 -0.2897  0.0788
  318loPI   GL2 5078  13.836  16.453  10.440 -0.0891  0.0675  0.2326
  318loPI   C1A 5079  14.078  15.931  10.060 -0.0651  0.1119  0.1272
  318loPI   C2A 5080  13.975  15.878   9.607 -0.0210  0.1288  0.0148
  318loPI   C3A 5081  14.094  15.875   9.160  0.1780  0.0205 -0.1270
  318loPI   C4A 5082  14.127  15.834   8.741 -0.2644 -0.1419  0.1059
  318loPI   C5A 5083  14.261  15.818   8.254 -0.0438 -0.1271  0.1280
  318loPI   C6A 5084  13.893  15.916   7.960  0.0840 -0.1498  0.1449
  318loPI   C1B 5085  13.898  16.406   9.913  0.0906  0.1411 -0.4996
  318loPI   C2B 5086  13.668  16.271   9.548  0.3236 -0.2048  0.0537
  318loPI   C3B 5087  13.723  16.243   9.079 -0.0371  0.2230 -0.0204
  318loPI   C4B 5088  13.857  16.228   8.614 -0.3320 -0.0819 -0.0158
  319loPI    C1 5089   6.046  12.179   9.955 -0.1391 -0.0183 -0.0515
  319loPI    C2 5090   6.270  11.994  10.230  0.0002 -0.1934 -0.2798
  319loPI    C3 5091   6.116  12.354  10.308 -0.1687 -0.3464  0.1217
  319loPI   PO4 5092   5.868  11.999   9.822  0.3242 -0.0897  0.1904
  319loPI   GL1 5093   5.508  12.018   9.589  0.1843  0.0446  0.0432
  319loPI   GL2 5094   5.322  12.139   9.531 -0.0375  0.2924  0.1333
  319loPI   C1A 5095   5.468  11.776   9.203  0.3925  0.3543  0.2100
  319loPI   C2A 5096   5.321  11.654   8.746 -0.2707 -0.0185  0.0363
  319loPI   C3A 5097   5.323  11.830   8.410  0.3406  0.0312  0.0775
  319loPI   C4A 5098   5.363  11.860   8.012 -0.1381  0.3241 -0.0209
  319loPI   C5A 5099   5.630  11.727   7.634 -0.2022 -0.0677 -0.0932
  319loPI   C6A 5100   5.964  11.678   7.342 -0.0194  0.0493  0.1352
  319loPI   C1B 5101   5.406  12.263   9.134  0.2115  0.4536 -0.0743
  319loPI   C2B 5102   5.428  12.375   8.741 -0.2331 -0.3750  0.1430
  319loPI   C3B 5103   5.412  12.313   8.312 -0.0746 -0.1024 -0.0582
  319loPI   C4B 5104   5.419  12.518   8.009 -0.3807  0.0214 -0.1301
  320loPI    C1 5105  14.356  11.918  10.474 -0.1942  0.1337 -0.0306
  320loPI    C2 5106  14.468  12.211  10.722 -0.2001  0.0456  0.0767
  320loPI    C3 5107  14.556  11.831  10.809 -0.1189  0.0220 -0.1040
  320loPI   PO4 5108  14.512  12.167  10.199  0.0057 -0.0526 -0.0376
  320loPI   GL1 5109  14.826  12.311   9.807  0.2236 -0.0742 -0.0413
  320loPI   GL2 5110  14.550  12.223   9.701 -0.0533 -0.0128 -0.0120
  320loPI   C1A 5111  15.039  12.266   9.515 -0.1886  0.2710 -0.1084
  320loPI   C2A 5112  15.274  12.368   9.110  0.0853  0.0161  0.3967
  320loPI   C3A 5113  15.361  12.279   8.724 -0.0356 -0.1090  0.2098
  320loPI   C4A 5114  15.130  12.291   8.390 -0.2209  0.0963 -0.0426
  320loPI   C5A 5115  15.020  12.193   8.083  0.1623 -0.1667  0.1658
  320loPI   C6A 5116  14.900  12.036   7.611 -0.2232 -0.1003  0.1211
  320loPI   C1B 5117  14.589  12.018   9.227 -0.0236  0.0994 -0.0553
  320loPI   C2B 5118  14.924  12.020   8.940  0.0916  0.1580  0.1289
  320loPI   C3B 5119  14.983  11.855   8.549  0.0939  0.1501 -0.0427
  320loPI   C4B 5120  15.198  11.460   8.732 -0.0512  0.0225 -0.3422
  321loPI    C1 5121   1.869   6.042  10.984  0.1353  0.1779 -0.1322
  321loPI    C2 5122   1.689   6.271  11.258  0.1899  0.0020  0.0533
  321loPI    C3 5123   2.077   6.182  11.296  0.1440 -0.2078  0.0409
  321loPI   PO4 5124   1.628   6.052  10.767  0.0821  0.2937 -0.0733
  321loPI   GL1 5125   1.559   6.177  10.347 -0.4053 -0.3789  0.0205
  321loPI   GL2 5126   1.759   6.016  10.097  0.4445  0.0810 -0.0683
  321loPI   C1A 5127   1.474   6.420  10.019 -0.2445 -0.2657 -0.0703
  321loPI   C2A 5128   1.264   6.687   9.801 -0.0211  0.0533  0.0245
  321loPI   C3A 5129   1.207   6.789   9.386  0.0269  0.1398 -0.0097
  321loPI   C4A 5130   1.173   6.936   8.949  0.1594 -0.2115  0.0840
  321loPI   C5A 5131   1.172   6.913   8.456 -0.1841 -0.0384  0.1356
  321loPI   C6A 5132   0.707   6.921   8.318  0.3661 -0.0596  0.0012
  321loPI   C1B 5133   1.620   6.025   9.737 -0.1176 -0.1053 -0.1227
  321loPI   C2B 5134   1.619   5.995   9.329 -0.1504  0.1351  0.0076
  321loPI   C3B 5135   1.679   6.060   8.955  0.2495 -0.0227 -0.2322
  321loPI   C4B 5136   1.760   6.020   8.511  0.0900 -0.3028  0.1933
  322loPI    C1 5137   1.696   5.153  10.567 -0.1298 -0.0118  0.0135
  322loPI    C2 5138   1.471   4.824  10.595 -0.2159  0.0506  0.0592
  322loPI    C3 5139   1.687   4.946  10.909 -0.1064 -0.0175  0.0107
  322loPI   PO4 5140   1.599   5.208  10.267  0.0265 -0.1868 -0.4203
  322loPI   GL1 5141   1.872   5.299   9.950  0.1069  0.1769 -0.0026
  322loPI   GL2 5142   1.617   5.592   9.968  0.1042  0.3046 -0.1681
  322loPI   C1A 5143   2.059   5.179   9.689 -0.0578  0.2588  0.2401
  322loPI   C2A 5144   2.200   5.368   9.296  0.1292  0.2678  0.0316
  322loPI   C3A 5145   2.290   5.417   8.965 -0.1717  0.2062  0.0380
  322loPI   C4A 5146   2.122   5.234   8.596 -0.0630  0.1381  0.2953
  322loPI   C5A 5147   2.023   5.171   8.222 -0.1189 -0.1631 -0.2135
  322loPI   C6A 5148   2.032   4.935   7.818 -0.3323 -0.2282 -0.3299
  322loPI   C1B 5149   1.901   5.605   9.574  0.0306 -0.0683  0.2608
  322loPI   C2B 5150   1.866   5.646   9.107  0.3021 -0.2734  0.1141
  322loPI   C3B 5151   1.697   5.593   8.724  0.0988  0.0191  0.3174
  322loPI   C4B 5152   1.620   5.478   8.349  0.2474 -0.2381  0.2038
  323loPI    C1 5153  15.198   1.878  10.483  0.1635 -0.0050 -0.1984
  323loPI    C2 5154  15.441   2.196  10.486  0.0506  0.0813 -0.0231
  323loPI    C3 5155  15.271   2.070  10.826  0.0552 -0.1373 -0.0998
  323loPI   PO4 5156  15.287   1.765  10.360 -0.0946  0.0023 -0.3550
  323loPI   GL1 5157  15.167   1.493  10.057 -0.2577 -0.0271  0.3395
  323loPI   GL2 5158  15.497   1.495   9.957 -0.1201  0.2812 -0.1574
  323loPI   C1A 5159  15.038   1.643   9.757 -0.2452 -0.0912 -0.0983
  323loPI   C2A 5160  14.988   1.483   9.323 -0.2670 -0.1340 -0.0410
  323loPI   C3A 5161  14.995   1.595   8.973  0.1381 -0.0146 -0.0856
  323loPI   C4A 5162  14.836   1.615   8.629  0.1952 -0.3763 -0.1280
  323loPI   C5A 5163  14.886   1.368   8.272 -0.0004 -0.2473  0.3942
  323loPI   C6A 5164  14.885   1.006   8.022 -0.0469 -0.1744  0.2840
  323loPI   C1B 5165  15.426   1.409   9.570  0.0770  0.0659  0.0363
  323loPI   C2B 5166  15.388   1.294   9.068 -0.0551  0.3489  0.1531
  323loPI   C3B 5167  15.230   1.227   8.709 -0.0983 -0.0235  0.0480
  323loPI   C4B 5168  15.285   1.060   8.276  0.0438 -0.3244 -0.0549
  324loPI    C1 5169   0.524   7.340  10.986  0.1045 -0.0026 -0.0235
  324loPI    C2 5170   0.406   7.674  11.172 -0.1520 -0.1352  0.0576
  324loPI    C3 5171   0.750   7.498  11.275 -0.0392  0.0758  0.0473
  324loPI   PO4 5172   0.304   7.324  10.795 -0.0045 -0.0527  0.1327
  324loPI   GL1 5173   0.365   7.238  10.285  0.0600 -0.1279  0.2355
  324loPI   GL2 5174   0.601   7.476  10.234 -0.0229 -0.3599 -0.2911
  324loPI   C1A 5175   0.146   7.248   9.814  0.0885  0.1696 -0.3133
  324loPI   C2A 5176   0.005   7.405   9.434  0.2500 -0.1902  0.2485
  324loPI   C3A 5177  -0.009   7.462   8.963  0.3856 -0.0169  0.2167
  324loPI   C4A 5178  -0.032   7.329   8.483 -0.1816 -0.0399 -0.0687
  324loPI   C5A 5179  -0.147   7.133   8.077 -0.0091 -0.1338  0.0368
  324loPI   C6A 5180  -0.510   7.010   7.940  0.1563  0.1900  0.2380
  324loPI   C1B 5181   0.547   7.573   9.826  0.0769  0.0208 -0.0283
  324loPI   C2B 5182   0.489   7.510   9.510  0.0841 -0.2802  0.0971
  324loPI   C3B 5183   0.486   7.460   9.130 -0.0029  0.1408 -0.1654
  324loPI   C4B 5184   0.493   7.439   8.735  0.1361 -0.0126  0.4710
  325loPI    C1 5185   6.646  15.177  10.274 -0.0790  0.0990  0.0636
  325loPI    C2 5186   6.452  14.870  10.441 -0.1593  0.0043 -0.1989
  325loPI    C3 5187   6.843  14.840  10.359 -0.1187  0.0527 -0.0266
  325loPI   PO4 5188   6.509  15.170   9.968  0.5740 -0.0435 -0.2786
  325loPI   GL1 5189   6.463  15.442   9.552  0.2288 -0.2864  0.3525
  325loPI   GL2 5190   6.378  15.722   9.691 -0.1203  0.1814  0.2604
  325loPI   C1A 5191   6.482  15.380   9.136 -0.2776 -0.1432  0.4453
  325loPI   C2A 5192   6.407  15.481   8.802  0.1862 -0.1662 -0.4258
  325loPI   C3A 5193   6.582  15.497   8.459  0.1617  0.3917  0.1438
  325loPI   C4A 5194   6.517  15.411   8.094 -0.0929 -0.2094  0.0327
  325loPI   C5A 5195   6.316  15.519   7.733  0.0102 -0.2630  0.0833
  325loPI   C6A 5196   6.208  16.049   7.679 -0.4429  0.0156 -0.2466
  325loPI   C1B 5197   6.200  15.937   9.371  0.0681  0.2038  0.1551
  325loPI   C2B 5198   6.211  15.951   8.836 -0.3806  0.0672 -0.1155
  325loPI   C3B 5199   6.241  15.845   8.480 -0.0202 -0.1035 -0.0862
  325loPI   C4B 5200   6.316  15.895   8.132  0.1534  0.0802 -0.1069
  326loPI    C1 5201   4.368  16.287  10.230 -0.0794  0.0382  0.2863
  326loPI    C2 5202   4.186  16.547  10.473 -0.3688 -0.0809  0.2011
  326loPI    C3 5203   4.470  16.305  10.617 -0.3182  0.0649  0.3496
  326loPI   PO4 5204   4.368  16.435   9.921 -0.2166 -0.2002 -0.1129
  326loPI   GL1 5205   4.374  16.310   9.547 -0.1665  0.0454 -0.3484
  326loPI   GL2 5206   4.322  16.005   9.697  0.0441  0.1143 -0.3971
  326loPI   C1A 5207   4.242  16.445   9.269  0.3219  0.1324  0.2803
  326loPI   C2A 5208   4.230  16.475   8.959  0.3711 -0.2173 -0.1228
  326loPI   C3A 5209   4.264  16.409   8.572  0.1292 -0.0013  0.0196
  326loPI   C4A 5210   4.168  16.185   8.211 -0.1805  0.0859  0.0168
  326loPI   C5A 5211   4.380  16.039   7.787  0.1859  0.1291  0.0761
  326loPI   C6A 5212   4.314  16.026   7.400 -0.2255  0.0429 -0.1989
  326loPI   C1B 5213   4.111  15.934   9.364  0.2607  0.1024 -0.1677
  326loPI   C2B 5214   4.006  15.953   8.960  0.0768 -0.1038 -0.0970
  326loPI   C3B 5215   4.055  15.912   8.574 -0.1694 -0.2672  0.2065
  326loPI   C4B 5216   4.351  15.726   8.229 -0.0465 -0.0941 -0.0164
  327loPI    C1 5217  11.925  12.608  10.034  0.2034 -0.3035  0.2798
  327loPI    C2 5218  12.020  12.989   9.960 -0.0045 -0.2915  0.0624
  327loPI    C3 5219  11.816  12.895  10.290  0.0991 -0.2231  0.1467
  327loPI   PO4 5220  11.848  12.556   9.794 -0.0725  0.0953 -0.0230
  327loPI   GL1 5221  11.732  12.714   9.480 -0.1808  0.0102 -0.2769
  327loPI   GL2 5222  11.383  12.614   9.500  0.3288 -0.3887  0.0994
  327loPI   C1A 5223  11.860  12.786   9.111 -0.3700 -0.2090 -0.0432
  327loPI   C2A 5224  12.054  12.737   8.735 -0.0926  0.2028  0.0615
  327loPI   C3A 5225  12.166  12.525   8.414 -0.0037  0.0309  0.2773
  327loPI   C4A 5226  11.951  12.284   8.135  0.1482 -0.1869  0.0437
  327loPI   C5A 5227  11.873  12.163   7.593 -0.1527  0.0281 -0.1465
  327loPI   C6A 5228  11.989  11.901   7.203  0.4196 -0.1638  0.2752
  327loPI   C1B 5229  11.410  12.493   9.138  0.1942  0.2390  0.1210
  327loPI   C2B 5230  11.511  12.574   8.731 -0.0080  0.1301  0.2232
  327loPI   C3B 5231  11.527  12.398   8.314  0.1204  0.3927 -0.0717
  327loPI   C4B 5232  11.492  12.340   7.888 -0.0559 -0.0798 -0.1746
  328loPI    C1 5233   8.932   1.973  10.533 -0.1699 -0.1002 -0.0725
  328loPI    C2 5234   9.221   1.791  10.324  0.0806  0.0678  0.1217
  328loPI    C3 5235   9.189   1.728  10.718  0.0375  0.2785  0.1531
  328loPI   PO4 5236   8.803   1.994  10.466 -0.0339 -0.1039 -0.2962
  328loPI   GL1 5237   8.588   1.783  10.065 -0.1851 -0.2288  0.0428
  328loPI   GL2 5238   8.863   1.830   9.944  0.1554  0.0594 -0.4294
  328loPI   C1A 5239   8.354   1.519   9.697  0.1921  0.4588 -0.0414
  328loPI   C2A 5240   8.335   1.475   9.344  0.2589 -0.1679 -0.2209
  328loPI   C3A 5241   8.305   1.481   8.874  0.1440 -0.1646 -0.1154
  328loPI   C4A 5242   8.317   1.234   8.462 -0.1033  0.0222 -0.2865
  328loPI   C5A 5243   8.422   1.431   8.164 -0.0133  0.0891 -0.1849
  328loPI   C6A 5244   8.342   1.621   7.845  0.0878  0.1098  0.0520
  328loPI   C1B 5245   9.092   1.894   9.524 -0.2497  0.1514  0.1671
  328loPI   C2B 5246   9.024   1.966   9.117 -0.2021  0.1603 -0.0326
  328loPI   C3B 5247   8.986   2.164   8.715 -0.0764 -0.0423  0.0973
  328loPI   C4B 5248   8.939   2.251   8.308 -0.0470 -0.1476  0.2362
  329loPI    C1 5249  17.383   8.602  10.557  0.0040 -0.0772 -0.0438
  329loPI    C2 5250  17.207   8.356  10.818 -0.0628 -0.1539 -0.1604
  329loPI    C3 5251  17.196   8.751  10.878  0.1294 -0.1822  0.0792
  329loPI   PO4 5252  17.310   8.512  10.288 -0.0099  0.0039 -0.0943
  329loPI   GL1 5253  17.519   8.479   9.890 -0.0509  0.0240 -0.1215
  329loPI   GL2 5254  17.449   8.886   9.983  0.0585 -0.2464 -0.2397
  329loPI   C1A 5255  17.494   8.492   9.316 -0.1720  0.0443  0.1509
  329loPI   C2A 5256  17.646   8.522   8.933 -0.0274  0.3250  0.1427
  329loPI   C3A 5257  17.775   8.602   8.537 -0.1177  0.2250 -0.2903
  329loPI   C4A 5258  17.993   8.771   8.235 -0.2205 -0.0442  0.1201
  329loPI   C5A 5259  17.946   9.094   8.069 -0.0013  0.2937 -0.1413
  329loPI   C6A 5260  18.027   9.505   8.161 -0.0045 -0.1016 -0.2579
  329loPI   C1B 5261  17.282   8.895   9.568  0.1432  0.1498 -0.1514
  329loPI   C2B 5262  17.328   8.971   9.124 -0.0095 -0.0663 -0.0686
  329loPI   C3B 5263  17.457   9.006   8.748 -0.3958 -0.0923  0.0257
  329loPI   C4B 5264  17.437   8.925   8.318 -0.3795 -0.0450 -0.2596
  330loPI    C1 5265   5.035  13.363  10.211  0.1514 -0.1927 -0.2450
  330loPI    C2 5266   5.177  13.665  10.431 -0.3254 -0.0268 -0.1529
  330loPI    C3 5267   5.344  13.303  10.457 -0.0300  0.1212  0.0691
  330loPI   PO4 5268   4.947  13.463  10.019 -0.0951  0.1222  0.1677
  330loPI   GL1 5269   4.973  13.754   9.610 -0.0858  0.0501 -0.3013
  330loPI   GL2 5270   5.255  13.600   9.521  0.0278 -0.0905  0.0326
  330loPI   C1A 5271   5.247  14.104   9.402  0.2597 -0.1481 -0.3944
  330loPI   C2A 5272   5.175  14.162   8.987  0.1463  0.0485 -0.1449
  330loPI   C3A 5273   5.202  14.150   8.561 -0.3033 -0.1585  0.0818
  330loPI   C4A 5274   5.123  14.270   8.164 -0.0141 -0.2941  0.0901
  330loPI   C5A 5275   5.005  14.423   7.874  0.1041 -0.1096  0.0271
  330loPI   C6A 5276   4.832  14.710   7.521  0.0955  0.1038 -0.1156
  330loPI   C1B 5277   5.156  13.692   9.089  0.4584 -0.0713 -0.0439
  330loPI   C2B 5278   5.074  13.682   8.625  0.2266 -0.0970  0.1636
  330loPI   C3B 5279   5.065  13.766   8.183 -0.0166  0.0601 -0.2721
  330loPI   C4B 5280   5.331  13.501   7.822  0.1051  0.2889 -0.2835
  331loPI    C1 5281   4.101   0.014   9.957 -0.1123  0.2066  0.0616
  331loPI    C2 5282   3.766  -0.189  10.039 -0.1045  0.1824  0.0341
  331loPI    C3 5283   4.061  -0.171  10.309 -0.0047 -0.0477 -0.0572
  331loPI   PO4 5284   4.012   0.233   9.876  0.0452 -0.1369 -0.0835
  331loPI   GL1 5285   3.828   0.138   9.590 -0.2027  0.2287 -0.0077
  331loPI   GL2 5286   3.601   0.015   9.590  0.0767 -0.2425  0.3254
  331loPI   C1A 5287   3.991   0.173   9.126 -0.0170 -0.2190  0.2254
  331loPI   C2A 5288   3.965   0.031   8.700 -0.0231  0.1447 -0.2181
  331loPI   C3A 5289   3.669  -0.091   8.356 -0.2492 -0.0726 -0.0868
  331loPI   C4A 5290   3.699  -0.327   7.953  0.2125  0.2247 -0.2411
  331loPI   C5A 5291   3.477  -0.288   7.647  0.0676 -0.0740  0.2695
  331loPI   C6A 5292   3.348   0.023   7.275  0.0209 -0.0934 -0.2104
  331loPI   C1B 5293   3.618  -0.111   9.097 -0.0245  0.0363 -0.1898
  331loPI   C2B 5294   3.576  -0.327   8.846  0.1262 -0.1433  0.0116
  331loPI   C3B 5295   3.560  -0.586   8.479 -0.1043 -0.1900 -0.0828
  331loPI   C4B 5296   3.588  -0.940   8.559  0.5844  0.1725 -0.0571
  332loPI    C1 5297   4.555   6.614  10.252  0.0972 -0.2293 -0.1363
  332loPI    C2 5298   4.688   6.734   9.894 -0.0623  0.2594 -0.0385
  332loPI    C3 5299   4.612   7.003  10.181 -0.5175 -0.0719  0.1650
  332loPI   PO4 5300   4.601   6.403  10.282 -0.2920 -0.2727  0.0126
  332loPI   GL1 5301   4.531   6.169   9.999 -0.0405  0.1842  0.0596
  332loPI   GL2 5302   4.377   6.350   9.862 -0.1698  0.0900 -0.0503
  332loPI   C1A 5303   4.613   5.935   9.672  0.1101 -0.1030  0.4582
  332loPI   C2A 5304   4.659   5.759   9.343 -0.1629  0.2555 -0.1133
  332loPI   C3A 5305   4.849   5.742   8.924 -0.1904 -0.0159 -0.2889
  332loPI   C4A 5306   4.794   5.925   8.563 -0.4434  0.2027  0.0789
  332loPI   C5A 5307   5.077   5.799   8.260  0.0526 -0.0553  0.0546
  332loPI   C6A 5308   5.534   5.626   8.152  0.1150 -0.0942 -0.1250
  332loPI   C1B 5309   4.479   6.489   9.531  0.0444 -0.0909  0.0842
  332loPI   C2B 5310   4.490   6.633   9.094  0.3183  0.1211  0.0847
  332loPI   C3B 5311   4.687   6.695   8.780  0.2297  0.0799 -0.1389
  332loPI   C4B 5312   4.657   6.895   8.356  0.0451 -0.1420 -0.2005
  333loPI    C1 5313   5.943  15.664  10.051 -0.0842 -0.0587 -0.0760
  333loPI    C2 5314   6.170  15.994  10.049 -0.0004 -0.1161 -0.1053
  333loPI    C3 5315   5.801  16.004   9.894 -0.0698  0.0127  0.0640
  333loPI   PO4 5316   6.061  15.447   9.905 -0.2617  0.1455  0.2809
  333loPI   GL1 5317   5.979  15.480   9.461  0.2904 -0.3085  0.1011
  333loPI   GL2 5318   5.753  15.825   9.467 -0.1111 -0.1620  0.1092
  333loPI   C1A 5319   5.949  15.568   9.086 -0.3474 -0.1270  0.0600
  333loPI   C2A 5320   5.891  15.528   8.619  0.2773  0.0105  0.2569
  333loPI   C3A 5321   6.043  15.495   8.210  0.0944  0.1950 -0.0608
  333loPI   C4A 5322   5.844  15.726   7.805 -0.1436 -0.0390 -0.2349
  333loPI   C5A 5323   5.794  15.525   7.402  0.1955  0.3071  0.2297
  333loPI   C6A 5324   5.825  15.062   7.289  0.3240  0.0311 -0.1334
  333loPI   C1B 5325   5.739  16.015   9.069 -0.2501 -0.2387 -0.3467
  333loPI   C2B 5326   5.716  15.989   8.670 -0.2586 -0.0013  0.0521
  333loPI   C3B 5327   5.744  15.957   8.268 -0.0192  0.3708  0.1141
  333loPI   C4B 5328   5.799  16.255   7.912 -0.2169  0.2563  0.2387
  334loPI    C1 5329  11.119   3.686  10.721  0.0360 -0.0104  0.0751
  334loPI    C2 5330  11.433   3.735  10.478 -0.0618  0.1946 -0.0119
  334loPI    C3 5331  11.287   4.047  10.683 -0.1185  0.0696  0.1397
  334loPI   PO4 5332  11.058   3.424  10.626  0.0766 -0.0700  0.0131
  334loPI   GL1 5333  10.863   3.349  10.245 -0.0343 -0.2754 -0.0152
  334loPI   GL2 5334  10.637   3.157  10.176  0.1457 -0.2139 -0.0658
  334loPI   C1A 5335  11.016   3.323   9.811 -0.1105 -0.3114 -0.2685
  334loPI   C2A 5336  10.880   3.207   9.464  0.0215 -0.0912 -0.0226
  334loPI   C3A 5337  10.842   3.171   9.182 -0.0489 -0.0043  0.1104
  334loPI   C4A 5338  10.868   3.194   8.794  0.5232 -0.0205 -0.1150
  334loPI   C5A 5339  10.970   3.339   8.412 -0.1389  0.0308 -0.1915
  334loPI   C6A 5340  10.746   3.588   8.054  0.0645 -0.2098  0.2104
  334loPI   C1B 5341  10.389   3.211   9.691  0.1259  0.2572  0.0997
  334loPI   C2B 5342  10.375   3.328   9.254  0.0630  0.0187  0.0459
  334loPI   C3B 5343  10.376   3.258   8.893  0.1056 -0.1607 -0.1481
  334loPI   C4B 5344  10.458   3.280   8.406  0.1349  0.0145  0.0711
  335loPI    C1 5345   4.064   8.690  10.820 -0.0808 -0.1453 -0.2243
  335loPI    C2 5346   3.825   8.869  11.086  0.1929  0.1245 -0.1532
  335loPI    C3 5347   4.149   8.670  11.210  0.2724  0.1748 -0.2791
  335loPI   PO4 5348   3.907   8.655  10.593  0.6307  0.0258  0.0703
  335loPI   GL1 5349   3.695   8.828  10.251 -0.3694 -0.4041 -0.1873
  335loPI   GL2 5350   3.906   8.615  10.025 -0.1721 -0.0965  0.0019
  335loPI   C1A 5351   3.457   8.655   9.867 -0.0806 -0.1585  0.1089
  335loPI   C2A 5352   3.602   8.602   9.427 -0.1980  0.2260  0.1342
  335loPI   C3A 5353   3.531   8.540   8.999  0.2066 -0.2161 -0.1608
  335loPI   C4A 5354   3.514   8.536   8.494  0.0106  0.3401  0.0034
  335loPI   C5A 5355   3.517   8.869   8.231  0.0131 -0.0535 -0.0182
  335loPI   C6A 5356   3.378   9.351   8.091  0.0061  0.2261  0.0692
  335loPI   C1B 5357   4.048   8.752   9.546  0.2598  0.0339  0.2535
  335loPI   C2B 5358   4.070   8.827   9.057 -0.1333  0.0882  0.0103
  335loPI   C3B 5359   4.153   8.773   8.588  0.2598  0.1800  0.2393
  335loPI   C4B 5360   4.015   8.671   8.224 -0.1058 -0.1312  0.3757
  336loPI    C1 5361  10.712   6.953  10.583 -0.0287  0.0319  0.0609
  336loPI    C2 5362  11.071   6.960  10.758 -0.0290 -0.2021  0.0732
  336loPI    C3 5363  10.739   6.966  10.982 -0.0296 -0.4124  0.0801
  336loPI   PO4 5364  10.811   7.034  10.315  0.2297 -0.0668  0.3714
  336loPI   GL1 5365  10.748   7.211   9.857  0.0285 -0.0708 -0.0030
  336loPI   GL2 5366  10.721   6.954   9.811 -0.3760  0.3969  0.0987
  336loPI   C1A 5367  10.831   7.484   9.548  0.0861 -0.0080  0.0522
  336loPI   C2A 5368  10.912   7.429   9.170  0.0076  0.0546  0.0136
  336loPI   C3A 5369  10.947   7.383   8.772  0.2881  0.2402 -0.1543
  336loPI   C4A 5370  11.011   7.383   8.351  0.0602  0.1566  0.2123
  336loPI   C5A 5371  11.124   6.998   8.203  0.0473  0.1527  0.0062
  336loPI   C6A 5372  11.370   6.792   7.958 -0.0794  0.1248  0.1711
  336loPI   C1B 5373  10.621   6.965   9.397  0.4313 -0.0081 -0.1124
  336loPI   C2B 5374  10.644   7.003   8.982  0.0074  0.0143 -0.3012
  336loPI   C3B 5375  10.680   6.950   8.481  0.0169  0.1747 -0.1186
  336loPI   C4B 5376  10.605   7.032   8.101 -0.0569 -0.1138  0.1681
  337loPI    C1 5377   4.529  14.403  10.342  0.1247  0.0858  0.3311
  337loPI    C2 5378   4.429  14.062  10.525  0.1356  0.0285  0.2307
  337loPI    C3 5379   4.185  14.378  10.545  0.0929 -0.0064  0.2663
  337loPI   PO4 5380   4.553  14.389  10.143 -0.1990  0.2125 -0.2785
  337loPI   GL1 5381   4.434  14.321   9.715 -0.0019 -0.2637 -0.1969
  337loPI   GL2 5382   4.566  14.003   9.670 -0.1814  0.0244  0.0849
  337loPI   C1A 5383   4.299  14.398   9.307 -0.0654  0.0040 -0.0117
  337loPI   C2A 5384   4.325  14.296   8.840 -0.0106 -0.0707 -0.1488
  337loPI   C3A 5385   4.358  14.494   8.419 -0.2613 -0.4333 -0.0095
  337loPI   C4A 5386   4.419  14.559   7.965 -0.2499  0.1349 -0.1840
  337loPI   C5A 5387   4.295  14.929   7.659  0.0239 -0.2514  0.0370
  337loPI   C6A 5388   4.535  15.148   7.319 -0.1413 -0.0881  0.4248
  337loPI   C1B 5389   4.610  14.007   9.196 -0.1136  0.1776 -0.2289
  337loPI   C2B 5390   4.720  14.060   8.774 -0.0977 -0.0480  0.0910
  337loPI   C3B 5391   4.630  14.050   8.374 -0.3898  0.3635  0.2280
  337loPI   C4B 5392   4.636  14.004   7.921 -0.1476  0.0304  0.0736
  338loPI    C1 5393   2.001  15.933  10.274  0.0026 -0.0254  0.2777
  338loPI    C2 5394   1.814  15.634  10.463 -0.2732  0.0208  0.0833
  338loPI    C3 5395   1.730  16.013  10.557 -0.0076  0.0408  0.2493
  338loPI   PO4 5396   2.000  15.987   9.996  0.0194  0.1589  0.1153
  338loPI   GL1 5397   1.676  16.079   9.649  0.0566 -0.1769 -0.1471
  338loPI   GL2 5398   1.323  16.013   9.780  0.0353 -0.1330 -0.0100
  338loPI   C1A 5399   1.643  15.925   9.181  0.1945  0.0934  0.1106
  338loPI   C2A 5400   1.399  15.904   8.808 -0.2553  0.1593 -0.0244
  338loPI   C3A 5401   1.753  15.801   8.498 -0.1338 -0.1299  0.1095
  338loPI   C4A 5402   1.926  15.495   8.272 -0.0656  0.1360 -0.2398
  338loPI   C5A 5403   1.661  15.228   7.947 -0.0226 -0.2325  0.0397
  338loPI   C6A 5404   1.256  15.049   8.167 -0.1042  0.2826  0.0545
  338loPI   C1B 5405   1.210  16.121   9.419 -0.1745 -0.0752  0.2097
  338loPI   C2B 5406   1.037  16.178   9.006 -0.0289 -0.1675  0.1521
  338loPI   C3B 5407   0.979  16.219   8.654 -0.1637  0.0483 -0.2070
  338loPI   C4B 5408   1.113  16.010   8.264  0.0240 -0.0461 -0.1309
  339loPI    C1 5409  16.461  14.590  10.321 -0.1915 -0.1874  0.1216
  339loPI    C2 5410  16.262  14.449  10.004  0.3535 -0.0761 -0.2832
  339loPI    C3 5411  16.536  14.221  10.186  0.3146 -0.0015 -0.1291
  339loPI   PO4 5412  16.217  14.758  10.410  0.2276  0.1906 -0.1500
  339loPI   GL1 5413  15.799  14.794  10.106 -0.1300  0.1121 -0.0825
  339loPI   GL2 5414  15.896  15.072  10.224 -0.1352  0.2110 -0.4335
  339loPI   C1A 5415  15.790  14.821   9.630  0.2488  0.1214  0.0351
  339loPI   C2A 5416  15.761  14.678   9.221  0.1296 -0.1890 -0.1289
  339loPI   C3A 5417  15.729  14.436   8.879 -0.1390  0.1230 -0.1044
  339loPI   C4A 5418  15.728  14.400   8.546 -0.1319  0.0663 -0.2847
  339loPI   C5A 5419  15.731  14.138   8.120 -0.0984 -0.0596 -0.3019
  339loPI   C6A 5420  15.789  13.900   7.669  0.2418 -0.0097 -0.0881
  339loPI   C1B 5421  15.901  15.282   9.866  0.1695  0.0779  0.2254
  339loPI   C2B 5422  15.933  15.284   9.462  0.1960  0.1548 -0.4795
  339loPI   C3B 5423  15.963  15.083   9.006  0.2040 -0.5439 -0.0602
  339loPI   C4B 5424  15.795  14.913   8.770  0.1127  0.1090  0.3530
  340loPI    C1 5425  10.244   4.880  10.898  0.0524 -0.1653  0.1004
  340loPI    C2 5426  10.578   4.952  11.106  0.1425 -0.1881 -0.0350
  340loPI    C3 5427  10.243   4.843  11.296  0.2124 -0.1676  0.1011
  340loPI   PO4 5428  10.313   4.751  10.687  0.0862  0.1479 -0.3104
  340loPI   GL1 5429  10.070   4.668  10.316 -0.1454 -0.1721 -0.1235
  340loPI   GL2 5430   9.834   4.464  10.244 -0.0514  0.0494  0.0174
  340loPI   C1A 5431  10.196   4.583   9.946  0.0977 -0.2858  0.0827
  340loPI   C2A 5432  10.115   4.651   9.539  0.1394 -0.1073 -0.4760
  340loPI   C3A 5433  10.227   4.575   9.155 -0.0291 -0.1771 -0.2284
  340loPI   C4A 5434  10.175   4.682   8.682 -0.1338  0.0776  0.1664
  340loPI   C5A 5435  10.296   4.929   8.336  0.0092 -0.0676 -0.2274
  340loPI   C6A 5436  10.677   4.949   8.047 -0.2260  0.0698  0.0907
  340loPI   C1B 5437   9.700   4.637   9.913 -0.1738  0.0529 -0.2133
  340loPI   C2B 5438   9.647   4.621   9.449  0.1793 -0.0255  0.0297
  340loPI   C3B 5439   9.759   4.694   8.971 -0.2609 -0.0095  0.0289
  340loPI   C4B 5440   9.639   4.713   8.651  0.0377  0.2463  0.0228
  341loPI    C1 5441  18.259   8.396  10.804  0.0652 -0.0367  0.0272
  341loPI    C2 5442  18.532   8.543  11.057  0.1070 -0.0443 -0.0136
  341loPI    C3 5443  18.616   8.220  10.836  0.0666 -0.0443 -0.0292
  341loPI   PO4 5444  18.211   8.594  10.626 -0.0043  0.1175  0.0308
  341loPI   GL1 5445  18.255   8.659  10.248 -0.2269  0.1019  0.0246
  341loPI   GL2 5446  18.505   8.874  10.172  0.0645 -0.0754  0.0037
  341loPI   C1A 5447  18.486   8.498   9.889 -0.0182  0.0728 -0.0322
  341loPI   C2A 5448  18.527   8.354   9.478  0.0031  0.2280  0.3961
  341loPI   C3A 5449  18.541   8.395   9.098 -0.0748  0.2373  0.0215
  341loPI   C4A 5450  18.326   8.621   8.742  0.1874  0.0133 -0.1076
  341loPI   C5A 5451  18.570   8.742   8.415  0.2967 -0.1540  0.2095
  341loPI   C6A 5452  18.830   8.612   8.091  0.1588  0.1421  0.1949
  341loPI   C1B 5453  18.393   8.962   9.713 -0.1090 -0.0648 -0.1922
  341loPI   C2B 5454  18.455   8.837   9.337 -0.1742  0.0313  0.1739
  341loPI   C3B 5455  18.521   9.076   9.008 -0.0137  0.0322 -0.2659
  341loPI   C4B 5456  18.472   9.383   8.700 -0.1074  0.2705 -0.2049
  342loPI    C1 5457   5.354   1.343  10.639 -0.0907  0.0879  0.2052
  342loPI    C2 5458   4.983   1.221  10.724 -0.0945  0.0161  0.0878
  342loPI    C3 5459   5.179   1.459  10.979 -0.2748  0.1708  0.0839
  342loPI   PO4 5460   5.342   1.330  10.396 -0.1717 -0.3478 -0.0708
  342loPI   GL1 5461   5.467   1.196   9.989 -0.0514 -0.1925  0.1543
  342loPI   GL2 5462   5.764   1.275  10.040 -0.0162 -0.4883 -0.0486
  342loPI   C1A 5463   5.335   1.087   9.586 -0.3183  0.0141 -0.0816
  342loPI   C2A 5464   5.295   1.069   9.204 -0.0685 -0.0934  0.0878
  342loPI   C3A 5465   5.273   0.977   8.708 -0.1440 -0.0201 -0.0436
  342loPI   C4A 5466   5.183   1.025   8.246 -0.3225 -0.2642 -0.2530
  342loPI   C5A 5467   4.902   0.929   7.950 -0.2149 -0.2402  0.0405
  342loPI   C6A 5468   4.453   0.810   7.640  0.1305  0.0066 -0.4696
  342loPI   C1B 5469   5.876   1.104   9.673  0.3069  0.0930 -0.1071
  342loPI   C2B 5470   5.796   0.984   9.253  0.0606  0.2906 -0.0070
  342loPI   C3B 5471   5.738   0.979   8.842 -0.1058  0.0122  0.0784
  342loPI   C4B 5472   5.661   1.030   8.395 -0.0244  0.1205  0.0820
  343loPI    C1 5473   2.477   0.610  10.361 -0.2148  0.0890  0.0437
  343loPI    C2 5474   2.618   0.744  10.711  0.2310 -0.1288 -0.0459
  343loPI    C3 5475   2.418   0.398  10.695  0.1064 -0.0601  0.0090
  343loPI   PO4 5476   2.303   0.688  10.234 -0.1627  0.1565 -0.1190
  343loPI   GL1 5477   2.105   0.789   9.895  0.1134 -0.1692 -0.0769
  343loPI   GL2 5478   2.257   1.088   9.923 -0.1691  0.2840 -0.1306
  343loPI   C1A 5479   2.252   0.811   9.344 -0.1120  0.1645  0.0589
  343loPI   C2A 5480   2.086   0.904   8.939 -0.1721  0.1003  0.0828
  343loPI   C3A 5481   2.125   0.888   8.450 -0.2958  0.1096 -0.0635
  343loPI   C4A 5482   2.199   0.953   8.060 -0.2316  0.0938  0.1218
  343loPI   C5A 5483   2.317   0.835   7.677  0.1649 -0.0749  0.2274
  343loPI   C6A 5484   2.585   0.911   7.469 -0.2042 -0.0416 -0.2880
  343loPI   C1B 5485   2.158   1.223   9.591  0.1742  0.1233  0.1038
  343loPI   C2B 5486   1.881   1.426   9.337  0.3475 -0.3015 -0.2530
  343loPI   C3B 5487   1.835   1.326   8.907 -0.0379  0.0819 -0.2038
  343loPI   C4B 5488   1.911   1.407   8.459  0.0131 -0.0845  0.2416
  344loPI    C1 5489   7.019  12.667   9.771  0.1569 -0.1987 -0.1905
  344loPI    C2 5490   7.270  12.459  10.003  0.0316 -0.0564  0.0770
  344loPI    C3 5491   7.002  12.705  10.169 -0.0218  0.0921 -0.2235
  344loPI   PO4 5492   7.143  12.585   9.494 -0.1594  0.1883 -0.1729
  344loPI   GL1 5493   7.064  12.373   9.152 -0.0082 -0.0022 -0.0294
  344loPI   GL2 5494   7.065  12.755   9.023  0.0092  0.2459 -0.0327
  344loPI   C1A 5495   7.385  12.315   8.785  0.1075 -0.1598  0.0871
  344loPI   C2A 5496   7.639  12.038   8.614  0.2921 -0.1490  0.2139
  344loPI   C3A 5497   7.836  11.898   8.273  0.0048 -0.2860 -0.0458
  344loPI   C4A 5498   8.050  11.742   7.882  0.1072  0.0140 -0.1329
  344loPI   C5A 5499   8.165  11.649   7.489 -0.2283  0.0770  0.2072
  344loPI   C6A 5500   8.022  11.623   7.005 -0.0375 -0.1874 -0.1384
  344loPI   C1B 5501   7.179  12.772   8.658 -0.3397 -0.2508 -0.2047
  344loPI   C2B 5502   7.232  12.726   8.210  0.1852 -0.1261 -0.0295
  344loPI   C3B 5503   7.215  12.354   7.900 -0.0273  0.0821 -0.0351
  344loPI   C4B 5504   6.871  11.975   7.833  0.1332 -0.0715 -0.1739
  345loPI    C1 5505   8.612  18.192  10.409 -0.3283 -0.0349  0.0380
  345loPI    C2 5506   8.766  18.167  10.778 -0.1302 -0.1514 -0.0509
  345loPI    C3 5507   8.370  18.171  10.727 -0.1589 -0.0457  0.1685
  345loPI   PO4 5508   8.696  18.273  10.278 -0.0981  0.0914 -0.4504
  345loPI   GL1 5509   9.018  18.207  10.042  0.3311  0.3523  0.0617
  345loPI   GL2 5510   8.925  18.522   9.939 -0.0855 -0.2128  0.0455
  345loPI   C1A 5511   8.930  18.219   9.557 -0.2199 -0.2315 -0.1477
  345loPI   C2A 5512   8.866  18.309   9.125 -0.1379 -0.0063 -0.5364
  345loPI   C3A 5513   9.085  18.518   8.801  0.2443  0.0803  0.0555
  345loPI   C4A 5514   9.393  18.626   8.570  0.2010 -0.0105 -0.0391
  345loPI   C5A 5515   9.703  18.691   8.247  0.3134  0.1026  0.0179
  345loPI   C6A 5516   9.968  18.635   7.881 -0.0210  0.1001  0.1843
  345loPI   C1B 5517   9.102  18.744   9.556  0.2667 -0.2760 -0.2539
  345loPI   C2B 5518   9.146  18.847   9.207 -0.2667  0.3647  0.0694
  345loPI   C3B 5519   9.051  19.030   8.702 -0.1776  0.1050 -0.1115
  345loPI   C4B 5520   9.077  18.918   8.261 -0.0726 -0.0794 -0.1547
  346loPI    C1 5521   7.703  12.323  10.263  0.1854  0.1728  0.0835
  346loPI    C2 5522   7.415  12.099  10.426  0.1345 -0.0705 -0.3265
  346loPI    C3 5523   7.430  12.491  10.502 -0.1709 -0.0942 -0.1250
  346loPI   PO4 5524   7.773  12.205   9.975  0.1144 -0.1559  0.0290
  346loPI   GL1 5525   7.846  12.045   9.564  0.1817  0.4059 -0.0070
  346loPI   GL2 5526   7.998  12.334   9.413  0.2096 -0.1796 -0.1288
  346loPI   C1A 5527   7.608  11.988   9.222 -0.0342 -0.1757  0.3126
  346loPI   C2A 5528   7.340  11.894   9.005 -0.0562 -0.1807  0.1164
  346loPI   C3A 5529   7.217  11.766   8.609  0.1081  0.2220  0.4027
  346loPI   C4A 5530   7.369  11.747   8.245 -0.0407 -0.0951  0.1419
  346loPI   C5A 5531   7.435  11.929   8.001 -0.2009 -0.1234  0.0235
  346loPI   C6A 5532   7.760  12.300   7.768  0.1620 -0.1860  0.1407
  346loPI   C1B 5533   7.959  12.355   8.954 -0.0434  0.1426  0.1076
  346loPI   C2B 5534   8.040  12.375   8.554 -0.1917 -0.0033  0.3346
  346loPI   C3B 5535   8.146  12.446   8.132 -0.2200 -0.0744 -0.0936
  346loPI   C4B 5536   8.215  12.728   7.818  0.2247 -0.0648 -0.1440
  347loPI    C1 5537  13.681  12.305  10.457  0.0150  0.0791  0.0895
  347loPI    C2 5538  13.864  11.971  10.579  0.1293  0.1858  0.2142
  347loPI    C3 5539  14.005  12.328  10.690  0.0114  0.2764  0.0769
  347loPI   PO4 5540  13.657  12.241  10.148 -0.2071 -0.1263 -0.2993
  347loPI   GL1 5541  13.523  12.081   9.714  0.0102 -0.1072  0.1579
  347loPI   GL2 5542  13.680  11.793   9.697  0.3737  0.3038  0.2652
  347loPI   C1A 5543  13.522  12.017   9.273 -0.0066  0.1408 -0.1527
  347loPI   C2A 5544  13.730  11.896   9.037  0.0534 -0.2135  0.2182
  347loPI   C3A 5545  14.145  11.952   9.003 -0.0645  0.2626  0.2383
  347loPI   C4A 5546  14.487  12.089   8.694 -0.1090 -0.0276 -0.2367
  347loPI   C5A 5547  14.491  12.240   8.368 -0.2761  0.3458  0.1961
  347loPI   C6A 5548  14.578  12.362   7.965 -0.3059 -0.1532 -0.1079
  347loPI   C1B 5549  13.999  11.948   9.498 -0.0376  0.2028  0.4353
  347loPI   C2B 5550  13.908  12.378   9.213 -0.0472 -0.1111 -0.1413
  347loPI   C3B 5551  13.917  12.321   8.827 -0.0305 -0.4359  0.3357
  347loPI   C4B 5552  14.058  12.329   8.539  0.1460  0.3184  0.0521
  348loPI    C1 5553  15.227   6.932  10.292  0.1346  0.3074  0.0527
  348loPI    C2 5554  14.844   6.866  10.389  0.1102  0.1491 -0.1444
  348loPI    C3 5555  15.077   7.083  10.631 -0.0441  0.0608  0.0867
  348loPI   PO4 5556  15.144   6.922   9.975 -0.0691 -0.0681 -0.1080
  348loPI   GL1 5557  15.007   6.777   9.512  0.0962 -0.1821  0.1030
  348loPI   GL2 5558  14.675   6.810   9.468 -0.0075  0.0870  0.5351
  348loPI   C1A 5559  15.255   6.767   9.076 -0.0182 -0.1842 -0.3268
  348loPI   C2A 5560  15.455   6.723   8.697  0.0772 -0.1394 -0.0749
  348loPI   C3A 5561  15.313   6.634   8.279  0.1552 -0.1923  0.0576
  348loPI   C4A 5562  15.101   6.557   7.925 -0.3912  0.2462 -0.0150
  348loPI   C5A 5563  14.725   6.500   7.713  0.3918  0.0240  0.0407
  348loPI   C6A 5564  14.726   6.285   7.353  0.1938 -0.0994 -0.4173
  348loPI   C1B 5565  14.485   6.902   9.015 -0.1254 -0.1021  0.0392
  348loPI   C2B 5566  14.551   6.759   8.536 -0.0596 -0.1149 -0.1328
  348loPI   C3B 5567  14.674   6.788   8.137  0.0121 -0.1253 -0.2602
  348loPI   C4B 5568  14.749   7.064   7.810  0.3544  0.0074  0.1262
  349loPI    C1 5569  16.459   9.086  10.585  0.0077 -0.1197  0.1088
  349loPI    C2 5570  16.711   9.101  10.896  0.1489  0.4358 -0.0230
  349loPI    C3 5571  16.347   9.263  10.926  0.0086  0.1255 -0.0165
  349loPI   PO4 5572  16.654   9.210  10.365 -0.0152  0.4081 -0.0761
  349loPI   GL1 5573  16.866   9.263  10.032 -0.1383  0.1892  0.2005
  349loPI   GL2 5574  16.620   9.471   9.937  0.2009 -0.0991  0.0043
  349loPI   C1A 5575  16.798   9.228   9.554  0.0733 -0.3711 -0.1074
  349loPI   C2A 5576  16.900   9.057   9.236  0.1149 -0.1168  0.0268
  349loPI   C3A 5577  16.967   9.082   8.827  0.1340 -0.1901 -0.0755
  349loPI   C4A 5578  16.941   8.992   8.410 -0.1153  0.4457  0.1560
  349loPI   C5A 5579  17.064   8.715   8.095  0.1730  0.1800 -0.2622
  349loPI   C6A 5580  16.783   8.471   7.957  0.1830 -0.1674  0.1774
  349loPI   C1B 5581  16.698   9.716   9.502  0.2442 -0.2717 -0.1437
  349loPI   C2B 5582  16.613   9.484   9.091 -0.0262 -0.2827  0.2130
  349loPI   C3B 5583  16.641   9.408   8.558 -0.0172  0.1442  0.0219
  349loPI   C4B 5584  16.436   9.323   8.257 -0.1007 -0.1432 -0.1586
  350loPI    C1 5585  18.051  16.787  10.482 -0.1950 -0.0072 -0.1301
  350loPI    C2 5586  17.794  17.092  10.499  0.0164  0.1593  0.1686
  350loPI    C3 5587  17.960  16.952  10.834  0.1785 -0.0645 -0.0022
  350loPI   PO4 5588  18.035  16.724  10.256 -0.0823  0.0495  0.0259
  350loPI   GL1 5589  18.206  16.812   9.838  0.1422 -0.1088 -0.1702
  350loPI   GL2 5590  18.336  17.124   9.680 -0.1496  0.0501 -0.1465
  350loPI   C1A 5591  17.879  16.781   9.494  0.0932 -0.1591  0.1212
  350loPI   C2A 5592  17.916  16.788   9.063 -0.3960 -0.0075  0.1568
  350loPI   C3A 5593  17.650  16.688   8.722  0.3477 -0.0087 -0.3987
  350loPI   C4A 5594  17.378  16.628   8.414 -0.0963  0.0364 -0.1681
  350loPI   C5A 5595  17.124  16.272   8.148  0.2826 -0.0259 -0.0507
  350loPI   C6A 5596  17.193  15.898   8.056  0.2686  0.0459 -0.0408
  350loPI   C1B 5597  18.335  17.098   9.153 -0.0051  0.0695 -0.2117
  350loPI   C2B 5598  18.215  17.196   8.743  0.3554  0.2566 -0.0533
  350loPI   C3B 5599  18.080  16.956   8.569  0.2338  0.0872  0.1637
  350loPI   C4B 5600  17.820  16.808   8.250  0.0446 -0.2340  0.3474
  351loPI    C1 5601   4.912   2.819  10.680  0.2675 -0.3023 -0.0283
  351loPI    C2 5602   4.861   2.867  11.074  0.0376  0.1041 -0.1017
  351loPI    C3 5603   5.229   2.817  10.924  0.1097 -0.2607  0.1803
  351loPI   PO4 5604   4.814   2.676  10.560 -0.1938  0.5726 -0.0531
  351loPI   GL1 5605   4.821   2.601  10.092  0.0670 -0.1700 -0.1016
  351loPI   GL2 5606   5.002   2.946   9.970 -0.2263 -0.3086 -0.0888
  351loPI   C1A 5607   4.956   2.556   9.646 -0.0076  0.4116 -0.0413
  351loPI   C2A 5608   4.886   2.480   9.246 -0.0824 -0.3605 -0.1119
  351loPI   C3A 5609   4.875   2.313   8.818 -0.0513 -0.1605  0.1875
  351loPI   C4A 5610   4.788   2.388   8.461 -0.1782  0.2147  0.1535
  351loPI   C5A 5611   4.677   2.445   8.044  0.0764 -0.0420 -0.0048
  351loPI   C6A 5612   4.687   2.814   7.732  0.0268 -0.1930 -0.0800
  351loPI   C1B 5613   4.932   3.165   9.615  0.0601  0.0273 -0.2389
  351loPI   C2B 5614   4.942   3.043   9.204  0.0037  0.1442  0.1158
  351loPI   C3B 5615   4.995   2.789   8.793 -0.2990  0.0969 -0.0191
  351loPI   C4B 5616   5.176   2.689   8.447 -0.1155  0.1215 -0.1737
  352loPI    C1 5617  14.960   2.478  10.588 -0.0330  0.3816  0.0609
  352loPI    C2 5618  14.788   2.198  10.815  0.3041  0.2246  0.1287
  352loPI    C3 5619  14.665   2.578  10.839 -0.1260  0.0945  0.0692
  352loPI   PO4 5620  14.952   2.377  10.334  0.5207  0.1607  0.2206
  352loPI   GL1 5621  15.251   2.192  10.055 -0.1675 -0.0038 -0.0687
  352loPI   GL2 5622  15.453   1.983   9.915 -0.0150 -0.0621 -0.0384
  352loPI   C1A 5623  15.074   2.136   9.665  0.1895 -0.1928 -0.0830
  352loPI   C2A 5624  15.023   1.988   9.339  0.2579 -0.2240  0.1068
  352loPI   C3A 5625  15.045   2.059   8.861  0.3833  0.1761 -0.1255
  352loPI   C4A 5626  15.075   1.987   8.467 -0.0286  0.1189  0.0761
  352loPI   C5A 5627  15.018   1.893   8.069  0.0919  0.3769 -0.1524
  352loPI   C6A 5628  15.103   1.437   7.826  0.0110  0.1738  0.2122
  352loPI   C1B 5629  15.511   1.848   9.532 -0.0611 -0.0519 -0.4078
  352loPI   C2B 5630  15.436   1.845   9.155  0.1613  0.1970 -0.1537
  352loPI   C3B 5631  15.427   1.719   8.714  0.2592 -0.1816  0.0143
  352loPI   C4B 5632  15.381   1.596   8.240 -0.0920  0.0960 -0.4501
  353loPI    C1 5633   7.136   2.029  10.201 -0.0050  0.2005  0.0766
  353loPI    C2 5634   6.981   1.834  10.514 -0.0506  0.1902  0.0475
  353loPI    C3 5635   7.371   1.919  10.505 -0.0051 -0.0187 -0.0009
  353loPI   PO4 5636   7.037   2.219  10.121  0.0548 -0.1051  0.1190
  353loPI   GL1 5637   7.303   2.299   9.759 -0.2147 -0.0436 -0.0692
  353loPI   GL2 5638   7.453   2.020   9.675 -0.0361  0.1353 -0.1187
  353loPI   C1A 5639   7.170   2.460   9.339  0.1556  0.3300  0.1522
  353loPI   C2A 5640   7.252   2.426   8.907  0.1585  0.1860  0.0055
  353loPI   C3A 5641   7.086   2.292   8.472 -0.3717 -0.0613 -0.0023
  353loPI   C4A 5642   7.100   2.180   8.132 -0.0732 -0.2068  0.1275
  353loPI   C5A 5643   7.523   2.169   7.864  0.0739  0.1122  0.2078
  353loPI   C6A 5644   7.710   2.162   7.510 -0.0636 -0.0598 -0.0028
  353loPI   C1B 5645   7.413   2.021   9.224 -0.0498 -0.1505  0.1069
  353loPI   C2B 5646   7.399   2.011   8.689 -0.4860  0.0666  0.2203
  353loPI   C3B 5647   7.516   1.777   8.240 -0.1542 -0.0431 -0.3871
  353loPI   C4B 5648   7.759   1.702   7.783 -0.2488 -0.3784 -0.3963
  354loPI    C1 5649  10.060   2.459  10.784 -0.2906  0.1214  0.0302
  354loPI    C2 5650   9.979   2.668  11.116  0.0445  0.0524  0.1596
  354loPI    C3 5651  10.067   2.278  11.141 -0.1082  0.0040 -0.0314
  354loPI   PO4 5652   9.871   2.474  10.575  0.0267  0.0132  0.1139
  354loPI   GL1 5653   9.977   2.600  10.153 -0.1317  0.2067 -0.0602
  354loPI   GL2 5654  10.278   2.756  10.011 -0.1232  0.2060  0.0994
  354loPI   C1A 5655   9.653   2.783   9.745 -0.4926  0.0576  0.0971
  354loPI   C2A 5656   9.698   2.808   9.245  0.2739 -0.1102  0.1138
  354loPI   C3A 5657   9.581   2.907   8.776  0.0576 -0.3380 -0.1086
  354loPI   C4A 5658   9.560   3.001   8.427 -0.0739  0.2185 -0.0524
  354loPI   C5A 5659   9.704   2.829   7.989  0.0898  0.0496  0.0061
  354loPI   C6A 5660   9.714   2.568   7.625  0.0118 -0.2659 -0.0785
  354loPI   C1B 5661  10.147   2.830   9.564 -0.0263 -0.0501  0.3652
  354loPI   C2B 5662  10.164   2.850   9.108 -0.1867 -0.0847 -0.1380
  354loPI   C3B 5663  10.123   2.766   8.694  0.2752  0.1175  0.1366
  354loPI   C4B 5664  10.136   2.808   8.301 -0.0267 -0.1115 -0.1595
  355loPI    C1 5665   4.207  10.502  10.563  0.2541  0.1636  0.1332
  355loPI    C2 5666   4.596  10.460  10.645  0.2112 -0.2857  0.1294
  355loPI    C3 5667   4.325  10.427  10.938  0.1765  0.1171  0.1486
  355loPI   PO4 5668   4.150  10.309  10.346 -0.1993 -0.2050 -0.1175
  355loPI   GL1 5669   4.115  10.199   9.917  0.1974 -0.1867 -0.0168
  355loPI   GL2 5670   4.302  10.127   9.720 -0.0187 -0.3596 -0.2417
  355loPI   C1A 5671   3.739  10.186   9.766  0.1946 -0.2961 -0.2544
  355loPI   C2A 5672   3.609  10.124   9.394 -0.1117 -0.1031 -0.3396
  355loPI   C3A 5673   3.525  10.145   8.927  0.2561 -0.1920 -0.1400
  355loPI   C4A 5674   3.208   9.879   8.634  0.0000 -0.1411 -0.3489
  355loPI   C5A 5675   3.081   9.610   8.450 -0.0633  0.0217  0.1834
  355loPI   C6A 5676   2.928   9.245   8.231  0.1334 -0.2743  0.1167
  355loPI   C1B 5677   4.175  10.194   9.331  0.4703 -0.0324  0.2130
  355loPI   C2B 5678   4.056  10.101   8.901 -0.5360  0.0360 -0.2496
  355loPI   C3B 5679   3.879   9.942   8.613 -0.3486 -0.2346 -0.0387
  355loPI   C4B 5680   3.647   9.750   8.441  0.0811  0.0118 -0.2040
  356loPI    C1 5681  17.101   3.200  10.287  0.1523  0.2669 -0.0485
  356loPI    C2 5682  16.967   3.502  10.513  0.1175  0.1378  0.1054
  356loPI    C3 5683  17.197   3.218  10.675 -0.0313 -0.0375  0.0139
  356loPI   PO4 5684  17.278   3.287  10.089  0.2272 -0.1507 -0.0035
  356loPI   GL1 5685  17.477   3.188   9.752  0.0542 -0.3354 -0.1445
  356loPI   GL2 5686  17.490   2.857   9.608 -0.0282 -0.1367 -0.1012
  356loPI   C1A 5687  17.564   3.402   9.457  0.1112  0.0682  0.0858
  356loPI   C2A 5688  17.398   3.466   9.072 -0.1636 -0.0822 -0.1255
  356loPI   C3A 5689  17.232   3.431   8.627 -0.0557  0.3048  0.0892
  356loPI   C4A 5690  17.092   3.231   8.263 -0.0340  0.0475  0.0571
  356loPI   C5A 5691  16.969   2.998   7.936 -0.0653 -0.1787  0.2037
  356loPI   C6A 5692  16.655   2.832   7.803  0.0244  0.0667  0.2260
  356loPI   C1B 5693  17.338   2.999   9.275 -0.0364  0.0477 -0.1759
  356loPI   C2B 5694  17.231   2.962   8.919 -0.0475 -0.3714 -0.2595
  356loPI   C3B 5695  17.197   2.923   8.616 -0.0376  0.2366 -0.1451
  356loPI   C4B 5696  17.279   2.754   8.229 -0.0941 -0.1468 -0.0290
  357loPI    C1 5697  16.002  17.415  10.961 -0.1471 -0.0562 -0.2299
  357loPI    C2 5698  15.942  17.644  11.283  0.2828  0.0354 -0.2085
  357loPI    C3 5699  15.887  17.249  11.305  0.0559  0.0713 -0.0983
  357loPI   PO4 5700  15.980  17.633  10.725 -0.0270  0.1515  0.2660
  357loPI   GL1 5701  15.948  17.421  10.236 -0.0218 -0.2072  0.1320
  357loPI   GL2 5702  16.045  17.166  10.061  0.0370 -0.2500 -0.3856
  357loPI   C1A 5703  15.900  17.709   9.881 -0.4431  0.1190 -0.0947
  357loPI   C2A 5704  15.870  17.598   9.468  0.1123  0.1850 -0.1504
  357loPI   C3A 5705  15.648  17.840   9.119 -0.1772  0.0862  0.3463
  357loPI   C4A 5706  15.515  18.286   9.129 -0.2753  0.1099  0.1460
  357loPI   C5A 5707  15.137  18.490   8.725  0.0642 -0.2685 -0.1092
  357loPI   C6A 5708  14.761  18.704   8.717  0.0547  0.0333 -0.3581
  357loPI   C1B 5709  15.901  17.075   9.677  0.1373 -0.2705  0.0955
  357loPI   C2B 5710  15.834  17.099   9.158  0.0614  0.2755 -0.1690
  357loPI   C3B 5711  15.769  17.145   8.706  0.0417 -0.0919 -0.0103
  357loPI   C4B 5712  15.764  17.563   8.515  0.2090  0.0768 -0.2581
  358loPI    C1 5713   1.926   8.068  11.030  0.0694  0.0074 -0.0463
  358loPI    C2 5714   2.025   7.760  11.266  0.0179  0.0184 -0.0101
  358loPI    C3 5715   2.299   8.037  11.173  0.1031 -0.1142 -0.1592
  358loPI   PO4 5716   1.911   7.966  10.725 -0.4003 -0.2419  0.0481
  358loPI   GL1 5717   1.916   7.987  10.328 -0.0765  0.2615  0.2230
  358loPI   GL2 5718   1.983   8.316  10.256 -0.0783  0.1561  0.2504
  358loPI   C1A 5719   2.275   7.782  10.120 -0.0512 -0.2766 -0.1618
  358loPI   C2A 5720   2.420   7.788   9.734  0.1546 -0.1007  0.1102
  358loPI   C3A 5721   2.437   7.685   9.294 -0.3049  0.2242 -0.0317
  358loPI   C4A 5722   2.486   7.621   8.849 -0.0184 -0.0059  0.2104
  358loPI   C5A 5723   2.199   7.714   8.553  0.4019  0.3265  0.2077
  358loPI   C6A 5724   2.144   8.056   8.289  0.1048 -0.2082  0.0127
  358loPI   C1B 5725   1.982   8.063   9.861 -0.1707 -0.3064  0.0128
  358loPI   C2B 5726   2.004   7.994   9.414 -0.0861 -0.1841 -0.2034
  358loPI   C3B 5727   1.940   8.031   8.974 -0.3113 -0.1698  0.2660
  358loPI   C4B 5728   1.833   8.101   8.642  0.0850  0.1385  0.0346
  359loPI    C1 5729  16.004   8.881  10.550 -0.1362 -0.2080 -0.1330
  359loPI    C2 5730  16.000   8.482  10.572  0.0343 -0.2022  0.0297
  359loPI    C3 5731  15.853   8.700  10.873 -0.2201 -0.1420 -0.1348
  359loPI   PO4 5732  16.018   8.880  10.270 -0.0267 -0.0258  0.1232
  359loPI   GL1 5733  16.078   8.859   9.867 -0.2237 -0.1386  0.0274
  359loPI   GL2 5734  16.366   9.034   9.950 -0.1187  0.3147 -0.1712
  359loPI   C1A 5735  16.001   8.696   9.532 -0.0928 -0.1337 -0.0744
  359loPI   C2A 5736  15.900   8.764   9.096  0.1830  0.0531 -0.1544
  359loPI   C3A 5737  15.729   8.795   8.750 -0.1026 -0.1060  0.1309
  359loPI   C4A 5738  15.672   8.674   8.433  0.1560 -0.0468 -0.0125
  359loPI   C5A 5739  15.927   8.749   8.029  0.0273  0.0152  0.1119
  359loPI   C6A 5740  16.135   8.302   7.941  0.0549  0.0881 -0.0115
  359loPI   C1B 5741  16.304   9.259   9.481 -0.0018  0.3058 -0.0957
  359loPI   C2B 5742  16.106   9.291   9.050 -0.0802 -0.0855  0.1641
  359loPI   C3B 5743  15.970   9.340   8.640  0.0050 -0.1018 -0.1350
  359loPI   C4B 5744  15.878   9.243   8.168 -0.1562  0.0477  0.1762
  360loPI    C1 5745   8.039  13.238   9.927 -0.2041  0.2775 -0.1000
  360loPI    C2 5746   8.016  13.107  10.304 -0.1051 -0.0363 -0.1994
  360loPI    C3 5747   8.090  13.493  10.231  0.2164 -0.0350  0.1036
  360loPI   PO4 5748   7.879  13.008   9.749  0.2313 -0.1621  0.0897
  360loPI   GL1 5749   7.826  12.976   9.305 -0.1936 -0.3289  0.6031
  360loPI   GL2 5750   8.087  12.815   9.180 -0.0847  0.0752 -0.0631
  360loPI   C1A 5751   7.856  13.249   9.010 -0.2508 -0.1153 -0.0665
  360loPI   C2A 5752   7.806  13.406   8.548 -0.1232 -0.0854  0.0937
  360loPI   C3A 5753   7.729  13.446   8.146 -0.1275 -0.0829  0.1210
  360loPI   C4A 5754   7.634  13.418   7.777 -0.0897  0.0138  0.1773
  360loPI   C5A 5755   7.385  13.669   7.501 -0.1813 -0.1107 -0.2409
  360loPI   C6A 5756   7.225  13.730   7.068 -0.1643 -0.0204  0.0009
  360loPI   C1B 5757   8.386  12.764   8.702 -0.1884 -0.0207  0.2152
  360loPI   C2B 5758   8.571  12.690   8.264  0.1582  0.0588  0.1245
  360loPI   C3B 5759   8.691  12.568   7.849 -0.1852  0.1243 -0.0427
  360loPI   C4B 5760   8.822  12.252   7.714  0.2131  0.3356  0.1478
  361loPI    C1 5761   6.026   4.423  10.545 -0.1531 -0.1073  0.1178
  361loPI    C2 5762   6.335   4.634  10.685  0.0191 -0.1941 -0.1245
  361loPI    C3 5763   6.055   4.499  10.936  0.1132 -0.0121  0.0817
  361loPI   PO4 5764   6.151   4.468  10.272  0.1657  0.0112 -0.2153
  361loPI   GL1 5765   6.250   4.230  10.045  0.3764 -0.2640  0.0796
  361loPI   GL2 5766   6.562   4.297   9.929  0.2649  0.3333  0.0814
  361loPI   C1A 5767   6.072   4.227   9.634 -0.2032  0.1048 -0.2049
  361loPI   C2A 5768   6.043   4.237   9.156 -0.0688 -0.0517  0.1115
  361loPI   C3A 5769   6.055   3.885   8.653  0.1585 -0.2632 -0.1990
  361loPI   C4A 5770   6.038   3.727   8.281  0.0488 -0.0643  0.2654
  361loPI   C5A 5771   6.171   3.889   7.885 -0.3337 -0.3912  0.1666
  361loPI   C6A 5772   6.158   3.769   7.459  0.1580 -0.2744 -0.1584
  361loPI   C1B 5773   6.710   4.285   9.499 -0.3548 -0.1607 -0.1545
  361loPI   C2B 5774   6.615   4.179   9.096 -0.3014  0.0448 -0.1544
  361loPI   C3B 5775   6.442   4.295   8.760 -0.0974 -0.4103 -0.2132
  361loPI   C4B 5776   6.701   4.491   8.404 -0.0427 -0.3107  0.2536
  362loPI    C1 5777  17.059   1.632  10.820 -0.1994  0.0493  0.0819
  362loPI    C2 5778  16.981   1.286  10.636 -0.1604  0.0263  0.1084
  362loPI    C3 5779  17.196   1.288  10.973  0.0069  0.0944  0.0026
  362loPI   PO4 5780  17.174   1.849  10.535  0.0650 -0.0683 -0.2644
  362loPI   GL1 5781  17.424   1.931  10.209  0.0673 -0.0170  0.5136
  362loPI   GL2 5782  17.622   2.115  10.126 -0.2244  0.0417  0.0978
  362loPI   C1A 5783  17.366   1.918   9.711 -0.1090  0.0719 -0.1514
  362loPI   C2A 5784  17.252   2.048   9.288  0.0208  0.4029 -0.0082
  362loPI   C3A 5785  17.287   1.969   8.907 -0.1806 -0.1824 -0.4345
  362loPI   C4A 5786  17.246   1.719   8.550 -0.2254  0.0706  0.1654
  362loPI   C5A 5787  17.209   1.569   8.114  0.0241 -0.3239 -0.2453
  362loPI   C6A 5788  17.273   1.449   7.669 -0.0461  0.1560 -0.4158
  362loPI   C1B 5789  17.662   2.384   9.836 -0.0243  0.0415 -0.1178
  362loPI   C2B 5790  17.617   2.458   9.384  0.1735  0.2734 -0.3488
  362loPI   C3B 5791  17.551   2.599   8.982 -0.0241  0.0700  0.0240
  362loPI   C4B 5792  17.518   2.465   8.540 -0.1216 -0.0775 -0.1887
  363loPI    C1 5793  17.930   2.715  10.168  0.0193  0.2080  0.0830
  363loPI    C2 5794  17.635   2.612  10.418  0.1061  0.0593  0.1247
  363loPI    C3 5795  17.550   2.806  10.079 -0.0463 -0.0350  0.1078
  363loPI   PO4 5796  18.133   2.926  10.260  0.2582  0.1340  0.1185
  363loPI   GL1 5797  18.320   3.357   9.996  0.2389 -0.0195  0.0991
  363loPI   GL2 5798  18.468   3.098   9.914  0.0896 -0.1925 -0.1658
  363loPI   C1A 5799  18.459   3.399   9.529  0.0240 -0.0321 -0.0199
  363loPI   C2A 5800  18.429   3.372   9.136 -0.1373 -0.0761  0.4396
  363loPI   C3A 5801  18.393   3.045   8.913 -0.0107 -0.1515  0.1114
  363loPI   C4A 5802  18.558   2.840   8.457  0.1212 -0.3197 -0.2669
  363loPI   C5A 5803  18.907   2.706   8.242  0.0704 -0.0362 -0.0124
  363loPI   C6A 5804  19.237   2.804   7.949  0.1923  0.2330 -0.2533
  363loPI   C1B 5805  18.469   2.869   9.539 -0.2384  0.0137  0.0133
  363loPI   C2B 5806  18.662   2.618   9.218 -0.1246 -0.1684 -0.0405
  363loPI   C3B 5807  18.645   2.385   8.835  0.4692  0.1540 -0.0093
  363loPI   C4B 5808  18.568   2.332   8.524  0.1913 -0.2176  0.1541
  364loPI    C1 5809  17.434  14.123  10.492 -0.0679  0.1816 -0.1529
  364loPI    C2 5810  17.552  14.417  10.736  0.0244  0.0097  0.0122
  364loPI    C3 5811  17.214  14.216  10.813  0.1686 -0.1925  0.1265
  364loPI   PO4 5812  17.466  14.229  10.287 -0.0488  0.0782 -0.1490
  364loPI   GL1 5813  17.372  14.411   9.920 -0.3522  0.0526 -0.2814
  364loPI   GL2 5814  17.436  14.676   9.810  0.2303  0.0555 -0.4146
  364loPI   C1A 5815  17.201  14.065   9.519 -0.1760  0.0099  0.0815
  364loPI   C2A 5816  17.393  13.701   9.410  0.1226 -0.0820 -0.1149
  364loPI   C3A 5817  17.260  13.625   9.042  0.1354 -0.1363  0.1387
  364loPI   C4A 5818  17.328  13.558   8.557 -0.0898 -0.2529  0.1937
  364loPI   C5A 5819  16.986  13.606   8.179  0.1903  0.1410 -0.0853
  364loPI   C6A 5820  16.733  13.879   8.052  0.1848  0.1257 -0.1960
  364loPI   C1B 5821  17.195  14.598   9.417  0.1048  0.1929  0.2771
  364loPI   C2B 5822  17.226  14.582   9.104 -0.0329  0.1368  0.0835
  364loPI   C3B 5823  17.212  14.513   8.697  0.1421 -0.0475 -0.1789
  364loPI   C4B 5824  17.152  14.505   8.272  0.0607 -0.0264 -0.2874
  365loPI    C1 5825  11.999   0.257  10.752 -0.3243 -0.0173  0.1040
  365loPI    C2 5826  12.022  -0.034  10.479  0.0802  0.0862  0.0220
  365loPI    C3 5827  12.050  -0.122  10.868 -0.1629 -0.0230  0.0166
  365loPI   PO4 5828  11.824   0.417  10.583  0.3246 -0.0809  0.2639
  365loPI   GL1 5829  11.692   0.333  10.131 -0.0344  0.0004 -0.5006
  365loPI   GL2 5830  11.874   0.570  10.097  0.1441  0.0442 -0.1952
  365loPI   C1A 5831  12.078   0.146   9.941  0.0700  0.0686 -0.1750
  365loPI   C2A 5832  12.239   0.156   9.471  0.1147 -0.1212  0.0215
  365loPI   C3A 5833  12.361   0.225   9.051 -0.4831 -0.2270 -0.0206
  365loPI   C4A 5834  12.535   0.134   8.666 -0.0905 -0.3394 -0.0949
  365loPI   C5A 5835  12.850  -0.038   8.317 -0.0337  0.2127  0.0053
  365loPI   C6A 5836  13.129  -0.201   7.983  0.0182 -0.0737 -0.1821
  365loPI   C1B 5837  11.897   0.491   9.601  0.0448  0.3336  0.3238
  365loPI   C2B 5838  11.905   0.443   9.147 -0.1192 -0.1034 -0.2803
  365loPI   C3B 5839  11.980   0.280   8.736  0.2653 -0.1082  0.0772
  365loPI   C4B 5840  12.194   0.286   8.307  0.3201 -0.4653  0.5457
  366loPI    C1 5841  13.707  16.787  11.063  0.0213 -0.0247  0.0466
  366loPI    C2 5842  13.329  16.912  11.099  0.0375  0.1005 -0.1950
  366loPI    C3 5843  13.631  17.163  11.176  0.0751 -0.0426  0.1439
  366loPI   PO4 5844  13.832  16.767  10.821 -0.0424  0.0010 -0.2624
  366loPI   GL1 5845  13.838  17.031  10.431 -0.4446  0.2052  0.0150
  366loPI   GL2 5846  13.651  17.262  10.340  0.2769  0.0645  0.1697
  366loPI   C1A 5847  13.748  16.800  10.076 -0.0172 -0.1259 -0.1678
  366loPI   C2A 5848  13.945  16.834   9.683 -0.1204 -0.0104  0.1447
  366loPI   C3A 5849  13.790  16.687   9.255 -0.3909 -0.2497 -0.3181
  366loPI   C4A 5850  13.892  16.696   8.857  0.1955 -0.2581  0.0952
  366loPI   C5A 5851  13.841  16.768   8.384 -0.1040  0.1611  0.1703
  366loPI   C6A 5852  13.420  16.898   8.209  0.1003  0.0128 -0.1720
  366loPI   C1B 5853  13.858  17.390   9.900  0.2542 -0.1298 -0.0096
  366loPI   C2B 5854  13.940  17.593   9.537 -0.0386 -0.2472  0.2486
  366loPI   C3B 5855  13.871  17.545   9.136  0.2519  0.4404 -0.0760
  366loPI   C4B 5856  13.755  17.627   8.669 -0.0237  0.0859 -0.2538
  367loPI    C1 5857   1.789   7.457  10.984 -0.0864  0.1590 -0.1059
  367loPI    C2 5858   2.115   7.521  10.760 -0.0311  0.1575 -0.0265
  367loPI    C3 5859   2.143   7.308  11.098 -0.1623 -0.0556 -0.1480
  367loPI   PO4 5860   1.585   7.642  10.854  0.1534 -0.2108  0.1686
  367loPI   GL1 5861   1.352   7.690  10.492  0.0289 -0.2060 -0.0836
  367loPI   GL2 5862   1.268   7.403  10.449  0.1206 -0.0356 -0.0744
  367loPI   C1A 5863   1.559   7.767  10.031 -0.2322 -0.1430 -0.2314
  367loPI   C2A 5864   1.577   7.755   9.485 -0.0419 -0.1318 -0.2792
  367loPI   C3A 5865   1.558   7.792   9.089  0.0054  0.1160  0.1424
  367loPI   C4A 5866   1.324   7.870   8.685  0.3320 -0.0606  0.0551
  367loPI   C5A 5867   1.495   7.882   8.338  0.1245  0.0317  0.2515
  367loPI   C6A 5868   1.669   8.219   8.185  0.0699 -0.1160  0.0880
  367loPI   C1B 5869   1.091   7.544  10.096  0.1911  0.0766  0.0527
  367loPI   C2B 5870   1.164   7.566   9.740 -0.0064 -0.2253 -0.0481
  367loPI   C3B 5871   1.028   7.615   9.308 -0.3932 -0.0390  0.2747
  367loPI   C4B 5872   0.979   7.444   9.006 -0.2496  0.1006  0.0371
  368loPI    C1 5873   6.236   5.913  10.589 -0.1610 -0.0743  0.0450
  368loPI    C2 5874   6.274   6.178  10.886  0.1604  0.0184 -0.0750
  368loPI    C3 5875   6.358   5.792  10.950  0.0980  0.0155 -0.0100
  368loPI   PO4 5876   6.388   6.029  10.427 -0.1384 -0.0139  0.2620
  368loPI   GL1 5877   6.312   5.925  10.071 -0.1295 -0.0506 -0.0960
  368loPI   GL2 5878   6.547   5.737   9.869 -0.3268  0.2770 -0.1920
  368loPI   C1A 5879   6.083   5.760   9.631  0.2441  0.0808  0.0021
  368loPI   C2A 5880   6.101   5.741   9.186  0.0170  0.1824 -0.0909
  368loPI   C3A 5881   6.234   5.945   8.838  0.1399  0.1011  0.0123
  368loPI   C4A 5882   6.545   6.124   8.536  0.3856  0.1188 -0.0780
  368loPI   C5A 5883   6.616   6.396   8.193 -0.0126 -0.0016 -0.0811
  368loPI   C6A 5884   6.188   6.482   8.030  0.1287  0.3004  0.3537
  368loPI   C1B 5885   6.805   5.623   9.691 -0.2676  0.0589 -0.1478
  368loPI   C2B 5886   7.036   5.608   9.342 -0.0665  0.3512 -0.2439
  368loPI   C3B 5887   7.075   5.589   8.893  0.2018  0.2018  0.1246
  368loPI   C4B 5888   7.143   5.827   8.578  0.2066  0.0683 -0.1054
  369loPI    C1 5889   8.293  13.975   9.949  0.2107 -0.3053 -0.1018
  369loPI    C2 5890   8.125  14.031  10.308 -0.0481 -0.0833 -0.2532
  369loPI    C3 5891   8.361  14.314  10.150 -0.0408 -0.1237 -0.3153
  369loPI   PO4 5892   8.120  13.975   9.822 -0.2844  0.0177  0.2917
  369loPI   GL1 5893   7.705  14.022   9.595 -0.3604 -0.1517 -0.1008
  369loPI   GL2 5894   7.901  14.188   9.424 -0.1355  0.0396  0.1469
  369loPI   C1A 5895   7.744  13.762   9.166 -0.1374  0.1310  0.0788
  369loPI   C2A 5896   7.643  13.789   8.783 -0.0826  0.2167  0.0675
  369loPI   C3A 5897   7.516  13.840   8.321  0.0519  0.1450 -0.0002
  369loPI   C4A 5898   7.437  13.943   7.912  0.0379 -0.1293 -0.5038
  369loPI   C5A 5899   7.306  14.242   7.736  0.1527  0.0446  0.0323
  369loPI   C6A 5900   7.596  14.541   7.445  0.1823  0.3094  0.3470
  369loPI   C1B 5901   7.965  14.161   8.955 -0.2652 -0.0073  0.4671
  369loPI   C2B 5902   7.898  14.165   8.458 -0.1191 -0.0559 -0.0006
  369loPI   C3B 5903   7.922  13.960   8.049  0.2254  0.1875 -0.0679
  369loPI   C4B 5904   8.020  13.768   7.728  0.2427  0.0978 -0.2671
  370loPI    C1 5905  10.639  13.845   9.931  0.0363 -0.0503 -0.1956
  370loPI    C2 5906  10.826  13.817  10.283  0.0956  0.0687 -0.2169
  370loPI    C3 5907  10.693  14.172  10.155 -0.2740 -0.0360 -0.1375
  370loPI   PO4 5908  10.827  13.754   9.722 -0.2348  0.0956 -0.1062
  370loPI   GL1 5909  10.947  13.938   9.320 -0.0810 -0.0421  0.4206
  370loPI   GL2 5910  11.254  14.159   9.313  0.1722 -0.0041  0.1020
  370loPI   C1A 5911  11.003  13.933   8.878  0.0023 -0.0140  0.3128
  370loPI   C2A 5912  11.078  13.780   8.397  0.0148  0.0981 -0.2322
  370loPI   C3A 5913  11.257  13.443   8.224  0.0539 -0.1041 -0.1283
  370loPI   C4A 5914  11.231  12.984   8.221 -0.1982  0.3463 -0.0221
  370loPI   C5A 5915  11.044  12.906   7.871 -0.0469  0.0747 -0.1983
  370loPI   C6A 5916  10.653  12.891   7.744  0.0486  0.2276 -0.1770
  370loPI   C1B 5917  11.324  14.266   8.899 -0.4192 -0.1427  0.1820
  370loPI   C2B 5918  11.280  14.169   8.560  0.5227  0.2122 -0.2596
  370loPI   C3B 5919  11.314  14.318   8.210  0.0560 -0.2533 -0.3886
  370loPI   C4B 5920  11.268  14.345   7.819 -0.0713  0.0075 -0.3076
  371loPI    C1 5921   5.960  14.146  10.033  0.1558  0.1230 -0.0351
  371loPI    C2 5922   5.952  14.198  10.429  0.1815  0.0049 -0.0186
  371loPI    C3 5923   6.103  13.861  10.275 -0.2467 -0.1519 -0.1100
  371loPI   PO4 5924   6.065  14.298   9.979 -0.2656 -0.4563 -0.1172
  371loPI   GL1 5925   5.953  14.467   9.622  0.1332  0.1890 -0.0035
  371loPI   GL2 5926   6.343  14.491   9.588 -0.1118  0.0736  0.0862
  371loPI   C1A 5927   5.877  14.519   9.138  0.1393 -0.0018 -0.1101
  371loPI   C2A 5928   5.866  14.493   8.677  0.2529 -0.2357 -0.0975
  371loPI   C3A 5929   5.877  14.731   8.254  0.1812 -0.3721  0.1739
  371loPI   C4A 5930   5.867  14.656   7.845  0.1370 -0.0576 -0.1488
  371loPI   C5A 5931   6.150  14.422   7.605 -0.0366  0.2439 -0.1270
  371loPI   C6A 5932   6.451  14.101   7.509  0.0663 -0.1718  0.0378
  371loPI   C1B 5933   6.361  14.476   9.209 -0.1902 -0.0339 -0.1929
  371loPI   C2B 5934   6.541  14.594   8.806 -0.2752  0.0579  0.1760
  371loPI   C3B 5935   6.561  14.442   8.373 -0.1117 -0.1210  0.4478
  371loPI   C4B 5936   6.545  14.537   7.938 -0.1785  0.1098  0.1316
  372loPI    C1 5937  11.509   4.496  10.578 -0.1128 -0.0202  0.0477
  372loPI    C2 5938  11.686   4.834  10.697 -0.0185 -0.1047  0.1495
  372loPI    C3 5939  11.338   4.723  10.860 -0.0223 -0.0845  0.1552
  372loPI   PO4 5940  11.566   4.360  10.315  0.0925  0.0963  0.2421
  372loPI   GL1 5941  11.391   4.187   9.792  0.0364  0.3523  0.0226
  372loPI   GL2 5942  11.653   4.398   9.783 -0.0463  0.1675 -0.0345
  372loPI   C1A 5943  11.444   4.096   9.352 -0.0262  0.0925  0.0269
  372loPI   C2A 5944  11.438   4.081   8.900  0.3434  0.0282  0.1082
  372loPI   C3A 5945  11.380   4.005   8.493  0.1278 -0.3162  0.3041
  372loPI   C4A 5946  11.413   3.980   8.063  0.0481 -0.0513 -0.2931
  372loPI   C5A 5947  11.377   3.635   7.807  0.0354  0.0388 -0.0695
  372loPI   C6A 5948  11.542   3.685   7.417 -0.0851 -0.1834 -0.2008
  372loPI   C1B 5949  11.755   4.512   9.469  0.1511  0.3252  0.3308
  372loPI   C2B 5950  11.935   4.796   9.237 -0.1632  0.1268  0.0403
  372loPI   C3B 5951  11.961   4.744   8.773 -0.1169  0.0405 -0.2466
  372loPI   C4B 5952  11.774   4.497   8.479 -0.1715 -0.1268 -0.0056
  373loPI    C1 5953  17.006   7.072  10.261  0.1149 -0.0414  0.0654
  373loPI    C2 5954  17.088   6.690  10.345 -0.1853 -0.0833  0.1794
  373loPI    C3 5955  16.804   6.883  10.549 -0.0566  0.1935  0.1019
  373loPI   PO4 5956  17.158   7.150  10.155  0.1195  0.1084  0.2485
  373loPI   GL1 5957  17.222   7.302   9.740  0.1624  0.0788 -0.1814
  373loPI   GL2 5958  17.426   7.582   9.873  0.0115 -0.3336 -0.1101
  373loPI   C1A 5959  17.521   7.143   9.491 -0.2028 -0.0312 -0.0299
  373loPI   C2A 5960  17.478   7.162   9.008 -0.0283 -0.0070 -0.0070
  373loPI   C3A 5961  17.461   6.893   8.601  0.0528 -0.1056  0.0200
  373loPI   C4A 5962  17.387   6.812   8.175 -0.1032 -0.3324 -0.0588
  373loPI   C5A 5963  17.537   6.510   7.874 -0.0157  0.2787  0.1113
  373loPI   C6A 5964  17.932   6.550   7.867 -0.0428  0.1446 -0.2795
  373loPI   C1B 5965  17.348   7.578   9.320 -0.1636 -0.1875 -0.0706
  373loPI   C2B 5966  17.291   7.588   8.913  0.1484 -0.1424 -0.1739
  373loPI   C3B 5967  17.294   7.678   8.483  0.0497 -0.1697  0.2139
  373loPI   C4B 5968  17.073   7.712   8.063  0.0232  0.2661  0.0122
  374loPI    C1 5969  16.598  15.656  10.516  0.2001 -0.0344  0.0720
  374loPI    C2 5970  16.588  15.500  10.885 -0.3471  0.0359  0.0963
  374loPI    C3 5971  16.404  15.848  10.810 -0.0912  0.1102 -0.2082
  374loPI   PO4 5972  16.754  15.535  10.456  0.2607  0.3105 -0.0666
  374loPI   GL1 5973  16.867  15.570   9.963  0.0685 -0.2183  0.1493
  374loPI   GL2 5974  16.729  15.868  10.039 -0.0475 -0.1187  0.2682
  374loPI   C1A 5975  17.101  15.541   9.604 -0.2745  0.4589  0.1369
  374loPI   C2A 5976  16.991  15.453   9.120 -0.0520  0.0699 -0.1422
  374loPI   C3A 5977  16.953  15.394   8.784 -0.1309  0.0487 -0.3190
  374loPI   C4A 5978  16.727  15.151   8.311 -0.1594 -0.3370  0.1405
  374loPI   C5A 5979  17.002  14.947   7.977  0.0460  0.1920  0.2528
  374loPI   C6A 5980  17.389  14.916   7.808 -0.0586  0.0441 -0.0960
  374loPI   C1B 5981  16.614  15.867   9.704 -0.0418  0.2344  0.1844
  374loPI   C2B 5982  16.563  15.858   9.261  0.0006 -0.2810 -0.0064
  374loPI   C3B 5983  16.542  15.756   8.865  0.0538  0.1471  0.0072
  374loPI   C4B 5984  16.586  15.664   8.490 -0.0102 -0.1179 -0.1066
  375loPI    C1 5985  15.251  13.468  10.437 -0.2865  0.0781  0.0537
  375loPI    C2 5986  15.508  13.726  10.601 -0.1689  0.0343 -0.0600
  375loPI    C3 5987  15.361  13.425  10.819  0.0522 -0.0732 -0.0568
  375loPI   PO4 5988  15.373  13.364  10.305  0.0689  0.0814  0.3052
  375loPI   GL1 5989  15.465  13.360   9.828  0.1107  0.0467  0.0781
  375loPI   GL2 5990  15.784  13.461   9.776 -0.2539 -0.2746 -0.0611
  375loPI   C1A 5991  15.490  13.365   9.440 -0.0062 -0.1700 -0.3045
  375loPI   C2A 5992  15.472  13.356   9.099 -0.2746  0.1781  0.0325
  375loPI   C3A 5993  15.531  13.423   8.662 -0.1568  0.3751 -0.2272
  375loPI   C4A 5994  15.728  13.381   8.290  0.1055 -0.0352 -0.0970
  375loPI   C5A 5995  15.915  13.689   8.159 -0.0404 -0.0001 -0.1602
  375loPI   C6A 5996  16.279  13.785   7.872  0.0623 -0.1920 -0.0084
  375loPI   C1B 5997  15.962  13.544   9.421 -0.0897  0.1163 -0.1569
  375loPI   C2B 5998  16.031  13.497   8.957 -0.0771  0.0122 -0.1016
  375loPI   C3B 5999  16.100  13.541   8.630 -0.1190 -0.1827  0.2039
  375loPI   C4B 6000  16.389  13.606   8.382 -0.0082  0.0652 -0.2095
  376loPI    C1 6001  10.243   0.784  10.413 -0.3449 -0.0668  0.0396
  376loPI    C2 6002  10.280   1.026  10.730 -0.1707 -0.0899  0.0378
  376loPI    C3 6003   9.939   0.825  10.670 -0.3069  0.1329  0.0547
  376loPI   PO4 6004  10.232   0.943  10.212 -0.1158  0.1724  0.2529
  376loPI   GL1 6005  10.412   1.196   9.905  0.3418  0.1087 -0.1099
  376loPI   GL2 6006  10.350   1.419   9.871 -0.1753  0.0403 -0.0180
  376loPI   C1A 6007  10.800   1.268   9.572  0.1302 -0.1890 -0.0224
  376loPI   C2A 6008  10.791   1.390   9.160  0.0436  0.2581 -0.0236
  376loPI   C3A 6009  10.812   1.326   8.749 -0.1133  0.1720 -0.0286
  376loPI   C4A 6010  10.672   1.371   8.326 -0.0760  0.2945  0.1194
  376loPI   C5A 6011  10.755   1.410   7.976  0.1381 -0.0198  0.0666
  376loPI   C6A 6012  10.311   1.495   7.708  0.3821 -0.0965  0.1722
  376loPI   C1B 6013  10.330   1.449   9.436 -0.1841 -0.1600  0.2136
  376loPI   C2B 6014  10.330   1.477   9.073 -0.1035  0.1960 -0.2368
  376loPI   C3B 6015  10.190   1.460   8.655 -0.0610 -0.0990 -0.0473
  376loPI   C4B 6016  10.144   1.351   8.200  0.3686 -0.1666  0.4210
  377loPI    C1 6017   9.647  16.342  10.716  0.0906  0.0157 -0.0920
  377loPI    C2 6018   9.510  16.654  10.506 -0.1241 -0.0560 -0.0616
  377loPI    C3 6019   9.708  16.714  10.849 -0.1526  0.0468 -0.0627
  377loPI   PO4 6020   9.854  16.192  10.506 -0.0810 -0.1585  0.3022
  377loPI   GL1 6021   9.982  15.996  10.106  0.0890  0.2725 -0.0064
  377loPI   GL2 6022   9.696  16.048   9.896 -0.1081 -0.1036  0.0017
  377loPI   C1A 6023  10.054  16.414   9.842 -0.0921 -0.1193  0.2299
  377loPI   C2A 6024  10.148  16.515   9.443  0.0526 -0.0024 -0.0593
  377loPI   C3A 6025  10.260  16.398   9.045 -0.1239  0.0740 -0.0239
  377loPI   C4A 6026  10.336  16.378   8.664 -0.1934  0.2790  0.1305
  377loPI   C5A 6027  10.099  16.171   8.343  0.2875 -0.1545  0.0643
  377loPI   C6A 6028   9.724  16.300   8.165  0.1530 -0.1161 -0.1261
  377loPI   C1B 6029   9.993  15.961   9.563 -0.2572  0.1025 -0.3014
  377loPI   C2B 6030   9.976  16.027   9.192  0.1710 -0.1564  0.0124
  377loPI   C3B 6031  10.055  15.997   8.783  0.2147 -0.2965 -0.1579
  377loPI   C4B 6032  10.291  15.789   8.612 -0.1279  0.2342  0.0033
  378loPI    C1 6033   2.569   0.077  10.342  0.0761  0.0643  0.2516
  378loPI    C2 6034   2.772   0.320  10.097 -0.1934  0.2219  0.1802
  378loPI    C3 6035   2.884   0.282  10.480  0.1317  0.0983  0.0758
  378loPI   PO4 6036   2.376  -0.036  10.187  0.2521  0.0399  0.2173
  378loPI   GL1 6037   2.508  -0.089   9.754  0.0043  0.0188 -0.2145
  378loPI   GL2 6038   2.359  -0.348   9.726 -0.2142 -0.1158  0.3699
  378loPI   C1A 6039   2.734  -0.214   9.376 -0.2505  0.3221 -0.1275
  378loPI   C2A 6040   2.630  -0.127   9.041  0.0089 -0.0124  0.1452
  378loPI   C3A 6041   2.687  -0.152   8.597  0.0351 -0.2065 -0.0834
  378loPI   C4A 6042   2.696  -0.183   8.098 -0.1263 -0.2416  0.1392
  378loPI   C5A 6043   2.512  -0.433   7.784 -0.2749 -0.4000  0.0708
  378loPI   C6A 6044   2.220  -0.450   7.506 -0.1649 -0.0430 -0.3534
  378loPI   C1B 6045   2.203  -0.202   9.255  0.1481  0.1876 -0.2217
  378loPI   C2B 6046   2.184  -0.207   8.802 -0.5735 -0.1274  0.2182
  378loPI   C3B 6047   2.096  -0.187   8.353  0.3922 -0.1750 -0.1231
  378loPI   C4B 6048   2.215  -0.030   7.865 -0.0029  0.2886 -0.1449
  379loPI    C1 6049  10.854  16.054  10.432  0.0003 -0.0360  0.2122
  379loPI    C2 6050  11.175  16.254  10.563  0.2281 -0.2990  0.0689
  379loPI    C3 6051  11.007  15.973  10.793  0.1828 -0.2556  0.0890
  379loPI   PO4 6052  10.916  16.015  10.187  0.4277 -0.0321  0.0904
  379loPI   GL1 6053  10.859  15.671   9.929  0.2875 -0.3973  0.0362
  379loPI   GL2 6054  11.216  15.664   9.951 -0.1422 -0.3860 -0.0182
  379loPI   C1A 6055  10.793  15.563   9.478 -0.1276  0.3491 -0.2727
  379loPI   C2A 6056  10.864  15.221   9.217 -0.1621 -0.1818 -0.2313
  379loPI   C3A 6057  10.908  15.200   8.814 -0.0704  0.0213 -0.1620
  379loPI   C4A 6058  11.103  15.167   8.424 -0.2153  0.2175  0.0552
  379loPI   C5A 6059  11.202  15.276   7.947 -0.4301 -0.2484  0.0613
  379loPI   C6A 6060  11.361  15.440   7.643 -0.0632  0.1376  0.0895
  379loPI   C1B 6061  11.268  15.618   9.531  0.0969  0.1659  0.0618
  379loPI   C2B 6062  11.257  15.473   9.142  0.2164 -0.4623  0.3336
  379loPI   C3B 6063  11.353  15.487   8.724  0.0700  0.2671  0.1256
  379loPI   C4B 6064  11.476  15.569   8.300  0.2677  0.0694  0.0013
  380loPI    C1 6065   1.067  16.235  10.314 -0.1299 -0.1874 -0.0662
  380loPI    C2 6066   1.160  16.097  10.678 -0.2049  0.0893  0.0607
  380loPI    C3 6067   1.333  16.431  10.540 -0.0955 -0.0737 -0.2038
  380loPI   PO4 6068   1.036  16.025  10.188 -0.0915 -0.0541 -0.0862
  380loPI   GL1 6069   0.881  16.178   9.775 -0.0404  0.1631  0.2093
  380loPI   GL2 6070   0.778  16.470   9.737 -0.0300 -0.1016 -0.1135
  380loPI   C1A 6071   0.730  15.944   9.383  0.1023 -0.1240 -0.0193
  380loPI   C2A 6072   0.631  15.936   8.943 -0.2098 -0.1036 -0.0716
  380loPI   C3A 6073   0.530  15.839   8.549 -0.1611 -0.0915 -0.0464
  380loPI   C4A 6074   0.717  15.782   8.156 -0.1432  0.1020 -0.2648
  380loPI   C5A 6075   0.735  16.011   7.879  0.0301 -0.1911  0.2722
  380loPI   C6A 6076   0.482  16.297   7.596 -0.0246 -0.0020  0.0561
  380loPI   C1B 6077   0.701  16.431   9.342  0.0534  0.1236 -0.1640
  380loPI   C2B 6078   0.479  16.481   9.041  0.0658  0.0690  0.1641
  380loPI   C3B 6079   0.519  16.361   8.637  0.2105  0.1678 -0.1652
  380loPI   C4B 6080   0.723  16.396   8.174  0.0168  0.1772 -0.1374
  381loPI    C1 6081   7.709   0.484  10.401  0.0844 -0.0006  0.0692
  381loPI    C2 6082   7.645   0.700  10.731 -0.0587 -0.1837  0.1635
  381loPI    C3 6083   7.335   0.552  10.526  0.0373 -0.2892  0.0937
  381loPI   PO4 6084   7.878   0.647  10.262 -0.0215 -0.0010 -0.1237
  381loPI   GL1 6085   7.959   0.649   9.857  0.0419 -0.2538 -0.0072
  381loPI   GL2 6086   8.128   0.372   9.675 -0.1170  0.2520 -0.1707
  381loPI   C1A 6087   7.803   0.743   9.409 -0.0438  0.4695  0.1356
  381loPI   C2A 6088   7.816   0.772   8.978  0.3467 -0.2566 -0.0806
  381loPI   C3A 6089   7.737   0.707   8.619 -0.0761 -0.1037  0.1740
  381loPI   C4A 6090   7.796   0.671   8.228  0.2832  0.1341  0.1523
  381loPI   C5A 6091   7.851   0.415   7.848  0.3960 -0.1485 -0.1921
  381loPI   C6A 6092   7.733   0.013   7.671 -0.3622 -0.0218  0.1437
  381loPI   C1B 6093   8.002   0.366   9.226 -0.1274 -0.1409 -0.0853
  381loPI   C2B 6094   8.005   0.318   8.756 -0.3632  0.2302 -0.0382
  381loPI   C3B 6095   8.126   0.284   8.323  0.1581  0.1479 -0.4079
  381loPI   C4B 6096   8.223  -0.096   8.158 -0.0585  0.2342 -0.1016
  382loPI    C1 6097   0.203   4.624  10.496 -0.1820 -0.0330  0.0509
  382loPI    C2 6098   0.266   4.229  10.489 -0.0542 -0.0142  0.1120
  382loPI    C3 6099   0.464   4.459  10.750 -0.0197  0.1090 -0.0214
  382loPI   PO4 6100   0.070   4.650  10.186 -0.1706 -0.1999 -0.0902
  382loPI   GL1 6101  -0.008   4.685   9.687 -0.3075  0.2416  0.0516
  382loPI   GL2 6102  -0.353   4.729   9.852  0.0306  0.0968  0.0012
  382loPI   C1A 6103   0.020   4.565   9.269 -0.0448 -0.1289  0.0426
  382loPI   C2A 6104  -0.006   4.352   8.900  0.1136  0.1583 -0.0098
  382loPI   C3A 6105  -0.041   4.293   8.434 -0.0509 -0.1642  0.3220
  382loPI   C4A 6106   0.159   4.078   8.059  0.0003 -0.0247 -0.0486
  382loPI   C5A 6107   0.609   4.108   8.001  0.1736 -0.0636  0.1244
  382loPI   C6A 6108   0.787   4.346   7.679 -0.1149  0.1130 -0.0267
  382loPI   C1B 6109  -0.418   4.869   9.462  0.1033  0.5047 -0.2049
  382loPI   C2B 6110  -0.425   4.794   9.043  0.2698  0.1354  0.3262
  382loPI   C3B 6111  -0.243   4.689   8.652 -0.1709 -0.0990 -0.0937
  382loPI   C4B 6112  -0.176   4.699   8.220  0.0720 -0.0058  0.2066
  383loPI    C1 6113   8.111   8.451  10.530  0.2789  0.0809 -0.1184
  383loPI    C2 6114   8.338   8.226  10.770 -0.0653 -0.0387  0.1032
  383loPI    C3 6115   8.293   8.616  10.845  0.1784  0.0163 -0.0257
  383loPI   PO4 6116   8.142   8.298  10.328  0.0864 -0.1472  0.1810
  383loPI   GL1 6117   8.127   8.342   9.997 -0.1301 -0.1044  0.1989
  383loPI   GL2 6118   8.329   8.682   9.884 -0.1006 -0.1487  0.1808
  383loPI   C1A 6119   7.954   8.071   9.621  0.1915  0.0734 -0.0473
  383loPI   C2A 6120   7.946   8.016   9.250 -0.2612  0.2081 -0.0356
  383loPI   C3A 6121   7.872   8.036   8.813 -0.0624  0.2716  0.1466
  383loPI   C4A 6122   7.729   8.030   8.390  0.1006 -0.0896 -0.1452
  383loPI   C5A 6123   7.679   7.679   8.062 -0.1442  0.0884 -0.0343
  383loPI   C6A 6124   7.942   7.283   7.982  0.0091 -0.2397 -0.0983
  383loPI   C1B 6125   8.116   8.567   9.420 -0.0253 -0.0473 -0.2149
  383loPI   C2B 6126   8.129   8.495   8.974  0.1472 -0.1184 -0.0158
  383loPI   C3B 6127   8.035   8.419   8.518 -0.0204 -0.0629  0.2694
  383loPI   C4B 6128   8.327   8.348   8.334 -0.1348 -0.0842  0.2242
  384loPI    C1 6129   2.195  13.705  10.519  0.0441  0.1535 -0.2039
  384loPI    C2 6130   2.417  14.036  10.556  0.0713  0.1074  0.0636
  384loPI    C3 6131   2.041  14.029  10.695 -0.0744  0.1589 -0.3154
  384loPI   PO4 6132   2.075  13.575  10.193  0.1717 -0.0440  0.3319
  384loPI   GL1 6133   2.307  13.673   9.749 -0.1989  0.2632  0.5216
  384loPI   GL2 6134   2.064  13.805   9.679 -0.0598  0.0115 -0.2422
  384loPI   C1A 6135   2.351  13.499   9.359 -0.2669  0.1962  0.1760
  384loPI   C2A 6136   2.363  13.506   8.969  0.0401 -0.4745  0.0203
  384loPI   C3A 6137   2.419  13.564   8.625  0.0205  0.1669 -0.0612
  384loPI   C4A 6138   2.366  13.344   8.251 -0.0739 -0.1559 -0.4140
  384loPI   C5A 6139   2.344  13.221   7.860 -0.2111 -0.1929  0.0639
  384loPI   C6A 6140   2.372  12.771   7.740 -0.3808  0.3436  0.3005
  384loPI   C1B 6141   2.048  13.862   9.255  0.1016 -0.1219  0.1039
  384loPI   C2B 6142   2.027  13.948   8.790  0.0915  0.3730 -0.0219
  384loPI   C3B 6143   2.096  13.958   8.364 -0.0660  0.0433 -0.5008
  384loPI   C4B 6144   2.136  13.763   7.959 -0.2705  0.2093 -0.0779
  385loPI    C1 6145   6.860   4.733  10.772  0.0093  0.1698 -0.1823
  385loPI    C2 6146   6.616   4.962  10.991 -0.1221 -0.0962 -0.0458
  385loPI    C3 6147   6.877   4.718  11.171 -0.0398 -0.1151 -0.1888
  385loPI   PO4 6148   6.858   4.814  10.511  0.0576 -0.2286 -0.1203
  385loPI   GL1 6149   6.709   4.742  10.091 -0.2306  0.3322 -0.1650
  385loPI   GL2 6150   6.650   5.118  10.055 -0.4169 -0.1484 -0.0668
  385loPI   C1A 6151   7.002   4.669   9.720  0.0522 -0.0778  0.2021
  385loPI   C2A 6152   7.045   4.681   9.226  0.1160  0.1036 -0.0553
  385loPI   C3A 6153   6.946   4.747   8.792  0.0474 -0.0494 -0.1725
  385loPI   C4A 6154   7.152   4.773   8.341  0.2871  0.2908 -0.0194
  385loPI   C5A 6155   7.061   4.933   7.851 -0.2912 -0.0589 -0.2262
  385loPI   C6A 6156   7.368   5.252   7.665  0.0465 -0.0290  0.4380
  385loPI   C1B 6157   6.801   5.121   9.573 -0.3098 -0.0610 -0.2021
  385loPI   C2B 6158   6.757   5.178   9.070 -0.2456 -0.3952 -0.0485
  385loPI   C3B 6159   6.842   5.204   8.633 -0.0099  0.0047  0.2048
  385loPI   C4B 6160   7.041   5.388   8.318 -0.0334  0.2369 -0.0799
  386loPI    C1 6161  16.248  12.617  10.836 -0.1650 -0.3645 -0.0163
  386loPI    C2 6162  15.958  12.884  10.903  0.0237 -0.1691  0.0330
  386loPI    C3 6163  16.244  12.828  11.176  0.0944 -0.2808 -0.0630
  386loPI   PO4 6164  16.423  12.585  10.498 -0.2639  0.1661 -0.0477
  386loPI   GL1 6165  16.443  12.666  10.007 -0.0832  0.1075  0.0949
  386loPI   GL2 6166  16.588  12.935   9.919 -0.1416  0.1996  0.0286
  386loPI   C1A 6167  16.301  12.503   9.638 -0.1552 -0.0700  0.2276
  386loPI   C2A 6168  16.285  12.485   9.250  0.1941 -0.2036 -0.0130
  386loPI   C3A 6169  16.221  12.343   8.830 -0.0939  0.1170 -0.0471
  386loPI   C4A 6170  16.255  12.270   8.340 -0.2741 -0.0674  0.2455
  386loPI   C5A 6171  16.182  12.114   8.043 -0.3180  0.1843  0.1179
  386loPI   C6A 6172  15.882  11.825   7.902  0.3720 -0.0833  0.0647
  386loPI   C1B 6173  16.677  12.942   9.507  0.1386  0.0477 -0.0627
  386loPI   C2B 6174  16.553  12.888   9.099 -0.0743 -0.1368 -0.2917
  386loPI   C3B 6175  16.562  12.776   8.764  0.0902 -0.0248  0.0002
  386loPI   C4B 6176  16.489  12.716   8.416 -0.3196  0.1301 -0.0235
  387loPI    C1 6177  13.009   1.519  10.759 -0.1373 -0.2949 -0.0237
  387loPI    C2 6178  12.798   1.354  11.056 -0.0797  0.1736  0.2882
  387loPI    C3 6179  12.751   1.742  10.968  0.1355  0.1149 -0.1111
  387loPI   PO4 6180  13.054   1.302  10.639  0.0393 -0.3596  0.0733
  387loPI   GL1 6181  12.942   1.221  10.306  0.1599 -0.1317 -0.1152
  387loPI   GL2 6182  13.041   1.496  10.171 -0.5630 -0.1642 -0.2619
  387loPI   C1A 6183  13.205   0.991   9.970 -0.0892  0.0273 -0.1393
  387loPI   C2A 6184  13.140   0.878   9.554  0.1780 -0.2513  0.0105
  387loPI   C3A 6185  13.211   0.826   9.108  0.5003  0.0537  0.1308
  387loPI   C4A 6186  13.305   0.827   8.651 -0.1159  0.1731  0.1753
  387loPI   C5A 6187  13.314   0.764   8.180 -0.3029 -0.1275 -0.3651
  387loPI   C6A 6188  13.557   0.689   7.821 -0.2052 -0.2613 -0.1151
  387loPI   C1B 6189  13.262   1.557   9.868  0.2540  0.0565  0.2919
  387loPI   C2B 6190  13.178   1.486   9.432 -0.0727  0.1095  0.1663
  387loPI   C3B 6191  13.182   1.366   9.068 -0.0149  0.1514  0.2050
  387loPI   C4B 6192  13.194   1.502   8.631  0.1588  0.2168  0.1271
  388loPI    C1 6193  10.640   2.753  10.395 -0.0845 -0.2138  0.0218
  388loPI    C2 6194  10.570   2.701  10.785 -0.0406 -0.0067  0.0584
  388loPI    C3 6195  10.292   2.871  10.553  0.0446  0.1319  0.0567
  388loPI   PO4 6196  10.744   2.563  10.281  0.2480 -0.1127 -0.1796
  388loPI   GL1 6197  10.598   2.307   9.932  0.1374 -0.0173 -0.2795
  388loPI   GL2 6198  10.870   2.271   9.745 -0.1196  0.2117  0.0173
  388loPI   C1A 6199  10.396   2.303   9.604 -0.0164 -0.2263 -0.2300
  388loPI   C2A 6200  10.381   2.365   9.207  0.0539 -0.0870 -0.1395
  388loPI   C3A 6201  10.409   2.316   8.770 -0.0445 -0.2343 -0.1643
  388loPI   C4A 6202  10.405   2.300   8.316 -0.0159  0.3295  0.0907
  388loPI   C5A 6203  10.422   2.421   7.985  0.1917 -0.1903 -0.1593
  388loPI   C6A 6204  10.587   2.351   7.577 -0.3178 -0.3624 -0.3628
  388loPI   C1B 6205  10.831   2.327   9.340 -0.0389 -0.1855  0.0614
  388loPI   C2B 6206  10.902   2.288   8.894  0.0449  0.0382  0.2272
  388loPI   C3B 6207  10.927   2.338   8.366 -0.0382 -0.0906  0.1560
  388loPI   C4B 6208  10.918   2.332   8.004  0.1561  0.0829 -0.1432
  389loPI    C1 6209  10.888   6.486  10.788 -0.1289 -0.1830  0.0332
  389loPI    C2 6210  10.602   6.443  11.064  0.0055 -0.0133  0.2012
  389loPI    C3 6211  10.977   6.527  11.176  0.1141 -0.1925 -0.0199
  389loPI   PO4 6212  10.871   6.318  10.625  0.0552 -0.0620  0.0895
  389loPI   GL1 6213  10.806   6.058  10.351  0.2288 -0.2711  0.0042
  389loPI   GL2 6214  11.069   6.155  10.180 -0.2853  0.0475 -0.2236
  389loPI   C1A 6215  10.550   5.959  10.019 -0.1797 -0.0840 -0.1537
  389loPI   C2A 6216  10.637   6.100   9.605 -0.1724  0.2380 -0.0903
  389loPI   C3A 6217  10.536   6.006   9.208 -0.0186  0.0798 -0.3028
  389loPI   C4A 6218  10.462   6.016   8.764  0.1346  0.1464  0.0246
  389loPI   C5A 6219  10.491   6.008   8.350 -0.0299  0.1234 -0.1422
  389loPI   C6A 6220  10.202   5.955   8.135 -0.0552  0.1283 -0.0366
  389loPI   C1B 6221  11.133   5.936   9.736 -0.3296 -0.1790  0.0377
  389loPI   C2B 6222  11.141   5.988   9.386 -0.2131 -0.1710 -0.2698
  389loPI   C3B 6223  11.140   6.028   8.946 -0.0052  0.1983 -0.2734
  389loPI   C4B 6224  10.969   6.073   8.515  0.1157 -0.3120 -0.2505
  390loPI    C1 6225  15.742   9.595  10.472 -0.0141  0.2683  0.0121
  390loPI    C2 6226  15.655   9.207  10.426  0.4698  0.1959 -0.3753
  390loPI    C3 6227  15.855   9.330  10.750  0.1636  0.1540 -0.1664
  390loPI   PO4 6228  15.737   9.672  10.236 -0.2333  0.0137 -0.1269
  390loPI   GL1 6229  15.838   9.958   9.887  0.0220 -0.3341  0.1019
  390loPI   GL2 6230  15.547   9.802   9.806 -0.0931 -0.1788  0.1524
  390loPI   C1A 6231  15.759  10.166   9.470  0.0984  0.3346 -0.3851
  390loPI   C2A 6232  15.944  10.130   8.982  0.1417  0.1699  0.1768
  390loPI   C3A 6233  15.903  10.140   8.529  0.0193 -0.0285 -0.2129
  390loPI   C4A 6234  15.906  10.108   7.999 -0.3063 -0.1239 -0.0461
  390loPI   C5A 6235  15.742   9.869   7.739  0.0865  0.2527 -0.1463
  390loPI   C6A 6236  15.596   9.805   7.387 -0.0620  0.0280  0.0220
  390loPI   C1B 6237  15.642   9.675   9.455  0.1212  0.0643 -0.0951
  390loPI   C2B 6238  15.701   9.718   9.099  0.2220  0.0697  0.1828
  390loPI   C3B 6239  15.595   9.704   8.611  0.1993 -0.0886  0.2785
  390loPI   C4B 6240  15.671   9.660   8.226 -0.1830  0.0619 -0.1602
  391loPI    C1 6241   9.535   5.912  10.727  0.2678 -0.1692 -0.0369
  391loPI    C2 6242   9.369   5.799  11.073 -0.2846  0.1853 -0.1735
  391loPI    C3 6243   9.683   6.047  11.074 -0.2411  0.1319  0.0737
  391loPI   PO4 6244   9.248   5.958  10.564 -0.1378  0.2244  0.0947
  391loPI   GL1 6245   9.068   5.657  10.237  0.1399 -0.1995  0.0187
  391loPI   GL2 6246   9.344   5.474  10.236  0.0403  0.0592  0.1949
  391loPI   C1A 6247   9.038   5.565   9.819  0.0797  0.3431 -0.0080
  391loPI   C2A 6248   9.170   5.440   9.555  0.1236 -0.2298 -0.1040
  391loPI   C3A 6249   9.198   5.477   9.169 -0.2447 -0.0001  0.0691
  391loPI   C4A 6250   9.262   5.682   8.828 -0.1620 -0.2416  0.2336
  391loPI   C5A 6251   9.199   5.810   8.357 -0.0612 -0.2411 -0.1837
  391loPI   C6A 6252   9.267   5.826   7.935  0.0840  0.2982 -0.0555
  391loPI   C1B 6253   9.582   5.507   9.833 -0.1850  0.0137 -0.3278
  391loPI   C2B 6254   9.662   5.480   9.408 -0.3487  0.0386  0.1805
  391loPI   C3B 6255   9.772   5.577   9.149  0.6060  0.1294  0.2759
  391loPI   C4B 6256   9.772   5.621   8.783  0.1673  0.2042 -0.1193
  392loPI    C1 6257   5.874  12.843  10.006 -0.1424 -0.1787 -0.0247
  392loPI    C2 6258   5.515  12.890  10.175  0.0297 -0.1100  0.3302
  392loPI    C3 6259   5.833  12.806  10.402  0.2635 -0.0363  0.0346
  392loPI   PO4 6260   5.856  13.040   9.796  0.0752 -0.3587 -0.1842
  392loPI   GL1 6261   5.634  12.977   9.452 -0.1008 -0.0564 -0.0921
  392loPI   GL2 6262   5.466  12.804   9.286 -0.1600 -0.0181  0.2555
  392loPI   C1A 6263   5.947  13.005   9.153 -0.0734 -0.2920 -0.2764
  392loPI   C2A 6264   5.876  13.100   8.611 -0.1964  0.3261 -0.0547
  392loPI   C3A 6265   5.928  13.164   8.161 -0.0399 -0.2869 -0.2188
  392loPI   C4A 6266   5.865  13.410   7.877 -0.0713 -0.0986 -0.0360
  392loPI   C5A 6267   5.594  13.724   7.457 -0.0603 -0.1557 -0.0334
  392loPI   C6A 6268   5.720  13.720   7.038  0.1269 -0.2088 -0.2359
  392loPI   C1B 6269   5.456  12.836   8.857  0.0031 -0.0206  0.0713
  392loPI   C2B 6270   5.482  12.865   8.398  0.2340 -0.0959  0.0377
  392loPI   C3B 6271   5.400  13.034   7.974 -0.0574  0.1631 -0.0842
  392loPI   C4B 6272   5.677  12.987   7.632 -0.0397 -0.1326 -0.0008
  393loPI    C1 6273   8.802  10.196  10.815 -0.0463 -0.1069  0.0186
  393loPI    C2 6274   8.893  10.043  11.173  0.0778  0.0289  0.0463
  393loPI    C3 6275   9.038  10.400  11.065  0.3013 -0.1513 -0.2649
  393loPI   PO4 6276   8.804   9.988  10.589  0.1623  0.1642 -0.0023
  393loPI   GL1 6277   8.863   9.883  10.163  0.1410  0.1113  0.0817
  393loPI   GL2 6278   8.554   9.931  10.009 -0.0717  0.1342 -0.0389
  393loPI   C1A 6279   9.054  10.022   9.786  0.1281 -0.0876  0.3163
  393loPI   C2A 6280   9.079   9.904   9.343 -0.0083  0.0048 -0.3507
  393loPI   C3A 6281   9.015   9.692   8.931 -0.2209 -0.1547  0.2015
  393loPI   C4A 6282   9.084   9.907   8.546 -0.3675  0.0212  0.1865
  393loPI   C5A 6283   9.035   9.790   8.093  0.2147  0.2949  0.2868
  393loPI   C6A 6284   9.149   9.444   7.802 -0.0698 -0.1197  0.2260
  393loPI   C1B 6285   8.631   9.967   9.537 -0.2375 -0.0867 -0.1559
  393loPI   C2B 6286   8.575   9.849   9.152  0.0031  0.0593 -0.1640
  393loPI   C3B 6287   8.536   9.620   8.700  0.1573  0.3500 -0.1945
  393loPI   C4B 6288   8.531   9.351   8.422 -0.2229 -0.3864 -0.0190
  394loPI    C1 6289   2.939   2.904  10.378 -0.0567 -0.5501 -0.0172
  394loPI    C2 6290   2.673   3.045  10.641 -0.0573 -0.2954 -0.1515
  394loPI    C3 6291   3.009   2.871  10.771 -0.1028 -0.2598  0.0172
  394loPI   PO4 6292   2.798   3.113  10.114  0.3925  0.1258  0.0959
  394loPI   GL1 6293   2.981   3.120   9.642  0.1079 -0.0780  0.2133
  394loPI   GL2 6294   2.870   2.823   9.638  0.0282  0.2876 -0.1794
  394loPI   C1A 6295   3.098   3.142   9.247 -0.2093  0.0499 -0.1109
  394loPI   C2A 6296   3.063   2.983   8.786 -0.0637  0.2650  0.1257
  394loPI   C3A 6297   3.056   2.973   8.363  0.0902 -0.2680 -0.1476
  394loPI   C4A 6298   3.235   3.218   8.140  0.0775 -0.1026  0.2109
  394loPI   C5A 6299   3.131   3.601   7.861 -0.0833 -0.0257  0.5565
  394loPI   C6A 6300   3.121   4.015   7.824  0.2369 -0.0968  0.2520
  394loPI   C1B 6301   2.677   2.801   9.243 -0.0492  0.2133  0.1975
  394loPI   C2B 6302   2.582   2.870   8.740  0.1514  0.0347 -0.2935
  394loPI   C3B 6303   2.407   2.992   8.435  0.3131 -0.1482  0.1881
  394loPI   C4B 6304   2.304   3.474   8.423  0.3177 -0.0059 -0.0728
  395loPI    C1 6305   6.822   5.326  10.562  0.2105  0.1089 -0.3530
  395loPI    C2 6306   6.504   5.544  10.456  0.1418  0.1952  0.0150
  395loPI    C3 6307   6.460   5.157  10.544  0.1576  0.1819 -0.0351
  395loPI   PO4 6308   6.970   5.462  10.377  0.3708  0.0471  0.0405
  395loPI   GL1 6309   7.102   5.425  10.022  0.0700 -0.1686  0.1067
  395loPI   GL2 6310   7.205   5.123   9.859 -0.1719 -0.0043 -0.3034
  395loPI   C1A 6311   7.330   5.703   9.719 -0.1962  0.3438  0.1075
  395loPI   C2A 6312   7.578   5.736   9.389 -0.1558 -0.0741 -0.4614
  395loPI   C3A 6313   7.600   5.752   8.999 -0.0102  0.0550 -0.0165
  395loPI   C4A 6314   7.643   5.547   8.567 -0.0456 -0.1808  0.0407
  395loPI   C5A 6315   7.529   5.545   8.180  0.0649  0.0049  0.0994
  395loPI   C6A 6316   7.699   5.588   7.752 -0.2238 -0.2946  0.1016
  395loPI   C1B 6317   7.286   5.163   9.315  0.1417  0.2778 -0.2106
  395loPI   C2B 6318   7.397   5.161   8.811 -0.0214  0.1418 -0.2583
  395loPI   C3B 6319   7.541   5.032   8.434 -0.1402 -0.1616 -0.0604
  395loPI   C4B 6320   7.755   4.602   8.292 -0.0477 -0.1206 -0.5530
  396loPI    C1 6321   5.061   6.691  10.491  0.2467 -0.1258  0.2148
  396loPI    C2 6322   4.863   6.885  10.780 -0.0463 -0.0181 -0.0518
  396loPI    C3 6323   4.805   6.493  10.727 -0.1105 -0.0073 -0.0626
  396loPI   PO4 6324   5.054   6.785  10.256  0.1599  0.0845  0.1491
  396loPI   GL1 6325   5.198   6.886   9.956 -0.3956  0.0877  0.1720
  396loPI   GL2 6326   5.535   6.756   9.980 -0.0722  0.1396  0.1888
  396loPI   C1A 6327   5.123   6.789   9.519 -0.2522  0.0371  0.2872
  396loPI   C2A 6328   5.301   6.852   9.089  0.0335  0.0595 -0.0144
  396loPI   C3A 6329   5.155   6.956   8.705  0.0098  0.2963 -0.1588
  396loPI   C4A 6330   5.088   7.169   8.285  0.1519 -0.0509  0.4355
  396loPI   C5A 6331   5.475   7.194   7.958 -0.2156 -0.2994 -0.1380
  396loPI   C6A 6332   5.963   7.053   8.001 -0.0462 -0.2024 -0.3078
  396loPI   C1B 6333   5.640   6.921   9.636 -0.5158  0.0696 -0.2450
  396loPI   C2B 6334   5.865   6.954   9.324 -0.2322  0.3238 -0.2687
  396loPI   C3B 6335   5.765   7.020   8.933  0.0149  0.0237  0.0442
  396loPI   C4B 6336   5.706   7.030   8.484  0.0445  0.0968  0.1995
  397loPI    C1 6337   4.384   7.832  10.777  0.1529  0.1446  0.0383
  397loPI    C2 6338   4.230   7.506  10.950  0.0900  0.2171  0.1195
  397loPI    C3 6339   4.535   7.700  11.123  0.0647  0.2564  0.1202
  397loPI   PO4 6340   4.321   7.841  10.586  0.1532  0.4018  0.0838
  397loPI   GL1 6341   4.162   7.742  10.204  0.0951 -0.0598 -0.3921
  397loPI   GL2 6342   4.359   8.044  10.054 -0.3319  0.0862  0.0550
  397loPI   C1A 6343   4.070   7.753   9.792 -0.1647 -0.2353  0.1268
  397loPI   C2A 6344   3.996   7.871   9.379  0.1300  0.1211 -0.1667
  397loPI   C3A 6345   3.993   7.785   8.927 -0.1672  0.1962  0.2269
  397loPI   C4A 6346   4.184   7.622   8.531 -0.1607  0.2798  0.2156
  397loPI   C5A 6347   4.146   7.654   8.129  0.1850 -0.0272 -0.0888
  397loPI   C6A 6348   4.265   7.672   7.822 -0.0523 -0.3686 -0.2507
  397loPI   C1B 6349   4.096   8.303   9.747 -0.3055 -0.0570 -0.0247
  397loPI   C2B 6350   4.002   8.313   9.258 -0.1907 -0.0449 -0.0086
  397loPI   C3B 6351   3.888   8.343   8.772 -0.1766  0.0235 -0.0516
  397loPI   C4B 6352   3.875   8.116   8.317  0.3501 -0.1649  0.0335
  398loPI    C1 6353   8.354  17.337  10.587  0.0170 -0.1502  0.1000
  398loPI    C2 6354   8.221  17.703  10.678 -0.1756 -0.1543 -0.1542
  398loPI    C3 6355   8.273  17.432  10.967  0.1579  0.1321  0.0628
  398loPI   PO4 6356   8.223  17.306  10.263 -0.0298  0.1418  0.1231
  398loPI   GL1 6357   8.391  17.286   9.881  0.0999  0.1207  0.0937
  398loPI   GL2 6358   8.592  17.446   9.777 -0.0740 -0.2893  0.1539
  398loPI   C1A 6359   8.508  16.916   9.548 -0.2443 -0.2056  0.0209
  398loPI   C2A 6360   8.554  16.928   9.167  0.0584 -0.3803 -0.0813
  398loPI   C3A 6361   8.600  16.862   8.742  0.0012 -0.1931 -0.0920
  398loPI   C4A 6362   8.591  16.915   8.295  0.0481  0.1212  0.4891
  398loPI   C5A 6363   8.575  16.890   7.880  0.1460 -0.0818  0.0404
  398loPI   C6A 6364   8.509  16.459   7.574 -0.1679 -0.0211 -0.2971
  398loPI   C1B 6365   8.643  17.428   9.316  0.2348  0.3045  0.0580
  398loPI   C2B 6366   8.590  17.319   8.877 -0.0017  0.2226  0.1534
  398loPI   C3B 6367   8.305  17.364   8.491 -0.0157  0.0727  0.0467
  398loPI   C4B 6368   8.123  17.337   8.193  0.1803 -0.2779 -0.2617
  399loPI    C1 6369   5.705   7.106  10.828 -0.1902 -0.2302 -0.0428
  399loPI    C2 6370   5.472   7.391  10.670 -0.0786 -0.1712 -0.1024
  399loPI    C3 6371   5.313   7.110  10.906 -0.1467  0.0992  0.1800
  399loPI   PO4 6372   5.873   7.042  10.652  0.1420  0.3698  0.1674
  399loPI   GL1 6373   6.036   6.894  10.223 -0.3422 -0.1407 -0.1121
  399loPI   GL2 6374   5.916   7.176  10.045  0.1081  0.3164 -0.0638
  399loPI   C1A 6375   6.209   6.970   9.715 -0.0905 -0.1500  0.0976
  399loPI   C2A 6376   6.344   6.999   9.310 -0.1041 -0.1594 -0.3259
  399loPI   C3A 6377   6.265   6.971   8.887 -0.1227 -0.1919  0.0772
  399loPI   C4A 6378   6.293   7.096   8.418  0.1355  0.2262 -0.1947
  399loPI   C5A 6379   6.589   7.032   8.152 -0.1457  0.3946 -0.0120
  399loPI   C6A 6380   6.885   7.267   7.885 -0.3157  0.0869  0.0989
  399loPI   C1B 6381   5.965   7.391   9.634  0.0138 -0.0212  0.1320
  399loPI   C2B 6382   6.021   7.356   9.160  0.0783  0.3733  0.0934
  399loPI   C3B 6383   5.985   7.411   8.723 -0.1148  0.0009 -0.3899
  399loPI   C4B 6384   5.785   7.490   8.284 -0.0790 -0.2011 -0.4107
  400loPI    C1 6385  14.481   1.379  10.800  0.1134  0.1263  0.0908
  400loPI    C2 6386  14.441   1.614  11.121  0.3699 -0.0500  0.2551
  400loPI    C3 6387  14.671   1.287  11.140  0.2564 -0.1509 -0.0610
  400loPI   PO4 6388  14.249   1.384  10.672 -0.0535  0.1181 -0.2074
  400loPI   GL1 6389  14.054   1.259  10.255 -0.3082  0.0529 -0.2787
  400loPI   GL2 6390  14.078   1.000  10.118 -0.1896  0.0090 -0.3759
  400loPI   C1A 6391  14.047   1.495   9.867 -0.0235 -0.4395  0.2031
  400loPI   C2A 6392  14.078   1.466   9.411  0.2913 -0.1016 -0.1717
  400loPI   C3A 6393  14.066   1.334   9.027 -0.0681 -0.1129 -0.1367
  400loPI   C4A 6394  14.085   1.069   8.630 -0.0190  0.1541  0.1613
  400loPI   C5A 6395  14.203   0.614   8.425  0.1353 -0.0838  0.0347
  400loPI   C6A 6396  14.414   0.228   8.320  0.0750 -0.0429 -0.2972
  400loPI   C1B 6397  14.186   1.007   9.680 -0.1753 -0.1537 -0.1589
  400loPI   C2B 6398  14.145   0.837   9.296 -0.2010 -0.1242 -0.3368
  400loPI   C3B 6399  13.851   0.705   8.917  0.2744 -0.0014  0.3356
  400loPI   C4B 6400  13.653   0.505   8.547 -0.1108 -0.0138 -0.3090
  401loPI    C1 6401   9.261  15.074  10.332 -0.1726 -0.0081  0.0210
  401loPI    C2 6402   9.578  14.832  10.308 -0.2652 -0.0908 -0.4835
  401loPI    C3 6403   9.232  14.694  10.452 -0.1274 -0.0505 -0.1013
  401loPI   PO4 6404   9.272  15.161  10.038  0.1550 -0.0102 -0.3523
  401loPI   GL1 6405   9.273  15.200   9.733  0.0428  0.0463 -0.1110
  401loPI   GL2 6406   9.083  14.883   9.651  0.1935  0.0865 -0.2201
  401loPI   C1A 6407   9.335  15.375   9.411  0.1374  0.2951  0.1077
  401loPI   C2A 6408   9.250  15.565   9.049 -0.1017  0.2741  0.1134
  401loPI   C3A 6409   9.238  15.432   8.657  0.1301 -0.2366 -0.3503
  401loPI   C4A 6410   8.881  15.379   8.287 -0.2130  0.3869  0.0949
  401loPI   C5A 6411   8.749  15.190   7.734 -0.1931 -0.0545 -0.1030
  401loPI   C6A 6412   8.510  15.074   7.369 -0.0712 -0.0069  0.1910
  401loPI   C1B 6413   9.202  14.686   9.354  0.0560  0.0239  0.1587
  401loPI   C2B 6414   9.253  14.555   8.937  0.0346  0.0780 -0.2345
  401loPI   C3B 6415   9.280  14.374   8.560  0.0038  0.0430 -0.1262
  401loPI   C4B 6416   9.368  14.337   8.048  0.1594  0.0170 -0.0301
  402loPI    C1 6417  14.694  14.227  10.766  0.2233  0.1374  0.2621
  402loPI    C2 6418  14.508  13.874  10.737  0.0717  0.2383 -0.0326
  402loPI    C3 6419  14.779  13.934  11.025 -0.1167 -0.0181  0.2035
  402loPI   PO4 6420  14.737  14.318  10.514 -0.3302  0.1699  0.3481
  402loPI   GL1 6421  14.711  14.242  10.056 -0.1602  0.3778 -0.1713
  402loPI   GL2 6422  14.990  14.249   9.917 -0.0837  0.1461 -0.0374
  402loPI   C1A 6423  14.543  14.073   9.794  0.2530  0.0973 -0.1473
  402loPI   C2A 6424  14.543  14.054   9.300  0.0045  0.2021 -0.0132
  402loPI   C3A 6425  14.725  14.028   8.923 -0.1310  0.1866 -0.1354
  402loPI   C4A 6426  14.752  14.062   8.482  0.2689 -0.2227 -0.0036
  402loPI   C5A 6427  14.492  14.189   8.074 -0.0473  0.1926  0.0811
  402loPI   C6A 6428  14.130  14.264   7.939  0.0616 -0.1698  0.1004
  402loPI   C1B 6429  14.943  14.347   9.552 -0.2910 -0.2280  0.4719
  402loPI   C2B 6430  15.120  14.313   9.091 -0.3674 -0.0534  0.1207
  402loPI   C3B 6431  15.298  14.282   8.709 -0.0472 -0.1764 -0.3194
  402loPI   C4B 6432  15.290  14.098   8.316  0.4657  0.1441 -0.0767
  403loPI    C1 6433  11.639  16.076  10.461 -0.1067  0.1371  0.1684
  403loPI    C2 6434  11.726  15.721  10.622  0.0643  0.1869  0.1883
  403loPI    C3 6435  11.527  15.994  10.836 -0.0788  0.0995  0.1685
  403loPI   PO4 6436  11.552  15.942  10.217  0.0393  0.0396  0.2830
  403loPI   GL1 6437  11.620  16.120   9.820  0.2863 -0.1723 -0.0102
  403loPI   GL2 6438  11.697  15.843   9.722  0.0466 -0.0500  0.0293
  403loPI   C1A 6439  11.450  16.291   9.479  0.1950 -0.0091 -0.0194
  403loPI   C2A 6440  11.497  16.373   8.940  0.2125 -0.1811  0.1311
  403loPI   C3A 6441  11.694  16.457   8.505 -0.1793 -0.2667  0.1629
  403loPI   C4A 6442  11.762  16.627   8.081  0.0202  0.0205 -0.0696
  403loPI   C5A 6443  11.758  17.004   7.916 -0.2532 -0.0100  0.1764
  403loPI   C6A 6444  11.712  17.474   7.772  0.3202  0.2802  0.0015
  403loPI   C1B 6445  11.635  15.880   9.316  0.2150  0.1476 -0.1483
  403loPI   C2B 6446  11.677  15.931   8.879 -0.0047  0.1485 -0.1880
  403loPI   C3B 6447  11.817  15.933   8.482  0.2983 -0.0820  0.1239
  403loPI   C4B 6448  12.070  16.273   8.195 -0.0753  0.0478 -0.1482
  404loPI    C1 6449  16.346   1.333  10.436  0.1016 -0.1097  0.2089
  404loPI    C2 6450  16.087   1.062  10.575 -0.0150 -0.1544 -0.0874
  404loPI    C3 6451  16.120   1.418  10.755 -0.4100 -0.0820 -0.1494
  404loPI   PO4 6452  16.298   1.372  10.184  0.2950  0.3183 -0.0369
  404loPI   GL1 6453  15.994   1.169   9.969  0.2383  0.1528  0.2843
  404loPI   GL2 6454  15.747   0.951  10.103 -0.0542 -0.0170 -0.1567
  404loPI   C1A 6455  16.136   1.072   9.605 -0.0817  0.1281 -0.1206
  404loPI   C2A 6456  16.150   1.012   9.174 -0.0566  0.1762  0.0927
  404loPI   C3A 6457  16.181   0.952   8.665 -0.2387  0.1009 -0.0681
  404loPI   C4A 6458  16.294   0.944   8.191  0.4244  0.0098  0.2403
  404loPI   C5A 6459  15.970   0.899   7.940  0.0435 -0.1299 -0.1697
  404loPI   C6A 6460  15.758   0.566   7.648  0.4546 -0.0263 -0.0000
  404loPI   C1B 6461  15.571   1.003   9.759 -0.0345 -0.1252 -0.1315
  404loPI   C2B 6462  15.665   0.970   9.276 -0.3742 -0.2436 -0.0456
  404loPI   C3B 6463  15.723   0.933   8.932  0.0143  0.3372  0.1357
  404loPI   C4B 6464  15.637   0.833   8.612  0.0458  0.1592 -0.1783
  405loPI    C1 6465   5.193   8.386  10.536  0.0444 -0.1949 -0.0437
  405loPI    C2 6466   5.305   8.171  10.854 -0.0278 -0.1242  0.0299
  405loPI    C3 6467   5.005   8.433  10.886  0.0396 -0.0344 -0.0674
  405loPI   PO4 6468   5.126   8.249  10.299  0.0644  0.3943  0.1115
  405loPI   GL1 6469   5.432   8.261  10.022  0.0737 -0.0771 -0.1468
  405loPI   GL2 6470   5.485   7.977  10.072 -0.0575 -0.2989 -0.0275
  405loPI   C1A 6471   5.400   8.225   9.537 -0.1367 -0.1840 -0.0994
  405loPI   C2A 6472   5.426   8.275   9.158 -0.0530  0.0686 -0.1262
  405loPI   C3A 6473   5.473   8.324   8.763  0.1843  0.2074 -0.3527
  405loPI   C4A 6474   5.496   8.195   8.353  0.1117 -0.1199 -0.0874
  405loPI   C5A 6475   5.937   8.024   8.159  0.1148 -0.0786 -0.1352
  405loPI   C6A 6476   6.437   8.021   8.048 -0.1997 -0.0038 -0.1518
  405loPI   C1B 6477   5.639   7.839   9.729 -0.0813 -0.2000  0.0746
  405loPI   C2B 6478   5.731   7.912   9.421  0.1788 -0.2966  0.1635
  405loPI   C3B 6479   5.761   7.739   9.048  0.1157 -0.1071  0.0547
  405loPI   C4B 6480   5.699   7.841   8.611  0.4167 -0.2425 -0.0886
  406POPI    C1 6481  13.110  18.285  10.776  0.1869 -0.0775  0.1123
  406POPI    C2 6482  13.001  18.529  11.074 -0.1320 -0.0357 -0.0340
  406POPI    C3 6483  12.899  18.143  11.085 -0.0393 -0.0603 -0.0322
  406POPI   PO4 6484  13.049  18.432  10.532 -0.0120  0.1310  0.0083
  406POPI   GL1 6485  13.325  18.644  10.155 -0.0994 -0.1263 -0.1678
  406POPI   GL2 6486  13.583  18.934  10.265  0.0609  0.2836  0.0796
  406POPI   C1A 6487  13.772  18.376   9.953 -0.0094 -0.0614  0.0598
  406POPI   D2A 6488  13.948  18.287   9.626 -0.0285 -0.2784  0.2110
  406POPI   C3A 6489  13.759  17.986   9.321  0.0223 -0.2336 -0.0861
  406POPI   C4A 6490  14.077  18.046   9.024 -0.1422 -0.1571  0.1146
  406POPI   C1B 6491  13.588  18.838   9.810  0.1953  0.0351  0.1030
  406POPI   C2B 6492  13.503  18.856   9.421 -0.1343  0.0401 -0.0336
  406POPI   C3B 6493  13.411  18.707   8.973  0.0238 -0.0795 -0.1202
  406POPI   C4B 6494  13.223  18.479   8.590  0.0984  0.0925  0.1221
  407POPI    C1 6495  15.239  14.373  10.658 -0.0980 -0.0553 -0.0370
  407POPI    C2 6496  15.184  14.015  10.828 -0.0651 -0.0405  0.0046
  407POPI    C3 6497  15.302  14.327  11.050  0.0758 -0.0447 -0.0630
  407POPI   PO4 6498  15.388  14.219  10.408  0.0329  0.0258  0.0250
  407POPI   GL1 6499  15.421  14.366  10.022  0.4616  0.2842 -0.0298
  407POPI   GL2 6500  15.789  14.308  10.121  0.0896  0.1582 -0.0629
  407POPI   C1A 6501  15.433  14.524   9.538 -0.0540  0.0040 -0.2094
  407POPI   D2A 6502  15.165  14.776   9.342  0.0661 -0.0222 -0.0365
  407POPI   C3A 6503  15.313  14.779   8.845 -0.2314 -0.0572  0.0188
  407POPI   C4A 6504  15.272  14.734   8.413  0.0169  0.0013 -0.0428
  407POPI   C1B 6505  15.877  14.325   9.622 -0.0409  0.0303  0.3255
  407POPI   C2B 6506  15.986  14.204   9.229  0.5182 -0.3508 -0.1047
  407POPI   C3B 6507  16.115  14.114   8.850 -0.0290 -0.2895 -0.2667
  407POPI   C4B 6508  16.138  14.012   8.456 -0.1647 -0.2176 -0.1058
  408POPI    C1 6509  15.626   7.782  10.453  0.2252 -0.1317  0.0606
  408POPI    C2 6510  15.326   7.923  10.677  0.1113 -0.1827 -0.0583
  408POPI    C3 6511  15.511   7.583  10.780  0.2053 -0.0910  0.0783
  408POPI   PO4 6512  15.552   7.731  10.237 -0.2371 -0.3063 -0.0882
  408POPI   GL1 6513  15.797   7.767   9.839  0.2339 -0.1579 -0.0727
  408POPI   GL2 6514  15.767   7.451   9.632  0.2733 -0.1256  0.1275
  408POPI   C1A 6515  15.826   7.913   9.426 -0.2402 -0.1442 -0.0213
  408POPI   D2A 6516  15.589   8.018   9.118  0.1622 -0.4439  0.1574
  408POPI   C3A 6517  15.675   8.268   8.797  0.1932 -0.0206 -0.1222
  408POPI   C4A 6518  15.963   8.242   8.439  0.3721 -0.0657 -0.1234
  408POPI   C1B 6519  15.819   7.556   9.126 -0.1398  0.3592 -0.2274
  408POPI   C2B 6520  15.958   7.802   8.822 -0.0131  0.2117  0.0629
  408POPI   C3B 6521  16.300   7.863   8.495  0.0771 -0.0415 -0.1347
  408POPI   C4B 6522  16.597   8.076   8.207  0.0898  0.1540 -0.2970
  409POPI    C1 6523   8.973   8.826  10.604 -0.2769 -0.0013  0.0985
  409POPI    C2 6524   8.979   9.126  10.870 -0.0551  0.0837 -0.0000
  409POPI    C3 6525   9.169   8.783  10.950  0.0761  0.1373 -0.0796
  409POPI   PO4 6526   8.961   8.932  10.384 -0.3092  0.3592 -0.0269
  409POPI   GL1 6527   8.598   9.157  10.145 -0.1816 -0.0914 -0.1688
  409POPI   GL2 6528   8.739   9.311   9.975  0.1270 -0.1061  0.1350
  409POPI   C1A 6529   8.620   9.036   9.590  0.0974  0.1087  0.1520
  409POPI   D2A 6530   8.473   8.916   9.265  0.1474 -0.1800 -0.2515
  409POPI   C3A 6531   8.414   8.913   8.877  0.1584 -0.1071  0.0828
  409POPI   C4A 6532   8.290   8.863   8.384 -0.1177  0.5623  0.2188
  409POPI   C1B 6533   8.788   9.557   9.691  0.0262  0.1676 -0.2271
  409POPI   C2B 6534   8.864   9.397   9.363  0.0912  0.1860  0.0472
  409POPI   C3B 6535   8.825   9.239   8.932 -0.0669 -0.1107  0.0760
  409POPI   C4B 6536   9.065   9.410   8.432  0.1690  0.0934 -0.1893
  410POPI    C1 6537   7.835   1.809  10.715  0.0764  0.0345  0.1490
  410POPI    C2 6538   7.723   1.502  10.485  0.1668  0.0817  0.0409
  410POPI    C3 6539   7.553   1.557  10.843 -0.0377  0.0586 -0.0509
  410POPI   PO4 6540   7.844   2.006  10.471  0.3010 -0.3329  0.1042
  410POPI   GL1 6541   8.028   2.136  10.047 -0.2317  0.1230  0.1062
  410POPI   GL2 6542   7.812   2.402   9.821  0.0950  0.2925 -0.1989
  410POPI   C1A 6543   8.379   2.077   9.716 -0.0686  0.1852 -0.2847
  410POPI   D2A 6544   8.616   1.920   9.411  0.2189  0.1630 -0.1187
  410POPI   C3A 6545   8.506   1.998   9.090 -0.3718 -0.0109 -0.0427
  410POPI   C4A 6546   8.473   1.980   8.665  0.0807  0.1106  0.1209
  410POPI   C1B 6547   7.750   2.390   9.438 -0.0290 -0.1024  0.1020
  410POPI   C2B 6548   7.732   2.479   8.994 -0.0179 -0.0614  0.3523
  410POPI   C3B 6549   7.631   2.494   8.517  0.0079 -0.1235  0.0835
  410POPI   C4B 6550   7.803   2.226   8.274  0.0416  0.1178 -0.1311
  411POPI    C1 6551  14.935  15.827  10.450  0.0202 -0.0309 -0.0114
  411POPI    C2 6552  14.561  15.917  10.560  0.0488  0.0457  0.0236
  411POPI    C3 6553  14.786  15.678  10.790 -0.1158 -0.3337 -0.1988
  411POPI   PO4 6554  14.955  15.962  10.276 -0.0463 -0.0036 -0.1074
  411POPI   GL1 6555  14.960  16.100   9.913 -0.2577  0.0694  0.0716
  411POPI   GL2 6556  14.982  16.406   9.864 -0.0123  0.2140 -0.2540
  411POPI   C1A 6557  14.866  16.100   9.396  0.0494 -0.0255  0.0742
  411POPI   D2A 6558  14.595  16.030   9.029 -0.0147 -0.0422  0.0258
  411POPI   C3A 6559  14.545  16.070   8.639 -0.1506  0.0018  0.4155
  411POPI   C4A 6560  14.654  16.361   8.283  0.0732  0.0720 -0.1428
  411POPI   C1B 6561  14.886  16.599   9.495  0.0887 -0.0767 -0.0168
  411POPI   C2B 6562  14.724  16.531   9.039  0.1289 -0.3742  0.2694
  411POPI   C3B 6563  14.800  16.715   8.672  0.0489  0.4361  0.1493
  411POPI   C4B 6564  15.052  16.629   8.277 -0.0432  0.2176  0.2678
  412POPI    C1 6565  14.947   7.839  10.361  0.1451  0.0523  0.0604
  412POPI    C2 6566  15.147   7.506  10.456 -0.0395 -0.0965 -0.0637
  412POPI    C3 6567  14.868   7.650  10.704  0.1902  0.0892  0.0911
  412POPI   PO4 6568  15.109   8.002  10.229 -0.0668  0.2126 -0.2473
  412POPI   GL1 6569  15.390   8.042   9.899  0.1405  0.0831 -0.0258
  412POPI   GL2 6570  15.346   7.881   9.612  0.0275  0.1474  0.1585
  412POPI   C1A 6571  15.700   8.338   9.705  0.7332  0.3084 -0.0443
  412POPI   D2A 6572  15.623   8.500   9.373  0.0228  0.2571 -0.0121
  412POPI   C3A 6573  16.050   8.297   9.157  0.0056 -0.2408 -0.0042
  412POPI   C4A 6574  16.304   8.028   9.230 -0.0813  0.1584 -0.3043
  412POPI   C1B 6575  15.216   7.707   9.160 -0.1640 -0.1179 -0.2022
  412POPI   C2B 6576  15.396   7.622   8.800  0.1232  0.1568  0.0491
  412POPI   C3B 6577  15.575   7.814   8.449  0.0054 -0.2529  0.5579
  412POPI   C4B 6578  15.962   7.741   8.101 -0.3289 -0.0427  0.0788
  413POPI    C1 6579  12.952   3.288  10.573  0.2140 -0.1459  0.4298
  413POPI    C2 6580  12.600   3.372  10.744 -0.0159 -0.0555 -0.0687
  413POPI    C3 6581  12.931   3.564  10.861 -0.2213  0.2298  0.0561
  413POPI   PO4 6582  12.871   3.319  10.271  0.1594 -0.0632 -0.1852
  413POPI   GL1 6583  13.133   3.266   9.963 -0.1815  0.0748 -0.1462
  413POPI   GL2 6584  13.072   3.589   9.915 -0.0615 -0.0220 -0.0451
  413POPI   C1A 6585  13.279   3.017   9.535  0.1004 -0.0223 -0.0357
  413POPI   D2A 6586  13.220   2.873   9.250  0.1425 -0.1503  0.2252
  413POPI   C3A 6587  13.028   2.881   8.873 -0.1219  0.0698 -0.1434
  413POPI   C4A 6588  12.900   2.857   8.472 -0.2996  0.0371  0.2295
  413POPI   C1B 6589  12.994   3.409   9.497 -0.0380  0.0169  0.2452
  413POPI   C2B 6590  12.869   3.428   9.104 -0.1139  0.0151  0.0035
  413POPI   C3B 6591  12.752   3.722   8.601  0.2455  0.3737  0.0450
  413POPI   C4B 6592  12.832   3.740   8.253  0.0344  0.0393  0.0599
  414POPI    C1 6593  15.460  12.195  10.663 -0.0005  0.0662 -0.0947
  414POPI    C2 6594  15.232  12.523  10.631  0.0948  0.1300 -0.1217
  414POPI    C3 6595  15.559  12.528  10.862  0.0101  0.0055  0.0023
  414POPI   PO4 6596  15.448  12.151  10.323 -0.1600  0.2559 -0.2740
  414POPI   GL1 6597  15.425  11.959   9.879 -0.0036 -0.1143  0.1899
  414POPI   GL2 6598  15.546  12.366   9.879  0.1511  0.0833 -0.2276
  414POPI   C1A 6599  15.538  12.023   9.428  0.3302  0.0291  0.1808
  414POPI   D2A 6600  15.294  11.785   9.126 -0.2243 -0.0395  0.0166
  414POPI   C3A 6601  14.922  11.503   9.152 -0.0569  0.1942 -0.0504
  414POPI   C4A 6602  14.795  11.353   9.445  0.0563 -0.0631 -0.0448
  414POPI   C1B 6603  15.940  12.107   9.757 -0.1313  0.0054 -0.2890
  414POPI   C2B 6604  16.053  12.074   9.337 -0.2026  0.3623 -0.4075
  414POPI   C3B 6605  15.870  11.916   8.987 -0.3220  0.1400 -0.0300
  414POPI   C4B 6606  15.946  11.951   8.562  0.0972 -0.0181  0.2115
  415POPI    C1 6607  12.063  17.663  10.736 -0.0669 -0.0753 -0.0389
  415POPI    C2 6608  11.798  17.455  10.951 -0.3125  0.0334 -0.2324
  415POPI    C3 6609  11.998  17.757  11.119 -0.0321 -0.2853  0.0197
  415POPI   PO4 6610  11.954  17.762  10.518 -0.0546 -0.0612  0.2169
  415POPI   GL1 6611  11.926  17.917  10.055  0.0203 -0.1967 -0.3573
  415POPI   GL2 6612  11.958  17.633  10.050  0.1134 -0.1066 -0.0924
  415POPI   C1A 6613  11.991  17.934   9.605  0.3272 -0.1949 -0.0728
  415POPI   D2A 6614  11.984  17.913   9.218  0.1555 -0.3938  0.1180
  415POPI   C3A 6615  12.108  18.063   8.875  0.1827  0.0571 -0.3878
  415POPI   C4A 6616  12.310  18.128   8.410 -0.0449  0.0182 -0.1167
  415POPI   C1B 6617  12.411  17.847   9.969  0.0103 -0.1379 -0.0036
  415POPI   C2B 6618  12.601  18.140   9.585 -0.0878  0.0529 -0.1149
  415POPI   C3B 6619  12.727  18.262   9.317 -0.1070  0.2723 -0.1761
  415POPI   C4B 6620  12.973  18.198   8.833  0.0059  0.1462 -0.1498
  416POPI    C1 6621  16.453  17.263  10.915 -0.2893 -0.0128 -0.0219
  416POPI    C2 6622  16.482  17.652  11.004  0.1228 -0.0491  0.0183
  416POPI    C3 6623  16.416  17.385  11.294 -0.2135 -0.0074 -0.0163
  416POPI   PO4 6624  16.744  17.213  10.702  0.0190  0.1454 -0.1208
  416POPI   GL1 6625  16.888  17.454  10.287  0.0104 -0.0045  0.4546
  416POPI   GL2 6626  17.001  17.602  10.080  0.2411 -0.0980 -0.0828
  416POPI   C1A 6627  16.534  17.339  10.050 -0.0300  0.3245  0.1384
  416POPI   D2A 6628  16.290  17.364   9.660  0.0958  0.0501 -0.0306
  416POPI   C3A 6629  16.241  17.365   9.268 -0.0090 -0.1135  0.0497
  416POPI   C4A 6630  16.017  17.557   8.966  0.1225  0.2805 -0.3023
  416POPI   C1B 6631  16.834  17.566   9.721 -0.1677 -0.0489 -0.0551
  416POPI   C2B 6632  16.793  17.540   9.358 -0.2315  0.1720  0.1230
  416POPI   C3B 6633  16.655  17.440   8.921 -0.2871  0.2732  0.0209
  416POPI   C4B 6634  16.744  17.296   8.487 -0.0979 -0.0907  0.0581
  417POPI    C1 6635   1.369   2.127  10.722  0.0846  0.0220 -0.1521
  417POPI    C2 6636   1.014   2.120  10.538 -0.0213  0.4481  0.0231
  417POPI    C3 6637   1.033   2.146  10.937  0.2091 -0.1575  0.0629
  417POPI   PO4 6638   1.538   2.225  10.526  0.4900  0.1843 -0.1006
  417POPI   GL1 6639   1.452   1.999  10.195 -0.0313  0.1521  0.0536
  417POPI   GL2 6640   1.631   1.809  10.134  0.1195  0.0532  0.0890
  417POPI   C1A 6641   1.375   2.167   9.825  0.1397 -0.1570 -0.1772
  417POPI   D2A 6642   1.173   2.357   9.601  0.1642  0.1339 -0.2514
  417POPI   C3A 6643   0.714   2.180   9.552 -0.1758 -0.3613 -0.2436
  417POPI   C4A 6644   0.349   2.355   9.634  0.1951  0.0109  0.0982
  417POPI   C1B 6645   1.634   1.820   9.665 -0.2631  0.0236  0.2028
  417POPI   C2B 6646   1.658   1.852   9.152 -0.0050  0.0298 -0.1233
  417POPI   C3B 6647   1.577   1.750   8.778 -0.2074 -0.1253  0.1908
  417POPI   C4B 6648   1.694   1.957   8.489  0.0570 -0.3428 -0.1424
  418POPI    C1 6649  11.072  13.387  10.347  0.0191  0.0193 -0.0060
  418POPI    C2 6650  11.055  13.172  10.684 -0.1113 -0.0218 -0.0385
  418POPI    C3 6651  11.100  13.569  10.703 -0.2355 -0.0105  0.0305
  418POPI   PO4 6652  11.085  13.205  10.167 -0.3653 -0.2352  0.1594
  418POPI   GL1 6653  10.950  13.269   9.732 -0.0821  0.0913 -0.0795
  418POPI   GL2 6654  11.264  13.228   9.689 -0.1244  0.2149 -0.2034
  418POPI   C1A 6655  10.912  13.211   9.313 -0.0669  0.1382 -0.1550
  418POPI   D2A 6656  10.970  13.393   8.897  0.1093 -0.1417 -0.3099
  418POPI   C3A 6657  10.926  13.234   8.567 -0.0739 -0.0711  0.0394
  418POPI   C4A 6658  10.717  12.977   8.332  0.0079  0.0656 -0.0653
  418POPI   C1B 6659  11.370  13.061   9.246 -0.1173 -0.0524 -0.2051
  418POPI   C2B 6660  11.503  13.090   8.780  0.0919 -0.0706 -0.1728
  418POPI   C3B 6661  11.710  12.892   8.391  0.1072  0.2769  0.4262
  418POPI   C4B 6662  11.852  12.727   7.943 -0.2026 -0.0214 -0.0662
  419POPI    C1 6663   4.371   9.023  10.618  0.1506  0.0196  0.0601
  419POPI    C2 6664   4.302   9.416  10.643  0.0127 -0.0074  0.1134
  419POPI    C3 6665   4.305   9.192  10.975  0.2409 -0.0271  0.0993
  419POPI   PO4 6666   4.222   8.957  10.356  0.2449  0.3108 -0.0356
  419POPI   GL1 6667   4.357   8.890  10.015 -0.0979  0.0101 -0.0486
  419POPI   GL2 6668   4.423   8.632   9.972 -0.0478 -0.0016  0.1056
  419POPI   C1A 6669   4.362   9.187   9.669 -0.3200  0.1216 -0.0841
  419POPI   D2A 6670   4.055   9.246   9.305  0.2782  0.3487  0.2840
  419POPI   C3A 6671   4.072   9.321   8.898 -0.2131  0.2852  0.0897
  419POPI   C4A 6672   3.898   9.301   8.417 -0.3607 -0.2365 -0.0402
  419POPI   C1B 6673   4.617   8.659   9.612  0.1033  0.0119  0.0180
  419POPI   C2B 6674   4.484   8.613   9.104 -0.1307  0.2294 -0.1715
  419POPI   C3B 6675   4.664   8.654   8.669  0.1633 -0.1006 -0.2407
  419POPI   C4B 6676   4.708   8.766   8.278 -0.2694  0.3470 -0.3674
  420POPI    C1 6677  13.169  17.657  10.779  0.1533 -0.0072  0.1524
  420POPI    C2 6678  13.372  17.902  11.021 -0.0211 -0.0101  0.3038
  420POPI    C3 6679  13.302  17.524  11.132  0.1682 -0.1043  0.1107
  420POPI   PO4 6680  13.366  17.649  10.538 -0.0927  0.0528 -0.1617
  420POPI   GL1 6681  13.144  17.570  10.149 -0.0271 -0.0398  0.2310
  420POPI   GL2 6682  12.839  17.642  10.067  0.1302 -0.0222  0.0711
  420POPI   C1A 6683  13.378  17.185   9.849 -0.2112  0.0334  0.1266
  420POPI   D2A 6684  13.702  17.181   9.437 -0.2378 -0.0376 -0.0135
  420POPI   C3A 6685  13.436  17.244   9.052  0.0667  0.1982 -0.2580
  420POPI   C4A 6686  13.620  17.124   8.666 -0.0382  0.0364  0.1175
  420POPI   C1B 6687  12.952  17.742   9.619  0.2352 -0.0144  0.3232
  420POPI   C2B 6688  12.995  17.810   9.234  0.2399  0.0703  0.2038
  420POPI   C3B 6689  13.163  17.700   8.848  0.2410 -0.1438 -0.1084
  420POPI   C4B 6690  13.143  17.900   8.482  0.0869 -0.0500 -0.0847
  421POPI    C1 6691   5.321  11.017  10.219  0.1728  0.3692 -0.1525
  421POPI    C2 6692   5.313  11.041  10.618  0.2199  0.1860 -0.1395
  421POPI    C3 6693   5.029  11.221  10.401  0.0922  0.1362 -0.0157
  421POPI   PO4 6694   5.524  11.114  10.099 -0.0871 -0.0058  0.1726
  421POPI   GL1 6695   5.869  11.159   9.745  0.2824 -0.0729  0.0600
  421POPI   GL2 6696   6.196  11.007   9.766 -0.0642 -0.1650  0.0428
  421POPI   C1A 6697   5.932  10.985   9.358 -0.3493  0.2258 -0.1145
  421POPI   D2A 6698   5.820  10.971   8.929 -0.0451 -0.0286 -0.1245
  421POPI   C3A 6699   5.919  11.018   8.561 -0.0366 -0.0349 -0.2777
  421POPI   C4A 6700   5.978  11.130   8.160 -0.1447  0.1600  0.5477
  421POPI   C1B 6701   6.489  10.752   9.539 -0.3659 -0.1606 -0.2786
  421POPI   C2B 6702   6.425  10.676   9.158  0.1396 -0.1726  0.1291
  421POPI   C3B 6703   6.235  10.650   8.825 -0.0879  0.0007 -0.1852
  421POPI   C4B 6704   6.025  10.571   8.403  0.1027  0.0911 -0.2880
  422POPI    C1 6705   5.631   2.307  10.407  0.2214 -0.0148  0.0687
  422POPI    C2 6706   5.589   2.565  10.710 -0.1869 -0.1612  0.1426
  422POPI    C3 6707   5.681   2.183  10.784 -0.0521 -0.1442  0.0650
  422POPI   PO4 6708   5.793   2.552  10.201  0.4072 -0.0152 -0.2020
  422POPI   GL1 6709   6.002   2.566   9.831 -0.0570 -0.1165  0.1791
  422POPI   GL2 6710   5.802   2.525   9.550 -0.1409  0.0595 -0.0054
  422POPI   C1A 6711   6.258   2.204   9.675  0.0312  0.0758 -0.2079
  422POPI   D2A 6712   6.327   1.979   9.326 -0.1447  0.2687 -0.1075
  422POPI   C3A 6713   6.349   2.102   8.970  0.0186 -0.1814  0.0821
  422POPI   C4A 6714   6.466   2.078   8.598 -0.0479  0.0700  0.1957
  422POPI   C1B 6715   5.987   2.406   9.176  0.1827  0.1392  0.0243
  422POPI   C2B 6716   6.135   2.458   8.701 -0.0759  0.1249 -0.3605
  422POPI   C3B 6717   6.046   2.601   8.279  0.0498  0.0400 -0.1254
  422POPI   C4B 6718   5.878   2.679   7.830 -0.0091  0.0990 -0.2302
  423POPI    C1 6719   2.070  14.878  10.207  0.2550  0.0481 -0.0418
  423POPI    C2 6720   1.873  15.153  10.420  0.1788 -0.0304 -0.0101
  423POPI    C3 6721   2.268  15.187  10.365  0.1805  0.0489  0.0504
  423POPI   PO4 6722   1.928  14.908   9.963  0.1355  0.2380  0.2167
  423POPI   GL1 6723   2.023  14.857   9.522 -0.3169  0.0238  0.0784
  423POPI   GL2 6724   1.760  14.621   9.601  0.2288 -0.0673  0.2358
  423POPI   C1A 6725   2.114  15.039   9.112  0.0378 -0.2540  0.0264
  423POPI   D2A 6726   2.036  15.039   8.710 -0.0439  0.1155  0.0924
  423POPI   C3A 6727   2.324  15.280   8.459 -0.1742 -0.0229 -0.0510
  423POPI   C4A 6728   2.708  15.437   8.423 -0.0443 -0.0663 -0.0069
  423POPI   C1B 6729   1.655  14.754   9.149  0.0557  0.0557  0.0491
  423POPI   C2B 6730   1.623  14.738   8.705  0.1184  0.2352  0.1405
  423POPI   C3B 6731   1.763  14.888   8.334  0.3165 -0.1001  0.2009
  423POPI   C4B 6732   2.035  14.951   7.983 -0.2491  0.0614 -0.0556
  424POPI    C1 6733  11.217  11.989  10.013 -0.0699  0.2345  0.3327
  424POPI    C2 6734  11.022  12.333  10.070  0.0681  0.3795 -0.0392
  424POPI    C3 6735  11.402  12.337   9.943  0.1655  0.0918  0.2310
  424POPI   PO4 6736  11.080  11.844   9.934 -0.0309  0.1333  0.0836
  424POPI   GL1 6737  11.105  11.708   9.518  0.1680 -0.2359  0.4205
  424POPI   GL2 6738  10.766  11.687   9.571  0.0125  0.3339 -0.1536
  424POPI   C1A 6739  11.086  11.609   9.049  0.0495 -0.1262  0.0882
  424POPI   D2A 6740  11.074  11.659   8.630  0.1096 -0.1037 -0.0881
  424POPI   C3A 6741  11.199  11.423   8.277  0.0675 -0.2518  0.1006
  424POPI   C4A 6742  11.179  11.507   7.860 -0.1699  0.1210  0.2408
  424POPI   C1B 6743  10.829  12.087   9.255 -0.3895  0.5000 -0.2855
  424POPI   C2B 6744  11.030  12.279   8.887 -0.1590 -0.2195  0.2843
  424POPI   C3B 6745  10.900  12.113   8.562 -0.0715  0.2781  0.0140
  424POPI   C4B 6746  11.115  11.926   8.232  0.2746 -0.0582 -0.0475
  425POPI    C1 6747  13.164  14.381  10.592  0.0956 -0.1459  0.0495
  425POPI    C2 6748  12.787  14.266  10.657  0.0525 -0.0044  0.0553
  425POPI    C3 6749  13.088  14.011  10.723 -0.0496 -0.1612 -0.0740
  425POPI   PO4 6750  13.105  14.482  10.298  0.0763  0.0857  0.0532
  425POPI   GL1 6751  12.879  14.682   9.925 -0.3631 -0.0692  0.0831
  425POPI   GL2 6752  12.849  14.962   9.842  0.0868  0.2433 -0.3105
  425POPI   C1A 6753  13.074  14.572   9.497 -0.1726 -0.0064  0.0603
  425POPI   D2A 6754  13.202  14.548   9.094  0.3657 -0.0759 -0.3828
  425POPI   C3A 6755  13.136  14.634   8.709 -0.0647  0.0851 -0.0490
  425POPI   C4A 6756  13.154  14.936   8.341 -0.0869 -0.1136  0.2539
  425POPI   C1B 6757  12.966  15.049   9.455 -0.2528  0.0185 -0.4117
  425POPI   C2B 6758  12.911  15.169   9.038 -0.1485 -0.2671 -0.0007
  425POPI   C3B 6759  12.953  15.197   8.659  0.0506  0.0769 -0.0896
  425POPI   C4B 6760  12.908  15.369   8.329 -0.1135 -0.1249 -0.2740
  426POPI    C1 6761   7.778  17.108  10.405 -0.0420  0.1048 -0.0321
  426POPI    C2 6762   7.418  17.090  10.579  0.0231 -0.1566  0.0801
  426POPI    C3 6763   7.656  16.768  10.577  0.1326 -0.0772 -0.2617
  426POPI   PO4 6764   7.727  17.140  10.131  0.1834  0.1848 -0.0097
  426POPI   GL1 6765   7.902  17.285   9.794  0.0881 -0.0321  0.1915
  426POPI   GL2 6766   7.590  17.557   9.838 -0.0068  0.1405 -0.0896
  426POPI   C1A 6767   8.126  17.191   9.371 -0.2709  0.2303  0.0148
  426POPI   D2A 6768   8.137  17.075   8.932 -0.1665  0.0532  0.1222
  426POPI   C3A 6769   7.850  17.305   8.704  0.1462 -0.0182 -0.0217
  426POPI   C4A 6770   7.611  17.666   8.655 -0.5669 -0.2843 -0.1207
  426POPI   C1B 6771   7.576  17.377   9.396  0.0326  0.0473  0.0849
  426POPI   C2B 6772   7.422  17.541   9.086  0.0640  0.2248  0.1947
  426POPI   C3B 6773   7.009  17.692   8.830 -0.1859  0.1866 -0.1713
  426POPI   C4B 6774   6.753  18.034   8.635 -0.1130  0.0821  0.1956
  427POPI    C1 6775  11.496   9.787  10.072  0.0405  0.0077 -0.2168
  427POPI    C2 6776  11.387   9.403  10.049  0.1496 -0.0308 -0.1009
  427POPI    C3 6777  11.109   9.691  10.040  0.0287 -0.1302  0.2547
  427POPI   PO4 6778  11.691   9.807   9.951 -0.0173  0.1827  0.0266
  427POPI   GL1 6779  11.651   9.820   9.541  0.2497 -0.3318 -0.0308
  427POPI   GL2 6780  11.836  10.147   9.622  0.0321  0.1042 -0.3563
  427POPI   C1A 6781  11.760   9.839   9.071  0.1881  0.2332  0.1492
  427POPI   D2A 6782  11.626   9.815   8.725  0.2643 -0.1774  0.1129
  427POPI   C3A 6783  11.899   9.547   8.464 -0.4162  0.0835 -0.0533
  427POPI   C4A 6784  11.917   9.385   8.095 -0.1861 -0.0135 -0.0688
  427POPI   C1B 6785  12.210  10.052   9.475  0.0290 -0.1640 -0.1114
  427POPI   C2B 6786  12.294   9.936   9.189 -0.1661 -0.1056 -0.1458
  427POPI   C3B 6787  12.313   9.893   8.742 -0.3137 -0.0127  0.1068
  427POPI   C4B 6788  12.065   9.984   8.262 -0.0988  0.2784 -0.1157
  428POPI    C1 6789  16.590   3.321  10.291 -0.3400 -0.1653 -0.0292
  428POPI    C2 6790  16.588   3.718  10.339  0.1486 -0.1438 -0.1349
  428POPI    C3 6791  16.382   3.485  10.591  0.0975  0.1574  0.1083
  428POPI   PO4 6792  16.657   3.300  10.071  0.1008 -0.3954  0.2979
  428POPI   GL1 6793  16.414   3.322   9.664  0.3568 -0.0528  0.1639
  428POPI   GL2 6794  16.620   3.235   9.555 -0.2614  0.1207  0.1175
  428POPI   C1A 6795  16.334   3.455   9.244 -0.1517 -0.0588 -0.2958
  428POPI   D2A 6796  16.396   3.369   8.796  0.0761  0.2139  0.0248
  428POPI   C3A 6797  16.684   3.225   8.553  0.1130 -0.2518 -0.2041
  428POPI   C4A 6798  16.567   3.226   8.145 -0.2185  0.0565 -0.1496
  428POPI   C1B 6799  16.862   3.131   9.181 -0.0472  0.1629 -0.1864
  428POPI   C2B 6800  16.781   2.863   8.854 -0.0335 -0.2020  0.0064
  428POPI   C3B 6801  16.730   2.721   8.454 -0.1463 -0.0693  0.1952
  428POPI   C4B 6802  16.658   2.407   8.210  0.1842 -0.3453 -0.2148
  429POPI    C1 6803   8.300   4.521  10.895  0.2456 -0.3932  0.1377
  429POPI    C2 6804   8.115   4.700  11.202 -0.2404  0.1615 -0.4484
  429POPI    C3 6805   8.483   4.816  11.095 -0.0796 -0.0162 -0.1046
  429POPI   PO4 6806   8.109   4.464  10.717 -0.2665 -0.2907  0.3591
  429POPI   GL1 6807   7.951   4.323  10.246  0.1320  0.0920  0.1049
  429POPI   GL2 6808   7.690   4.564  10.415 -0.0726  0.1177  0.2092
  429POPI   C1A 6809   8.263   4.174   9.998 -0.0308  0.1100 -0.2907
  429POPI   D2A 6810   8.370   4.261   9.678  0.0815  0.0391 -0.0257
  429POPI   C3A 6811   8.220   4.210   9.239  0.0374  0.0765  0.4222
  429POPI   C4A 6812   7.963   3.813   8.985  0.0792  0.0765 -0.0856
  429POPI   C1B 6813   7.518   4.512  10.026 -0.0163  0.1001  0.4667
  429POPI   C2B 6814   7.480   4.711   9.632  0.1739  0.1867 -0.1583
  429POPI   C3B 6815   7.567   4.627   9.200  0.0702 -0.1811  0.0372
  429POPI   C4B 6816   7.421   4.593   8.721 -0.0094 -0.0175  0.0654
  430POPI    C1 6817   7.335  18.246  10.191  0.0943 -0.0403 -0.0604
  430POPI    C2 6818   7.070  18.094   9.932 -0.1329 -0.0749  0.1873
  430POPI    C3 6819   7.254  18.441   9.851 -0.1137 -0.1434 -0.0714
  430POPI   PO4 6820   7.512  18.011  10.161 -0.0242  0.0496 -0.1303
  430POPI   GL1 6821   7.640  18.034   9.826 -0.0499  0.1882 -0.2466
  430POPI   GL2 6822   7.876  18.167   9.728 -0.1772  0.0349 -0.0608
  430POPI   C1A 6823   7.422  17.965   9.573 -0.0361  0.1450  0.0388
  430POPI   D2A 6824   7.386  18.064   9.152  0.0156  0.1562  0.0717
  430POPI   C3A 6825   7.335  18.102   8.692  0.1153 -0.0269  0.2650
  430POPI   C4A 6826   7.151  18.215   8.272 -0.1520  0.0783 -0.1304
  430POPI   C1B 6827   7.815  18.217   9.358  0.2075  0.2317 -0.3127
  430POPI   C2B 6828   7.838  18.195   8.964  0.1629 -0.1284 -0.0999
  430POPI   C3B 6829   7.767  18.235   8.507  0.0433  0.1468 -0.1806
  430POPI   C4B 6830   7.724  18.051   8.100  0.1179  0.0033 -0.0557
  431POPI    C1 6831  16.523   0.207  10.771 -0.1704 -0.2597 -0.2255
  431POPI    C2 6832  16.631  -0.157  10.897  0.0357 -0.1135  0.0307
  431POPI    C3 6833  16.490   0.111  11.158  0.0751  0.0571 -0.1220
  431POPI   PO4 6834  16.431   0.132  10.550 -0.1744  0.0826 -0.2402
  431POPI   GL1 6835  16.430   0.148  10.138 -0.3548  0.1892 -0.1899
  431POPI   GL2 6836  16.794   0.187  10.045  0.0010 -0.5458  0.1896
  431POPI   C1A 6837  16.418  -0.295   9.883 -0.0393 -0.0838 -0.1591
  431POPI   D2A 6838  16.354  -0.478   9.530 -0.0309  0.0958  0.1358
  431POPI   C3A 6839  16.315  -0.371   9.064  0.0461  0.0813  0.4173
  431POPI   C4A 6840  16.081  -0.383   8.658  0.1560 -0.1097  0.0435
  431POPI   C1B 6841  16.455   0.192   9.665 -0.0078  0.2115  0.0317
  431POPI   C2B 6842  16.360   0.153   9.280  0.2877  0.0622  0.0409
  431POPI   C3B 6843  16.428   0.010   8.822 -0.2909 -0.1110 -0.3486
  431POPI   C4B 6844  16.382  -0.062   8.437 -0.1199  0.0754 -0.0347
  432POPI    C1 6845   0.211   9.619  10.809 -0.2075  0.1878 -0.0842
  432POPI    C2 6846  -0.187   9.621  10.762 -0.2160  0.1638 -0.0151
  432POPI    C3 6847  -0.019   9.382  11.035 -0.1437  0.0787 -0.1331
  432POPI   PO4 6848   0.330   9.693  10.508 -0.0375 -0.3667 -0.0364
  432POPI   GL1 6849   0.325   9.804  10.088 -0.2396 -0.0351 -0.0905
  432POPI   GL2 6850   0.565  10.008  10.029 -0.1448 -0.0459 -0.1087
  432POPI   C1A 6851   0.155   9.762   9.740 -0.1389 -0.5250 -0.1120
  432POPI   D2A 6852   0.103   9.827   9.277 -0.0193  0.0005 -0.0682
  432POPI   C3A 6853   0.149   9.835   8.876  0.0914 -0.0797 -0.2027
  432POPI   C4A 6854   0.091   9.845   8.385  0.1070  0.0344 -0.1954
  432POPI   C1B 6855   0.564   9.874   9.506  0.0352 -0.2994  0.0513
  432POPI   C2B 6856   0.575  10.026   9.100 -0.6146 -0.0369  0.0707
  432POPI   C3B 6857   0.661  10.106   8.701 -0.1914 -0.0154  0.2416
  432POPI   C4B 6858   0.646   9.971   8.283 -0.0353 -0.0237  0.1615
  433POPI    C1 6859   0.781   6.525  10.673  0.0239 -0.0818 -0.1881
  433POPI    C2 6860   0.527   6.692  10.413 -0.2122 -0.2650 -0.0794
  433POPI    C3 6861   0.563   6.842  10.781 -0.1294 -0.2128 -0.1084
  433POPI   PO4 6862   0.725   6.282  10.634  0.3913 -0.1455  0.2264
  433POPI   GL1 6863   0.538   6.228  10.183  0.2389  0.1344 -0.1936
  433POPI   GL2 6864   0.881   6.325  10.129 -0.0187 -0.1193 -0.2809
  433POPI   C1A 6865   0.326   6.295   9.794  0.3408 -0.1178 -0.2222
  433POPI   D2A 6866   0.300   6.429   9.331 -0.2483  0.0894  0.2072
  433POPI   C3A 6867   0.377   6.525   8.827  0.1978  0.0884  0.0811
  433POPI   C4A 6868   0.426   6.388   8.419  0.0142 -0.4949  0.1495
  433POPI   C1B 6869   0.833   6.518   9.799 -0.0006 -0.0272 -0.2603
  433POPI   C2B 6870   0.790   6.534   9.429  0.0784  0.0816 -0.2889
  433POPI   C3B 6871   0.806   6.547   9.001 -0.0752 -0.2186  0.2453
  433POPI   C4B 6872   0.882   6.544   8.563  0.0908 -0.1770 -0.2950
  434POPI    C1 6873  13.150  10.187  10.397  0.0825  0.0321  0.0244
  434POPI    C2 6874  13.519  10.172  10.550  0.2037 -0.0455 -0.2697
  434POPI    C3 6875  13.269  10.464  10.660  0.2040 -0.2314  0.2529
  434POPI   PO4 6876  13.147  10.126  10.176 -0.2319 -0.0156 -0.1583
  434POPI   GL1 6877  13.279  10.142   9.839  0.1623  0.1940  0.1082
  434POPI   GL2 6878  13.033  10.418   9.637  0.1755 -0.0734 -0.0190
  434POPI   C1A 6879  13.249  10.008   9.442  0.0340 -0.0878 -0.3563
  434POPI   D2A 6880  13.138  10.110   9.045  0.0697 -0.0110  0.0417
  434POPI   C3A 6881  13.447  10.075   8.718 -0.1296  0.1582 -0.0321
  434POPI   C4A 6882  13.778  10.231   8.370 -0.1092  0.2157  0.0899
  434POPI   C1B 6883  13.354  10.592   9.334  0.1763 -0.0784 -0.3166
  434POPI   C2B 6884  13.421  10.532   8.857  0.0178 -0.2988  0.0553
  434POPI   C3B 6885  13.452  10.657   8.425 -0.3280 -0.3400 -0.0626
  434POPI   C4B 6886  13.399  10.487   8.045 -0.3542 -0.0358  0.1769
  435POPI    C1 6887   7.429   9.574  10.520  0.1006  0.1157  0.0188
  435POPI    C2 6888   7.644   9.249  10.611  0.0338  0.0234 -0.1487
  435POPI    C3 6889   7.510   9.489  10.902  0.1458 -0.0585 -0.0287
  435POPI   PO4 6890   7.530   9.654  10.264 -0.0685 -0.2789  0.0446
  435POPI   GL1 6891   7.658   9.462   9.874 -0.0807  0.1971 -0.0750
  435POPI   GL2 6892   7.717   9.870   9.836  0.1788 -0.0441  0.0293
  435POPI   C1A 6893   7.606   9.261   9.537  0.1196  0.0037 -0.1532
  435POPI   D2A 6894   7.444   8.914   9.271 -0.2373  0.0694 -0.1082
  435POPI   C3A 6895   7.336   8.799   8.896  0.0060  0.0281 -0.0255
  435POPI   C4A 6896   7.148   8.844   8.458 -0.0398  0.0362  0.1154
  435POPI   C1B 6897   7.740   9.707   9.461 -0.1197 -0.3506  0.0076
  435POPI   C2B 6898   7.656   9.350   9.079  0.0489  0.1745  0.0893
  435POPI   C3B 6899   7.576   9.251   8.584  0.3646 -0.2912 -0.0051
  435POPI   C4B 6900   7.305   9.205   8.181  0.0876  0.1007  0.0236
  436POPI    C1 6901  15.536  17.620  10.981 -0.1504  0.2775 -0.3056
  436POPI    C2 6902  15.148  17.623  11.079 -0.0343  0.2121  0.1793
  436POPI    C3 6903  15.413  17.441  11.317  0.2517 -0.0548 -0.3279
  436POPI   PO4 6904  15.650  17.972  10.897 -0.0145  0.1472 -0.3033
  436POPI   GL1 6905  15.684  18.262  10.571  0.1581 -0.1889  0.1127
  436POPI   GL2 6906  15.487  18.597  10.511 -0.0581  0.0329  0.1433
  436POPI   C1A 6907  15.635  18.223  10.162  0.3745  0.1868  0.1588
  436POPI   D2A 6908  15.944  18.243   9.900 -0.2101  0.0326 -0.1047
  436POPI   C3A 6909  15.984  18.164   9.389  0.0907 -0.2160 -0.3457
  436POPI   C4A 6910  15.966  18.352   8.903 -0.1458  0.1766 -0.0588
  436POPI   C1B 6911  15.533  18.764  10.084 -0.0366  0.0128  0.0249
  436POPI   C2B 6912  15.161  18.928   9.895 -0.3538  0.0114 -0.0213
  436POPI   C3B 6913  14.925  18.641   9.609  0.2639 -0.0244 -0.0179
  436POPI   C4B 6914  15.069  18.507   9.236 -0.0491  0.1149 -0.0984
  437POPI    C1 6915   0.279  15.457  10.184  0.1718  0.2176 -0.1254
  437POPI    C2 6916   0.561  15.236  10.005 -0.1955 -0.1622 -0.2518
  437POPI    C3 6917   0.510  15.214  10.401  0.1099  0.0968 -0.1939
  437POPI   PO4 6918   0.087  15.484   9.990 -0.1583  0.2044 -0.2084
  437POPI   GL1 6919   0.215  15.671   9.751  0.3685 -0.2844  0.2427
  437POPI   GL2 6920   0.496  15.755   9.820  0.0360 -0.1343  0.2147
  437POPI   C1A 6921   0.150  15.643   9.327 -0.1084 -0.1216 -0.1222
  437POPI   D2A 6922   0.208  15.597   8.851 -0.2886 -0.1297 -0.0648
  437POPI   C3A 6923   0.012  15.485   8.516 -0.2426 -0.1156 -0.1414
  437POPI   C4A 6924  -0.135  15.819   8.111  0.0252 -0.2537 -0.0830
  437POPI   C1B 6925   0.650  15.434   9.529 -0.0549  0.2827  0.0264
  437POPI   C2B 6926   0.593  15.441   9.154  0.2606  0.0806 -0.0263
  437POPI   C3B 6927   0.599  15.364   8.679 -0.2238  0.2007  0.3920
  437POPI   C4B 6928   0.571  15.301   8.178 -0.0200  0.0469  0.2672
  438POPI    C1 6929   0.524   2.294  10.418 -0.1914 -0.3393  0.1735
  438POPI    C2 6930   0.336   2.112  10.116 -0.1230  0.0047 -0.0822
  438POPI    C3 6931   0.589   1.906  10.347 -0.2458 -0.2839 -0.2003
  438POPI   PO4 6932   0.672   2.518  10.275  0.0179  0.1180  0.0510
  438POPI   GL1 6933   0.795   2.642   9.918  0.1000 -0.0967  0.0680
  438POPI   GL2 6934   0.577   2.819   9.860 -0.1931  0.1457  0.1458
  438POPI   C1A 6935   1.238   2.848   9.672 -0.3340 -0.0600  0.1883
  438POPI   D2A 6936   1.475   2.760   9.370  0.0655  0.3598 -0.2069
  438POPI   C3A 6937   1.139   2.927   9.076  0.1416 -0.3364  0.4811
  438POPI   C4A 6938   1.014   3.296   8.882 -0.0774 -0.1643  0.1684
  438POPI   C1B 6939   0.883   2.669   9.408 -0.1149 -0.1185 -0.0571
  438POPI   C2B 6940   0.875   2.425   9.059  0.0088  0.0368 -0.0689
  438POPI   C3B 6941   0.874   2.382   8.629  0.0985 -0.0462  0.1599
  438POPI   C4B 6942   0.956   2.294   8.183 -0.1087 -0.0680  0.2003
  439POPI    C1 6943  13.094  13.058  10.341 -0.0845  0.0681  0.0888
  439POPI    C2 6944  12.894  12.898  10.034 -0.0581  0.0557  0.0781
  439POPI    C3 6945  12.883  12.722  10.393 -0.0347  0.0336  0.0680
  439POPI   PO4 6946  13.325  13.158  10.224 -0.0236 -0.4045 -0.1729
  439POPI   GL1 6947  13.696  13.075   9.954 -0.2558  0.2524 -0.2093
  439POPI   GL2 6948  13.972  13.293   9.916  0.3905  0.0400 -0.2876
  439POPI   C1A 6949  13.845  12.858   9.560  0.0700  0.1529  0.2476
  439POPI   D2A 6950  13.990  12.877   9.142 -0.0296  0.0872  0.1294
  439POPI   C3A 6951  13.966  12.861   8.740  0.2498 -0.2225  0.0428
  439POPI   C4A 6952  13.922  12.890   8.267  0.1712 -0.0830 -0.1689
  439POPI   C1B 6953  14.069  13.270   9.481  0.1102 -0.1637  0.1921
  439POPI   C2B 6954  14.126  13.373   8.967  0.1214 -0.1063  0.0473
  439POPI   C3B 6955  14.150  13.416   8.505  0.0247  0.1959  0.0083
  439POPI   C4B 6956  13.955  13.505   8.102  0.0545 -0.0238 -0.0856
  440POPI    C1 6957   3.163   0.570  10.007 -0.3994 -0.3044 -0.0793
  440POPI    C2 6958   2.980   0.760  10.306 -0.0260  0.0374 -0.0597
  440POPI    C3 6959   3.307   0.542  10.379 -0.1192 -0.1422 -0.1725
  440POPI   PO4 6960   3.209   0.839   9.822 -0.1048  0.1830 -0.0125
  440POPI   GL1 6961   2.958   0.999   9.513 -0.0723  0.0215 -0.1392
  440POPI   GL2 6962   2.735   0.922   9.455 -0.2519  0.1399  0.2625
  440POPI   C1A 6963   3.068   0.924   9.065 -0.1099  0.4155 -0.1148
  440POPI   D2A 6964   3.139   0.946   8.650  0.1277  0.2751 -0.0889
  440POPI   C3A 6965   3.195   0.796   8.271 -0.6040  0.3444  0.1779
  440POPI   C4A 6966   3.412   0.589   8.004 -0.1005  0.2307 -0.1554
  440POPI   C1B 6967   2.581   0.964   8.985  0.0159 -0.1620  0.2859
  440POPI   C2B 6968   2.571   0.951   8.616  0.4903  0.0817 -0.3039
  440POPI   C3B 6969   2.638   0.742   8.265  0.0993  0.0820 -0.0108
  440POPI   C4B 6970   2.852   0.693   7.902  0.1136  0.0503  0.0624
  441POPI    C1 6971  15.643   4.674  10.326  0.0156 -0.0112  0.0039
  441POPI    C2 6972  16.039   4.687  10.270  0.0145  0.0227  0.0038
  441POPI    C3 6973  15.889   4.695  10.641  0.0128  0.0402  0.0028
  441POPI   PO4 6974  15.614   4.600  10.069 -0.0337  0.2164 -0.0192
  441POPI   GL1 6975  15.507   4.493   9.632  0.1676 -0.1461 -0.0099
  441POPI   GL2 6976  15.373   4.811   9.649 -0.0098  0.0995 -0.3544
  441POPI   C1A 6977  15.433   4.387   9.295  0.3885  0.0569 -0.1071
  441POPI   D2A 6978  15.197   4.642   8.969 -0.1457 -0.1075  0.1105
  441POPI   C3A 6979  15.282   4.480   8.555 -0.2960  0.0343 -0.3075
  441POPI   C4A 6980  15.239   4.233   8.153  0.0102  0.1046  0.2817
  441POPI   C1B 6981  15.025   4.689   9.459 -0.0063 -0.0057  0.0295
  441POPI   C2B 6982  14.761   4.875   9.110  0.2413 -0.3313 -0.2766
  441POPI   C3B 6983  14.895   4.833   8.575  0.4305  0.3369  0.0350
  441POPI   C4B 6984  14.887   4.601   8.186 -0.1238  0.2175 -0.1443
  442POPI    C1 6985  14.900   8.904  10.441 -0.1405  0.1708  0.1565
  442POPI    C2 6986  15.131   9.164  10.243 -0.0159 -0.1195 -0.0888
  442POPI    C3 6987  15.153   9.141  10.642  0.0098  0.2048 -0.0684
  442POPI   PO4 6988  14.865   8.752  10.350  0.1383 -0.2483  0.2266
  442POPI   GL1 6989  14.717   8.634   9.874  0.2459  0.2620  0.0538
  442POPI   GL2 6990  14.962   8.870   9.844  0.4483  0.0479  0.3180
  442POPI   C1A 6991  14.396   8.768   9.595 -0.1809 -0.1108  0.1833
  442POPI   D2A 6992  14.420   8.968   9.206 -0.2235 -0.0084  0.1433
  442POPI   C3A 6993  14.265   8.758   8.749 -0.1163 -0.0916 -0.0327
  442POPI   C4A 6994  14.196   8.588   8.410 -0.2385  0.1162  0.2601
  442POPI   C1B 6995  14.886   8.702   9.372  0.0150 -0.2355  0.3412
  442POPI   C2B 6996  14.818   8.773   8.925 -0.2034 -0.1585  0.1795
  442POPI   C3B 6997  14.718   8.683   8.485  0.1495 -0.0188 -0.1538
  442POPI   C4B 6998  14.751   8.445   8.144 -0.2838  0.1519 -0.1643
  443POPI    C1 6999   3.261   8.984  10.506 -0.1829 -0.0582 -0.0956
  443POPI    C2 7000   3.262   8.590  10.440 -0.0946 -0.0729 -0.0092
  443POPI    C3 7001   3.415   8.736  10.780  0.0010  0.0459 -0.1027
  443POPI   PO4 7002   3.065   9.077  10.359 -0.0909 -0.1221 -0.4309
  443POPI   GL1 7003   2.918   9.340  10.115 -0.2232  0.1529  0.0828
  443POPI   GL2 7004   3.181   9.158   9.903  0.1057  0.2964 -0.1209
  443POPI   C1A 7005   2.683   9.261   9.744 -0.1100  0.0705 -0.1172
  443POPI   D2A 7006   2.522   9.333   9.354 -0.1385 -0.3515  0.0981
  443POPI   C3A 7007   2.689   9.248   9.041 -0.2078 -0.2060 -0.0960
  443POPI   C4A 7008   2.640   9.078   8.672  0.1694 -0.3549  0.0055
  443POPI   C1B 7009   3.078   8.932   9.672  0.0975 -0.1658 -0.0226
  443POPI   C2B 7010   3.051   8.804   9.234 -0.2129  0.2649  0.2332
  443POPI   C3B 7011   3.038   8.796   8.822  0.1168  0.0020 -0.0235
  443POPI   C4B 7012   3.065   8.769   8.359 -0.0418  0.0092  0.0249
  444POPI    C1 7013  15.097  17.187  10.597  0.0496 -0.0193  0.0361
  444POPI    C2 7014  15.196  17.157  10.983 -0.1923  0.1562  0.1146
  444POPI    C3 7015  15.138  16.827  10.764 -0.1190  0.0562  0.2449
  444POPI   PO4 7016  15.162  17.491  10.598 -0.3262 -0.0175 -0.5036
  444POPI   GL1 7017  15.120  17.656  10.255  0.2437 -0.3087  0.0972
  444POPI   GL2 7018  14.988  17.459  10.117  0.1682  0.3726  0.1280
  444POPI   C1A 7019  15.414  17.760   9.988 -0.1470 -0.4426 -0.3295
  444POPI   D2A 7020  15.489  17.968   9.654  0.0194  0.2587 -0.1115
  444POPI   C3A 7021  15.480  18.363   9.685  0.2455 -0.2153 -0.2983
  444POPI   C4A 7022  15.429  18.755   9.538  0.0418 -0.0115  0.0240
  444POPI   C1B 7023  14.995  17.657   9.639 -0.1603 -0.0794  0.1557
  444POPI   C2B 7024  14.856  17.476   9.287  0.2908  0.0744  0.3104
  444POPI   C3B 7025  14.850  17.574   8.869  0.0061  0.1706 -0.0457
  444POPI   C4B 7026  14.907  17.690   8.484  0.1564  0.0026  0.4708
  445POPI    C1 7027  11.329   2.096  10.508  0.1270 -0.1539 -0.2443
  445POPI    C2 7028  11.219   2.449  10.355  0.2235  0.0465  0.1373
  445POPI    C3 7029  10.997   2.276  10.639  0.1210 -0.2534 -0.1213
  445POPI   PO4 7030  11.492   2.036  10.319  0.0612  0.2541 -0.2507
  445POPI   GL1 7031  11.496   1.888   9.868 -0.1570  0.0921 -0.2496
  445POPI   GL2 7032  11.240   1.915   9.820 -0.2300 -0.1390  0.0787
  445POPI   C1A 7033  11.670   1.898   9.473  0.1836 -0.3581  0.3677
  445POPI   D2A 7034  11.618   1.773   9.091  0.0003  0.0566 -0.1286
  445POPI   C3A 7035  11.750   1.786   8.649  0.1675  0.1662 -0.2257
  445POPI   C4A 7036  11.665   1.815   8.214 -0.0738  0.3160 -0.1894
  445POPI   C1B 7037  11.131   1.745   9.394 -0.2710 -0.1712 -0.0053
  445POPI   C2B 7038  11.120   1.697   8.847 -0.0492  0.0754 -0.0983
  445POPI   C3B 7039  11.127   1.596   8.471  0.1380  0.2070  0.1037
  445POPI   C4B 7040  11.186   1.822   8.067  0.0359 -0.1739  0.1316
  446POPI    C1 7041  12.925   8.415  10.137  0.2989 -0.0907 -0.1084
  446POPI    C2 7042  12.816   8.778  10.009 -0.4041 -0.2392  0.0295
  446POPI    C3 7043  13.009   8.739  10.357  0.0192  0.0250 -0.1677
  446POPI   PO4 7044  13.035   8.216  10.007  0.1214 -0.0923  0.1517
  446POPI   GL1 7045  13.008   8.037   9.578  0.2067 -0.0592  0.2494
  446POPI   GL2 7046  12.868   7.782   9.508 -0.1421  0.2576  0.0164
  446POPI   C1A 7047  12.956   8.024   9.101  0.0401 -0.0188  0.2100
  446POPI   D2A 7048  13.017   8.034   8.612  0.1813 -0.0929  0.2342
  446POPI   C3A 7049  12.709   8.261   8.520  0.1780  0.0329  0.1314
  446POPI   C4A 7050  12.407   8.164   8.239 -0.1283 -0.1624 -0.1271
  446POPI   C1B 7051  12.962   7.511   9.104 -0.0739 -0.0933  0.1500
  446POPI   C2B 7052  12.985   7.383   8.648  0.0067  0.2956  0.1729
  446POPI   C3B 7053  12.932   7.315   8.286 -0.0150 -0.1486  0.1120
  446POPI   C4B 7054  13.182   7.232   7.870 -0.2592 -0.1298  0.0754
  447POPI    C1 7055   4.979  14.119  10.549  0.0477 -0.0064  0.0750
  447POPI    C2 7056   5.304  14.019  10.759  0.0019  0.0923  0.1941
  447POPI    C3 7057   4.942  13.899  10.881  0.0147 -0.2434 -0.0835
  447POPI   PO4 7058   5.126  14.319  10.275 -0.1756 -0.0755  0.1532
  447POPI   GL1 7059   5.179  14.652   9.963  0.4957  0.1526 -0.0297
  447POPI   GL2 7060   5.078  14.378   9.796 -0.2976 -0.0228 -0.0931
  447POPI   C1A 7061   5.046  14.855   9.557  0.1587 -0.1559 -0.0770
  447POPI   D2A 7062   5.116  15.030   9.184  0.1758  0.2855 -0.0554
  447POPI   C3A 7063   5.149  15.125   8.709  0.0683  0.1100 -0.1089
  447POPI   C4A 7064   5.108  15.208   8.294  0.1927  0.2486 -0.0600
  447POPI   C1B 7065   4.816  14.390   9.429  0.0602  0.1901 -0.0009
  447POPI   C2B 7066   4.871  14.571   8.922 -0.1380  0.1089 -0.3134
  447POPI   C3B 7067   4.872  14.558   8.529 -0.0499 -0.0965 -0.0809
  447POPI   C4B 7068   4.824  14.740   8.168  0.0787  0.1547 -0.0407
  448POPI    C1 7069  11.137   5.823  10.698 -0.1630  0.1959 -0.0600
  448POPI    C2 7070  11.269   5.690  11.051 -0.0309 -0.1597 -0.2387
  448POPI    C3 7071  11.106   6.054  11.023  0.3149  0.0298  0.1115
  448POPI   PO4 7072  10.962   5.586  10.570 -0.2047 -0.0606  0.1784
  448POPI   GL1 7073  10.916   5.403  10.230 -0.1059 -0.1403 -0.0846
  448POPI   GL2 7074  10.966   5.089  10.063  0.1253 -0.2209  0.0421
  448POPI   C1A 7075  10.930   5.515   9.716  0.0383  0.1997 -0.1669
  448POPI   D2A 7076  10.774   5.635   9.452  0.0525 -0.2165 -0.2380
  448POPI   C3A 7077  10.839   5.593   9.039  0.1069 -0.3039 -0.1142
  448POPI   C4A 7078  10.806   5.589   8.584  0.1479  0.2100 -0.1322
  448POPI   C1B 7079  11.007   5.034   9.699 -0.0169 -0.0519  0.1209
  448POPI   C2B 7080  10.994   5.059   9.198 -0.1352  0.2667 -0.0286
  448POPI   C3B 7081  10.981   4.973   8.783 -0.2017 -0.0178  0.1120
  448POPI   C4B 7082  10.972   5.020   8.400  0.1755  0.2298  0.2130
  449POPI    C1 7083   2.061   5.869  10.591 -0.1720 -0.2143  0.0729
  449POPI    C2 7084   2.413   5.680  10.611 -0.1173 -0.1301 -0.0795
  449POPI    C3 7085   2.092   5.492  10.463 -0.1616 -0.2410  0.1535
  449POPI   PO4 7086   2.044   6.135  10.462 -0.3335 -0.1951 -0.0482
  449POPI   GL1 7087   2.204   6.538  10.406 -0.1470  0.0973  0.2737
  449POPI   GL2 7088   1.913   6.465  10.136 -0.0459 -0.0279  0.0972
  449POPI   C1A 7089   2.497   6.459  10.053 -0.1550  0.2087 -0.3656
  449POPI   D2A 7090   2.848   6.444   9.839  0.0859  0.1779 -0.0560
  449POPI   C3A 7091   2.712   6.209   9.528 -0.1744  0.0259  0.3008
  449POPI   C4A 7092   2.705   6.248   9.089  0.4514 -0.0701 -0.2009
  449POPI   C1B 7093   1.791   6.454   9.609  0.0545  0.1271 -0.0597
  449POPI   C2B 7094   1.674   6.512   9.259  0.1180  0.1850 -0.2338
  449POPI   C3B 7095   1.353   6.453   8.844  0.1369 -0.1698  0.2301
  449POPI   C4B 7096   1.474   6.445   8.401 -0.3431  0.1099  0.1546
  450POPI    C1 7097  11.585  13.417  10.318  0.2871 -0.0130 -0.0446
  450POPI    C2 7098  11.896  13.331  10.555  0.2800 -0.1600 -0.0880
  450POPI    C3 7099  11.523  13.270  10.685  0.2624  0.1799  0.0299
  450POPI   PO4 7100  11.621  13.305  10.058  0.0487 -0.0206 -0.0391
  450POPI   GL1 7101  11.680  13.511   9.697  0.1485 -0.0154 -0.1008
  450POPI   GL2 7102  11.751  13.249   9.515 -0.0555  0.0762  0.2867
  450POPI   C1A 7103  11.920  13.746   9.395  0.0670 -0.2563  0.3301
  450POPI   D2A 7104  12.091  13.734   9.000  0.1483 -0.0254  0.1332
  450POPI   C3A 7105  12.092  13.770   8.613 -0.1544  0.1457 -0.2444
  450POPI   C4A 7106  12.075  14.035   8.284  0.0830 -0.1437 -0.1445
  450POPI   C1B 7107  11.798  13.330   9.098 -0.0400 -0.1178  0.0078
  450POPI   C2B 7108  11.911  13.286   8.617  0.4934 -0.0571  0.0137
  450POPI   C3B 7109  11.832  13.345   8.195  0.0636 -0.2813 -0.0827
  450POPI   C4B 7110  12.068  13.325   7.853 -0.4552  0.2401  0.2077
  451POPI    C1 7111   0.159  15.868  10.409 -0.1102 -0.0594 -0.3970
  451POPI    C2 7112  -0.174  15.991  10.595  0.2000  0.0685  0.0925
  451POPI    C3 7113  -0.043  15.616  10.645  0.2254  0.0709  0.0444
  451POPI   PO4 7114   0.067  15.960  10.125 -0.3249  0.0643  0.1694
  451POPI   GL1 7115  -0.125  15.997   9.795 -0.4063  0.1007  0.1090
  451POPI   GL2 7116  -0.171  16.297   9.687 -0.0845  0.0594  0.0143
  451POPI   C1A 7117  -0.299  15.896   9.382 -0.0848  0.0336  0.0588
  451POPI   D2A 7118  -0.384  15.850   8.973 -0.0794  0.0114 -0.1536
  451POPI   C3A 7119  -0.376  15.728   8.528 -0.0146  0.2059 -0.1297
  451POPI   C4A 7120  -0.368  15.402   8.213 -0.2264  0.1448 -0.3870
  451POPI   C1B 7121  -0.202  16.353   9.184 -0.2970  0.0305  0.0803
  451POPI   C2B 7122  -0.297  16.353   8.776  0.1380  0.0698 -0.1430
  451POPI   C3B 7123  -0.355  16.277   8.292 -0.0573  0.0048  0.0152
  451POPI   C4B 7124  -0.552  15.941   8.005 -0.0797  0.0611  0.1012
  452POPI    C1 7125  14.822   9.810  10.162  0.0571  0.0641  0.0484
  452POPI    C2 7126  14.802   9.789  10.561 -0.0579 -0.2081  0.0304
  452POPI    C3 7127  14.993  10.094  10.386  0.0167 -0.1015  0.2931
  452POPI   PO4 7128  14.821   9.548  10.090  0.0769 -0.1160  0.0507
  452POPI   GL1 7129  14.827   9.301   9.640 -0.1326  0.0814  0.0493
  452POPI   GL2 7130  14.558   9.462   9.682  0.1350 -0.3215 -0.2598
  452POPI   C1A 7131  14.916   9.161   9.236 -0.2792 -0.1854  0.0109
  452POPI   D2A 7132  15.128   9.132   8.881 -0.0894  0.0758 -0.1541
  452POPI   C3A 7133  14.965   9.234   8.497 -0.1045  0.2208  0.4305
  452POPI   C4A 7134  14.772   9.331   8.197  0.1482  0.1255  0.0766
  452POPI   C1B 7135  14.557   9.445   9.063 -0.0420 -0.2347  0.1059
  452POPI   C2B 7136  14.559   9.199   8.787 -0.0755  0.0376  0.1998
  452POPI   C3B 7137  14.377   9.081   8.386 -0.1128  0.2300  0.1651
  452POPI   C4B 7138  14.393   9.275   7.975 -0.0932  0.0595  0.0241
  453POPI    C1 7139  12.005   3.685  10.570  0.0979  0.0167 -0.0534
  453POPI    C2 7140  11.764   3.705  10.889  0.0902  0.1074 -0.0649
  453POPI    C3 7141  11.841   4.034  10.674 -0.0236  0.0181 -0.2446
  453POPI   PO4 7142  11.880   3.528  10.374 -0.4045 -0.0832 -0.0823
  453POPI   GL1 7143  11.784   3.503   9.960  0.0769  0.0200  0.0486
  453POPI   GL2 7144  12.003   3.484   9.855  0.2739 -0.1151 -0.1023
  453POPI   C1A 7145  11.446   3.611   9.724  0.2091  0.0398  0.3509
  453POPI   D2A 7146  11.158   3.704   9.504  0.2569 -0.1712 -0.1389
  453POPI   C3A 7147  11.143   3.619   9.133  0.0903  0.2777 -0.0946
  453POPI   C4A 7148  11.116   3.670   8.726  0.1208  0.2870 -0.1133
  453POPI   C1B 7149  11.880   3.236   9.514  0.3015 -0.0181 -0.0222
  453POPI   C2B 7150  11.844   3.141   9.054 -0.0305 -0.0632 -0.2048
  453POPI   C3B 7151  12.030   3.109   8.759  0.1688 -0.2626 -0.0742
  453POPI   C4B 7152  12.058   3.189   8.399  0.2198  0.0386 -0.0077
  454POPI    C1 7153   0.694   9.474  10.896  0.0207 -0.1329 -0.0572
  454POPI    C2 7154   0.796   9.229  11.195  0.0302  0.1409  0.1684
  454POPI    C3 7155   0.477   9.468  11.232 -0.0185  0.1163 -0.0755
  454POPI   PO4 7156   0.717   9.365  10.713 -0.2924 -0.3343  0.0631
  454POPI   GL1 7157   0.493   9.209  10.404 -0.0051 -0.0303  0.0298
  454POPI   GL2 7158   0.718   9.056  10.288 -0.1278 -0.0449 -0.2523
  454POPI   C1A 7159   0.284   9.321   9.979 -0.3354 -0.0606 -0.1734
  454POPI   D2A 7160   0.467   9.249   9.516 -0.0337 -0.0728 -0.0381
  454POPI   C3A 7161   0.501   9.501   9.165  0.1602 -0.0538  0.0234
  454POPI   C4A 7162   0.625   9.639   8.733 -0.0669  0.1438 -0.1622
  454POPI   C1B 7163   0.932   9.051   9.979 -0.1273 -0.2779 -0.0487
  454POPI   C2B 7164   1.023   9.057   9.625  0.2391 -0.1249 -0.2809
  454POPI   C3B 7165   1.041   9.116   9.259  0.3580 -0.1232  0.1872
  454POPI   C4B 7166   0.919   9.172   8.897  0.2092  0.1432 -0.2132
  455POPI    C1 7167   6.274   0.355  10.581 -0.0373 -0.0491 -0.0656
  455POPI    C2 7168   6.448   0.039  10.753 -0.0261  0.0174  0.0469
  455POPI    C3 7169   6.089   0.162  10.878 -0.0426  0.0332 -0.0152
  455POPI   PO4 7170   6.335   0.321  10.233 -0.0161  0.2131 -0.2045
  455POPI   GL1 7171   6.332   0.087   9.815  0.2152  0.1500 -0.3334
  455POPI   GL2 7172   6.712   0.136   9.852  0.1712  0.0269  0.1897
  455POPI   C1A 7173   6.319   0.020   9.372  0.1068 -0.2629  0.0486
  455POPI   D2A 7174   6.650  -0.174   9.130 -0.0302  0.1311  0.0587
  455POPI   C3A 7175   6.967  -0.369   9.322 -0.0108  0.0245  0.0874
  455POPI   C4A 7176   7.126  -0.769   9.554  0.0744  0.1052  0.1191
  455POPI   C1B 7177   6.907   0.134   9.523 -0.1458  0.2403  0.0047
  455POPI   C2B 7178   6.981   0.216   9.085  0.1448  0.0334 -0.0369
  455POPI   C3B 7179   6.918   0.269   8.648  0.1419  0.1197 -0.0700
  455POPI   C4B 7180   6.671   0.125   8.377 -0.0055  0.0340 -0.0422
  456POPI    C1 7181  13.572   5.540  10.014  0.2079  0.0939  0.0749
  456POPI    C2 7182  13.556   5.465  10.407 -0.1256  0.1948  0.0834
  456POPI    C3 7183  13.409   5.808  10.263 -0.1854  0.0722 -0.1523
  456POPI   PO4 7184  13.837   5.575   9.921  0.2597  0.0018  0.0364
  456POPI   GL1 7185  13.951   5.755   9.525 -0.1592  0.0486 -0.1659
  456POPI   GL2 7186  14.043   6.077   9.556  0.1382 -0.1486 -0.1312
  456POPI   C1A 7187  14.013   5.677   9.102  0.0205  0.1156 -0.1599
  456POPI   D2A 7188  14.149   5.538   8.849 -0.1503 -0.1557  0.1670
  456POPI   C3A 7189  14.078   5.438   8.469 -0.1816 -0.0524  0.1938
  456POPI   C4A 7190  14.168   5.340   8.024 -0.0685 -0.0207  0.1590
  456POPI   C1B 7191  14.051   6.130   9.131  0.1943 -0.1537  0.1411
  456POPI   C2B 7192  13.964   5.999   8.680 -0.3156 -0.0020 -0.0886
  456POPI   C3B 7193  14.042   5.922   8.250 -0.2089 -0.1255 -0.2495
  456POPI   C4B 7194  14.173   5.815   7.836 -0.1593  0.3628 -0.2396
  457POPI    C1 7195  10.814   0.431  10.444  0.0544 -0.1909  0.0539
  457POPI    C2 7196  10.743   0.819  10.379  0.0470 -0.2306 -0.1820
  457POPI    C3 7197  10.656   0.657  10.734  0.0633 -0.0141 -0.0775
  457POPI   PO4 7198  10.759   0.297  10.284 -0.0955 -0.1118  0.3465
  457POPI   GL1 7199  10.794   0.230   9.845  0.0327 -0.1012  0.0007
  457POPI   GL2 7200  10.548   0.330   9.667  0.1936 -0.1004 -0.0561
  457POPI   C1A 7201  11.053   0.195   9.522  0.0754  0.0567  0.0257
  457POPI   D2A 7202  10.930   0.228   9.171 -0.1062 -0.0138 -0.0645
  457POPI   C3A 7203  11.086   0.049   8.783  0.0108 -0.1001 -0.2324
  457POPI   C4A 7204  10.965   0.133   8.393 -0.0593  0.0121 -0.1673
  457POPI   C1B 7205  10.453   0.403   9.307 -0.1279 -0.2529 -0.1007
  457POPI   C2B 7206  10.527   0.491   8.925 -0.1170  0.1521  0.0049
  457POPI   C3B 7207  10.532   0.307   8.562  0.1118  0.0017 -0.1800
  457POPI   C4B 7208  10.213   0.023   8.399  0.0608 -0.0647  0.0795
  458POPI    C1 7209   2.189   6.702  11.063 -0.1060 -0.0322 -0.1077
  458POPI    C2 7210   2.370   6.926  11.341 -0.0980  0.0285 -0.1614
  458POPI    C3 7211   1.984   6.828  11.382  0.0132 -0.3233  0.0876
  458POPI   PO4 7212   2.347   6.810  10.811  0.2821  0.1511  0.0989
  458POPI   GL1 7213   2.252   7.078  10.411 -0.0799  0.3521  0.0382
  458POPI   GL2 7214   2.423   7.335  10.296  0.0707 -0.1619  0.3028
  458POPI   C1A 7215   2.248   6.872   9.999 -0.1626 -0.2012 -0.0243
  458POPI   D2A 7216   2.211   6.741   9.624 -0.1480 -0.1947 -0.0928
  458POPI   C3A 7217   2.074   6.679   9.106  0.1316 -0.0467  0.1346
  458POPI   C4A 7218   1.942   6.489   8.744  0.1244  0.3530  0.2635
  458POPI   C1B 7219   2.516   7.308   9.824 -0.1211  0.2301 -0.0824
  458POPI   C2B 7220   2.477   7.202   9.431  0.1545 -0.1757 -0.1514
  458POPI   C3B 7221   2.313   7.151   9.061  0.0319 -0.1628 -0.0316
  458POPI   C4B 7222   2.231   6.976   8.622  0.1235  0.2723 -0.1565
  459POPI    C1 7223  10.040  12.149  10.120  0.1822 -0.3598  0.2215
  459POPI    C2 7224   9.731  12.309  10.317  0.0032  0.0101 -0.3382
  459POPI    C3 7225  10.043  12.164  10.520 -0.3705 -0.0382  0.2237
  459POPI   PO4 7226  10.167  12.293   9.951 -0.1380 -0.2685  0.1959
  459POPI   GL1 7227  10.131  12.614   9.522  0.3354 -0.0230 -0.0801
  459POPI   GL2 7228   9.957  12.609   9.303 -0.1082 -0.0054 -0.0878
  459POPI   C1A 7229  10.296  12.921   9.319 -0.3101 -0.1640 -0.0659
  459POPI   D2A 7230  10.472  13.164   9.062  0.1424 -0.3450  0.1821
  459POPI   C3A 7231  10.346  13.071   8.623 -0.2454 -0.0410 -0.1046
  459POPI   C4A 7232  10.061  13.295   8.305 -0.0035 -0.1305 -0.0524
  459POPI   C1B 7233  10.087  12.590   8.818  0.2621  0.0894 -0.1394
  459POPI   C2B 7234  10.037  12.678   8.401 -0.2002 -0.0877 -0.4959
  459POPI   C3B 7235  10.098  12.921   8.026 -0.1876 -0.2476 -0.1453
  459POPI   C4B 7236  10.281  13.324   7.880 -0.3144  0.1353  0.1547
  460POPI    C1 7237   6.892   0.340  10.249  0.1460  0.1309 -0.0554
  460POPI    C2 7238   6.758   0.450  10.609 -0.0046 -0.0468 -0.0556
  460POPI    C3 7239   6.989   0.126  10.572 -0.0260 -0.0543 -0.1242
  460POPI   PO4 7240   7.007   0.506  10.110 -0.2005  0.0318  0.2244
  460POPI   GL1 7241   6.984   0.632   9.723  0.0570 -0.2299  0.0406
  460POPI   GL2 7242   7.145   0.586   9.522 -0.1230 -0.0109 -0.0612
  460POPI   C1A 7243   6.860   0.977   9.505  0.0205 -0.0506 -0.0355
  460POPI   D2A 7244   6.993   1.299   9.182  0.2907 -0.4462 -0.1123
  460POPI   C3A 7245   6.808   1.243   8.752 -0.1701  0.2476 -0.0954
  460POPI   C4A 7246   6.558   1.211   8.357  0.0115  0.0999 -0.2810
  460POPI   C1B 7247   6.938   0.713   9.073 -0.1046  0.0259  0.2346
  460POPI   C2B 7248   6.736   0.757   8.800  0.0109  0.4071 -0.1260
  460POPI   C3B 7249   6.415   0.539   8.561 -0.0947 -0.0652  0.1916
  460POPI   C4B 7250   6.135   0.404   8.307 -0.1697  0.1053 -0.1507
  461POPI    C1 7251  17.354   7.589  10.348  0.0430  0.0605 -0.1252
  461POPI    C2 7252  17.331   7.600  10.747  0.0465  0.0813 -0.1256
  461POPI    C3 7253  17.022   7.465  10.533 -0.0126  0.2109 -0.1229
  461POPI   PO4 7254  17.657   7.817  10.373  0.2205  0.2663  0.3099
  461POPI   GL1 7255  17.765   7.996   9.969  0.0601  0.0902  0.0232
  461POPI   GL2 7256  18.114   8.156   9.940  0.0676  0.0162 -0.0810
  461POPI   C1A 7257  17.725   8.103   9.518 -0.0659 -0.1442 -0.2953
  461POPI   D2A 7258  17.641   8.004   9.083 -0.0531 -0.2354  0.1988
  461POPI   C3A 7259  17.536   8.040   8.701 -0.1471  0.0478  0.0000
  461POPI   C4A 7260  17.683   7.937   8.279 -0.0193 -0.2456  0.0986
  461POPI   C1B 7261  17.999   8.483   9.635  0.0128  0.1694 -0.3791
  461POPI   C2B 7262  18.054   8.415   9.201  0.0399 -0.1089 -0.1344
  461POPI   C3B 7263  18.014   8.193   8.782 -0.1139 -0.2384  0.1268
  461POPI   C4B 7264  18.100   7.826   8.551  0.0801  0.0687  0.1032
  462POPI    C1 7265   9.108   3.398  10.863 -0.0663  0.2068  0.2720
  462POPI    C2 7266   9.032   3.027  10.991  0.1472  0.0707  0.0153
  462POPI    C3 7267   8.789   3.328  11.093 -0.0900 -0.1574  0.1342
  462POPI   PO4 7268   9.160   3.382  10.551 -0.0384  0.0738  0.0965
  462POPI   GL1 7269   9.014   3.337  10.188  0.0100  0.2740  0.0112
  462POPI   GL2 7270   9.340   3.165  10.115 -0.1143 -0.0079  0.6207
  462POPI   C1A 7271   8.847   3.231   9.839  0.1882 -0.1379 -0.2799
  462POPI   D2A 7272   8.855   3.150   9.449 -0.2711  0.0851  0.2368
  462POPI   C3A 7273   8.846   3.388   8.930  0.0359  0.2267 -0.4352
  462POPI   C4A 7274   8.821   3.347   8.491 -0.0628 -0.1205 -0.1382
  462POPI   C1B 7275   9.447   3.185   9.649  0.0531  0.2740 -0.0090
  462POPI   C2B 7276   9.359   3.275   9.135  0.0844  0.1406  0.0126
  462POPI   C3B 7277   9.397   3.408   8.666 -0.1169 -0.3506 -0.0046
  462POPI   C4B 7278   9.309   3.704   8.383  0.0227  0.0858 -0.1283
  463POPI    C1 7279  15.856  13.037  10.416  0.2505 -0.1178 -0.1316
  463POPI    C2 7280  15.552  12.786  10.349  0.1532 -0.0444  0.0309
  463POPI    C3 7281  15.564  13.001  10.687  0.2955  0.0834 -0.0544
  463POPI   PO4 7282  16.030  12.870  10.237  0.0511  0.6332 -0.0476
  463POPI   GL1 7283  15.850  12.756   9.897 -0.2473 -0.0575  0.0466
  463POPI   GL2 7284  15.690  12.905   9.861  0.1815  0.0190  0.1271
  463POPI   C1A 7285  15.830  12.532   9.477 -0.3371  0.2440  0.0002
  463POPI   D2A 7286  15.722  12.463   9.004  0.0223 -0.0544 -0.1710
  463POPI   C3A 7287  15.830  12.491   8.524  0.0821  0.1711 -0.0897
  463POPI   C4A 7288  15.676  12.364   8.030  0.0461 -0.2236  0.0840
  463POPI   C1B 7289  15.408  12.803   9.509 -0.2835 -0.1383  0.4572
  463POPI   C2B 7290  15.393  12.829   9.115 -0.0264  0.2568  0.1251
  463POPI   C3B 7291  15.475  12.865   8.677  0.1121  0.1480 -0.1606
  463POPI   C4B 7292  15.364  12.661   8.231  0.2358 -0.1470  0.1061
  464POPI    C1 7293   0.650   4.512  10.284  0.0343  0.3463  0.2193
  464POPI    C2 7294   1.049   4.487  10.286  0.0339  0.2846 -0.0614
  464POPI    C3 7295   0.832   4.226  10.497  0.1387  0.2609  0.0184
  464POPI   PO4 7296   0.622   4.761  10.329  0.3181 -0.3559  0.2639
  464POPI   GL1 7297   0.798   4.953  10.005 -0.0475 -0.1991  0.0417
  464POPI   GL2 7298   0.456   4.827   9.839  0.3558 -0.1045 -0.2241
  464POPI   C1A 7299   0.818   5.126   9.600  0.1309 -0.0628 -0.1357
  464POPI   D2A 7300   1.097   5.144   9.219  0.0182  0.0037  0.2441
  464POPI   C3A 7301   0.842   5.169   8.788  0.0594 -0.1716 -0.1828
  464POPI   C4A 7302   0.704   5.033   8.400 -0.0167  0.0494  0.2147
  464POPI   C1B 7303   0.317   4.913   9.487 -0.1794 -0.0440  0.1414
  464POPI   C2B 7304   0.551   5.180   9.154  0.2369  0.1284 -0.0643
  464POPI   C3B 7305   0.396   5.346   8.654 -0.0744 -0.1323  0.3387
  464POPI   C4B 7306   0.149   5.052   8.331  0.0081  0.1756  0.0035
  465POPI    C1 7307   0.705   1.320  10.412  0.3032  0.3536 -0.1831
  465POPI    C2 7308   1.051   1.257  10.603  0.1109 -0.0847  0.0357
  465POPI    C3 7309   0.705   1.174  10.785 -0.1103  0.2763 -0.2090
  465POPI   PO4 7310   0.809   1.249  10.148  0.3543 -0.3339  0.1289
  465POPI   GL1 7311   0.737   1.380   9.764 -0.2999  0.4268 -0.2304
  465POPI   GL2 7312   0.648   1.726   9.802 -0.1992 -0.0234 -0.1784
  465POPI   C1A 7313   0.834   1.358   9.366  0.1114 -0.0398 -0.0261
  465POPI   D2A 7314   0.846   1.544   8.916  0.0199  0.1735 -0.2273
  465POPI   C3A 7315   0.873   1.473   8.491  0.3813 -0.1625  0.2065
  465POPI   C4A 7316   1.131   1.356   8.214 -0.2901  0.2805 -0.0768
  465POPI   C1B 7317   0.576   1.766   9.271  0.3003  0.1984 -0.1775
  465POPI   C2B 7318   0.566   1.931   8.931  0.3196 -0.2077 -0.1711
  465POPI   C3B 7319   0.658   1.975   8.470 -0.0062 -0.0671 -0.0321
  465POPI   C4B 7320   0.475   2.202   8.075  0.1519 -0.2489 -0.3459
  466POPI    C1 7321  10.045  15.558  10.342  0.1004 -0.1155 -0.0669
  466POPI    C2 7322   9.772  15.267  10.369  0.0546 -0.0586  0.0980
  466POPI    C3 7323  10.007  15.350  10.682  0.0762  0.0730  0.0473
  466POPI   PO4 7324  10.092  15.531  10.088  0.2695  0.1674 -0.1001
  466POPI   GL1 7325  10.372  15.310   9.868 -0.0083  0.2075 -0.0572
  466POPI   GL2 7326  10.392  15.717   9.792 -0.0055  0.1753 -0.0433
  466POPI   C1A 7327  10.109  15.080   9.513  0.1590  0.0178 -0.1986
  466POPI   D2A 7328  10.028  14.914   9.113 -0.4153 -0.0105 -0.3056
  466POPI   C3A 7329  10.105  14.877   8.679 -0.0370  0.0492  0.1377
  466POPI   C4A 7330  10.223  14.886   8.167  0.3566 -0.1018 -0.1020
  466POPI   C1B 7331  10.328  15.502   9.321  0.0413  0.1508  0.0688
  466POPI   C2B 7332  10.360  15.313   8.976  0.0530  0.0777  0.0305
  466POPI   C3B 7333  10.352  15.283   8.613  0.0733  0.0699 -0.0070
  466POPI   C4B 7334  10.553  15.345   8.286 -0.4721 -0.0041  0.0206
  467POPI    C1 7335   2.607   9.679  10.687 -0.1616 -0.1189 -0.4069
  467POPI    C2 7336   2.734  10.026  10.533 -0.0292  0.0640  0.0946
  467POPI    C3 7337   2.463  10.026  10.827  0.0938 -0.2485  0.2125
  467POPI   PO4 7338   2.615   9.526  10.478  0.1262  0.2717  0.1019
  467POPI   GL1 7339   2.533   9.684  10.065  0.0961  0.1088 -0.2249
  467POPI   GL2 7340   2.608  10.004  10.014 -0.0787  0.1056 -0.1032
  467POPI   C1A 7341   2.184   9.510   9.804  0.2296  0.1121 -0.1662
  467POPI   D2A 7342   1.834   9.347   9.690 -0.0251  0.2394 -0.2908
  467POPI   C3A 7343   1.915   9.388   9.305  0.1525  0.1117 -0.1329
  467POPI   C4A 7344   1.873   9.468   8.923 -0.0536  0.4277 -0.1865
  467POPI   C1B 7345   2.564   9.988   9.543  0.1002  0.1739  0.0642
  467POPI   C2B 7346   2.557  10.130   9.212  0.0027 -0.0933  0.3362
  467POPI   C3B 7347   2.424  10.267   8.815  0.1377  0.0841  0.0272
  467POPI   C4B 7348   2.415  10.427   8.449  0.1714 -0.3383  0.2177
  468POPI    C1 7349   9.854   0.458  10.357  0.0828 -0.0966 -0.0467
  468POPI    C2 7350   9.516   0.604  10.514  0.2131  0.2039 -0.0388
  468POPI    C3 7351   9.749   0.363  10.731 -0.0866 -0.1586 -0.1089
  468POPI   PO4 7352   9.837   0.672  10.095  0.3428 -0.1064  0.0967
  468POPI   GL1 7353   9.897   0.700   9.653 -0.2209  0.0390  0.0704
  468POPI   GL2 7354  10.182   0.724   9.753  0.1644 -0.3424  0.0908
  468POPI   C1A 7355  10.037   0.643   9.273 -0.1589 -0.1725 -0.1066
  468POPI   D2A 7356   9.981   0.821   8.951 -0.0687  0.1560  0.1482
  468POPI   C3A 7357  10.078   0.513   8.585 -0.0662  0.1198 -0.0834
  468POPI   C4A 7358  10.273   0.486   8.197 -0.2656 -0.0244 -0.2780
  468POPI   C1B 7359  10.355   0.957   9.442  0.0267 -0.2955 -0.1365
  468POPI   C2B 7360  10.424   0.973   9.010 -0.0468 -0.0813  0.0896
  468POPI   C3B 7361  10.559   0.795   8.582  0.2461 -0.0135  0.1304
  468POPI   C4B 7362  10.422   0.972   8.126 -0.2487 -0.0881 -0.0293
  469POPI    C1 7363  10.107   4.156  10.840 -0.1638  0.0134  0.0167
  469POPI    C2 7364  10.071   4.431  11.128 -0.3077 -0.1515  0.1592
  469POPI    C3 7365  10.397   4.199  11.113 -0.0127  0.2674 -0.1795
  469POPI   PO4 7366  10.084   4.293  10.644 -0.0177  0.2401 -0.1437
  469POPI   GL1 7367  10.337   4.287  10.282  0.1576  0.0315  0.1366
  469POPI   GL2 7368  10.535   4.493  10.280  0.1022  0.0796 -0.2896
  469POPI   C1A 7369  10.448   4.152   9.918  0.0338  0.3343  0.0620
  469POPI   D2A 7370  10.362   4.197   9.557 -0.1662  0.0905  0.1256
  469POPI   C3A 7371  10.471   4.162   9.034 -0.0824  0.2732 -0.0785
  469POPI   C4A 7372  10.424   4.232   8.589  0.1795  0.2442 -0.0839
  469POPI   C1B 7373  10.643   4.609   9.800 -0.0657 -0.4157  0.0132
  469POPI   C2B 7374  10.762   4.598   9.328  0.0011  0.2299 -0.0079
  469POPI   C3B 7375  10.693   4.579   8.847  0.0959  0.0697 -0.4538
  469POPI   C4B 7376  10.650   4.630   8.457  0.1436  0.0492 -0.1172
  470POPI    C1 7377   3.216  14.979  10.202  0.1001 -0.0269  0.0645
  470POPI    C2 7378   3.509  15.140  10.422 -0.0262 -0.1416  0.3203
  470POPI    C3 7379   3.127  15.229  10.500 -0.0729 -0.1860  0.1484
  470POPI   PO4 7380   3.311  15.089   9.946 -0.0511 -0.1173 -0.1734
  470POPI   GL1 7381   3.261  15.116   9.502 -0.0019  0.1832 -0.1719
  470POPI   GL2 7382   3.326  15.422   9.507  0.2511 -0.1594 -0.3192
  470POPI   C1A 7383   2.906  15.260   9.261  0.0243 -0.4181 -0.2325
  470POPI   D2A 7384   2.779  15.327   8.888 -0.1931  0.0297 -0.1043
  470POPI   C3A 7385   2.448  15.380   8.935 -0.0504 -0.0542 -0.0982
  470POPI   C4A 7386   2.031  15.540   8.767 -0.2669 -0.3681  0.0650
  470POPI   C1B 7387   3.366  15.372   9.019  0.1543 -0.0213 -0.2381
  470POPI   C2B 7388   3.319  15.466   8.582 -0.0878  0.0658 -0.0092
  470POPI   C3B 7389   3.160  15.499   8.195 -0.2004 -0.1575  0.1413
  470POPI   C4B 7390   3.047  15.471   7.761  0.2531  0.1232  0.4825
  471POPI    C1 7391  12.107   8.298  10.142 -0.0522 -0.1947 -0.0368
  471POPI    C2 7392  12.256   8.242  10.509 -0.0823 -0.2313 -0.0300
  471POPI    C3 7393  12.493   8.204  10.189  0.1070  0.4387  0.0141
  471POPI   PO4 7394  11.996   8.222   9.979 -0.0267 -0.1792  0.0227
  471POPI   GL1 7395  12.020   8.166   9.597 -0.1936  0.0379 -0.0458
  471POPI   GL2 7396  11.617   8.192   9.653  0.0386  0.0207  0.2740
  471POPI   C1A 7397  12.016   8.279   9.132  0.1254  0.0306 -0.1266
  471POPI   D2A 7398  11.776   8.352   8.783 -0.1277  0.0937  0.3173
  471POPI   C3A 7399  11.903   8.401   8.339 -0.0594  0.0944  0.0557
  471POPI   C4A 7400  12.094   8.553   8.063 -0.0448 -0.0401  0.4425
  471POPI   C1B 7401  11.430   8.202   9.218 -0.0081  0.1696  0.0797
  471POPI   C2B 7402  11.123   8.238   9.116  0.1256 -0.1082 -0.0306
  471POPI   C3B 7403  10.953   8.318   8.694 -0.2956  0.1419  0.2859
  471POPI   C4B 7404  10.944   8.462   8.235 -0.1224  0.0033  0.0010
  472POPI    C1 7405   7.890   2.546  10.567 -0.1566  0.0807  0.0028
  472POPI    C2 7406   7.857   2.941  10.621  0.2783  0.1170  0.0390
  472POPI    C3 7407   7.790   2.691  10.926  0.1344  0.1689  0.0508
  472POPI   PO4 7408   7.921   2.629  10.256  0.0326  0.1140  0.1610
  472POPI   GL1 7409   8.262   2.656   9.967 -0.0681 -0.0839  0.1621
  472POPI   GL2 7410   8.366   3.008   9.897  0.2198  0.3436 -0.2323
  472POPI   C1A 7411   8.185   2.481   9.540 -0.0144 -0.2714  0.2553
  472POPI   D2A 7412   8.246   2.366   9.163 -0.1117  0.2241 -0.0112
  472POPI   C3A 7413   8.092   2.317   8.682 -0.0806 -0.1292 -0.2426
  472POPI   C4A 7414   8.292   2.251   8.282 -0.0287 -0.2292  0.1410
  472POPI   C1B 7415   8.437   2.926   9.574 -0.1304  0.0941  0.2061
  472POPI   C2B 7416   8.433   2.883   9.203 -0.1259 -0.1068 -0.0137
  472POPI   C3B 7417   8.530   3.030   8.775  0.1459  0.0078 -0.0000
  472POPI   C4B 7418   8.505   2.878   8.427  0.0806 -0.0761  0.0926
  473DPPI    C1 7419  16.873   8.249  10.420 -0.1259 -0.1513 -0.0120
  473DPPI    C2 7420  17.199   8.022  10.471 -0.0410 -0.0493 -0.0974
  473DPPI    C3 7421  16.854   7.918  10.643  0.1732  0.1453  0.4730
  473DPPI   PO4 7422  16.734   8.233  10.194 -0.1082  0.0173  0.2199
  473DPPI   GL1 7423  16.988   8.225   9.928 -0.0893  0.1222  0.2110
  473DPPI   GL2 7424  17.233   8.043   9.935 -0.1492 -0.1553 -0.1516
  473DPPI   C1A 7425  17.016   8.490   9.650  0.1943  0.1180 -0.0952
  473DPPI   C2A 7426  16.995   8.506   9.233  0.1923 -0.0618  0.1273
  473DPPI   C3A 7427  16.996   8.588   8.854  0.2444 -0.0264  0.0332
  473DPPI   C4A 7428  17.276   8.539   8.554  0.0857  0.1281  0.2490
  473DPPI   C1B 7429  17.264   8.071   9.453 -0.2468 -0.0544 -0.0349
  473DPPI   C2B 7430  17.183   8.132   9.001  0.1905 -0.0416  0.0645
  473DPPI   C3B 7431  17.022   8.049   8.676  0.3842  0.1076  0.0739
  473DPPI   C4B 7432  17.089   8.153   8.248  0.1596 -0.0538  0.3971
  474DPPI    C1 7433   4.786   0.596  10.217  0.1731  0.1297  0.1326
  474DPPI    C2 7434   4.639   0.822   9.922  0.0596 -0.1719 -0.0470
  474DPPI    C3 7435   4.487   0.851  10.291  0.1624  0.1647 -0.0277
  474DPPI   PO4 7436   4.740   0.337  10.153  0.0782 -0.0930 -0.0673
  474DPPI   GL1 7437   4.598   0.072   9.829  0.1529  0.0804 -0.1151
  474DPPI   GL2 7438   4.484   0.356   9.745 -0.2219  0.0006 -0.0397
  474DPPI   C1A 7439   4.819  -0.133   9.392 -0.2620 -0.2929  0.2822
  474DPPI   C2A 7440   4.893  -0.227   8.915  0.1285 -0.3298 -0.0704
  474DPPI   C3A 7441   4.931  -0.231   8.542  0.1125  0.0774 -0.0907
  474DPPI   C4A 7442   5.037  -0.182   8.179  0.2466 -0.2922  0.0930
  474DPPI   C1B 7443   4.420   0.443   9.275 -0.0146 -0.2663  0.2664
  474DPPI   C2B 7444   4.424   0.481   8.840 -0.0673 -0.1077 -0.0939
  474DPPI   C3B 7445   4.059   0.556   8.552  0.0628 -0.1344 -0.0190
  474DPPI   C4B 7446   3.871   0.386   8.263 -0.1618  0.2019 -0.0274
  475DPPI    C1 7447   7.442   3.069  10.402  0.0578 -0.0764  0.0305
  475DPPI    C2 7448   7.376   3.068  10.797  0.1497 -0.0858  0.0462
  475DPPI    C3 7449   7.361   2.726  10.591  0.3281 -0.1150  0.0804
  475DPPI   PO4 7450   7.359   3.232  10.245 -0.1258 -0.0524  0.0421
  475DPPI   GL1 7451   7.156   3.257   9.865  0.0168 -0.1582 -0.3925
  475DPPI   GL2 7452   6.949   3.500  10.065 -0.0393  0.0183 -0.3296
  475DPPI   C1A 7453   7.061   3.388   9.530 -0.0909 -0.1427  0.2327
  475DPPI   C2A 7454   7.107   3.423   9.153  0.1981  0.0200  0.1039
  475DPPI   C3A 7455   7.253   3.358   8.745 -0.1223 -0.2222 -0.0838
  475DPPI   C4A 7456   7.452   3.369   8.297  0.2726  0.2297 -0.0003
  475DPPI   C1B 7457   7.233   3.712   9.882 -0.1348  0.0505 -0.1113
  475DPPI   C2B 7458   7.399   3.701   9.412 -0.0530  0.1067  0.0470
  475DPPI   C3B 7459   7.442   3.826   8.988 -0.2592 -0.3105  0.0455
  475DPPI   C4B 7460   7.550   3.764   8.635  0.1092 -0.1544 -0.0332
  476DPPI    C1 7461   4.118   2.036  10.671 -0.2673  0.0623 -0.0169
  476DPPI    C2 7462   4.447   1.869  10.826 -0.2100 -0.1091 -0.3149
  476DPPI    C3 7463   4.173   2.034  11.067  0.0108 -0.1176 -0.0540
  476DPPI   PO4 7464   4.180   2.029  10.375  0.0578 -0.1965 -0.0116
  476DPPI   GL1 7465   4.131   2.081   9.954  0.0787  0.0049  0.0119
  476DPPI   GL2 7466   4.529   2.059   9.946  0.1073 -0.0681  0.1398
  476DPPI   C1A 7467   4.055   1.966   9.541 -0.0014 -0.0958  0.0082
  476DPPI   C2A 7468   4.054   1.902   9.036  0.0252  0.0889 -0.1055
  476DPPI   C3A 7469   3.862   1.865   8.613 -0.2696  0.2887 -0.4286
  476DPPI   C4A 7470   3.878   1.931   8.230 -0.1418 -0.0726  0.3743
  476DPPI   C1B 7471   4.547   2.278   9.624 -0.0592 -0.0510  0.4893
  476DPPI   C2B 7472   4.479   2.216   9.169  0.0455 -0.2088 -0.2167
  476DPPI   C3B 7473   4.458   2.059   8.755  0.0416 -0.0144 -0.1704
  476DPPI   C4B 7474   4.367   2.197   8.332  0.0987  0.5160  0.2073
  477DPPI    C1 7475  11.228   0.823  10.365  0.0071  0.0086 -0.0291
  477DPPI    C2 7476  11.108   0.767  10.742 -0.1386  0.0945 -0.0617
  477DPPI    C3 7477  11.486   0.872  10.667 -0.1227  0.1299  0.0641
  477DPPI   PO4 7478  11.196   0.645  10.183 -0.0168  0.1188 -0.0296
  477DPPI   GL1 7479  11.412   0.823   9.853 -0.2104  0.0455  0.2732
  477DPPI   GL2 7480  11.413   0.480   9.721 -0.2807 -0.1655  0.1356
  477DPPI   C1A 7481  11.473   0.899   9.493  0.2285  0.1741 -0.4914
  477DPPI   C2A 7482  11.515   0.837   9.040 -0.2288 -0.1094 -0.0841
  477DPPI   C3A 7483  11.507   0.774   8.565  0.1599 -0.0982 -0.0533
  477DPPI   C4A 7484  11.349   0.622   8.201 -0.2076 -0.1809 -0.2047
  477DPPI   C1B 7485  11.414   0.408   9.329 -0.2054  0.2777  0.1786
  477DPPI   C2B 7486  11.428   0.400   8.864  0.0091 -0.0686 -0.0370
  477DPPI   C3B 7487  11.567   0.272   8.475 -0.1527  0.2178  0.1354
  477DPPI   C4B 7488  11.831  -0.048   8.233 -0.0297  0.1511 -0.0436
  478DPPI    C1 7489  16.935   4.309  10.269  0.1487 -0.0706  0.1632
  478DPPI    C2 7490  16.638   4.486  10.470  0.0474 -0.0996  0.0411
  478DPPI    C3 7491  16.924   4.708  10.298  0.1044 -0.0723  0.1696
  478DPPI   PO4 7492  16.842   4.143  10.045  0.0240 -0.0497 -0.2221
  478DPPI   GL1 7493  16.900   4.088   9.585  0.2012  0.0378  0.0121
  478DPPI   GL2 7494  16.645   4.258   9.623 -0.0549  0.0014  0.3886
  478DPPI   C1A 7495  16.867   4.233   9.121 -0.0010  0.1774  0.0737
  478DPPI   C2A 7496  16.915   4.261   8.605 -0.1174 -0.1828 -0.2160
  478DPPI   C3A 7497  16.774   4.277   8.241 -0.3895  0.0509  0.1271
  478DPPI   C4A 7498  16.756   4.194   7.776  0.0063  0.0229 -0.0534
  478DPPI   C1B 7499  16.453   4.436   9.228  0.1340 -0.3953  0.0055
  478DPPI   C2B 7500  16.449   4.372   8.806  0.1358 -0.0213 -0.1357
  478DPPI   C3B 7501  16.272   4.368   8.340 -0.2055 -0.2081  0.2032
  478DPPI   C4B 7502  16.283   4.299   7.853  0.2594  0.0518 -0.0694
  479DPPI    C1 7503  13.723  15.166  10.698  0.1661 -0.0262 -0.1287
  479DPPI    C2 7504  13.545  15.045  11.036  0.1996 -0.0363 -0.1146
  479DPPI    C3 7505  13.860  14.845  10.893  0.2253  0.0059 -0.1173
  479DPPI   PO4 7506  13.494  15.255  10.601 -0.1133  0.3871  0.2235
  479DPPI   GL1 7507  13.559  15.546  10.239  0.1530 -0.0053 -0.3237
  479DPPI   GL2 7508  13.321  15.428  10.101  0.0432  0.1141  0.4584
  479DPPI   C1A 7509  13.582  15.965  10.197  0.1390 -0.1851  0.0697
  479DPPI   C2A 7510  13.405  16.385  10.073 -0.4604 -0.0806 -0.2449
  479DPPI   C3A 7511  13.463  16.741   9.692 -0.1341  0.0462 -0.2308
  479DPPI   C4A 7512  13.315  16.902   9.425 -0.0088  0.3430  0.0673
  479DPPI   C1B 7513  13.555  15.573   9.677  0.2988 -0.0097 -0.0280
  479DPPI   C2B 7514  13.442  15.863   9.277 -0.0667  0.1214  0.1425
  479DPPI   C3B 7515  13.660  15.642   8.874 -0.2121  0.0493 -0.1921
  479DPPI   C4B 7516  13.822  15.626   8.403 -0.1223  0.1423 -0.0799
  480DPPI    C1 7517   9.880   7.677  10.409 -0.4286 -0.1548  0.0051
  480DPPI    C2 7518   9.896   7.849  10.770 -0.2065 -0.0560 -0.0503
  480DPPI    C3 7519   9.900   7.450  10.738 -0.5138 -0.0706  0.0684
  480DPPI   PO4 7520  10.104   7.867  10.214  0.1466 -0.1949 -0.4229
  480DPPI   GL1 7521  10.449   7.914   9.976 -0.3196  0.1193  0.2028
  480DPPI   GL2 7522  10.517   7.629   9.840 -0.0072 -0.2884 -0.2827
  480DPPI   C1A 7523  10.207   7.899   9.568  0.0205 -0.0154 -0.2370
  480DPPI   C2A 7524  10.075   7.945   9.056  0.2124  0.0391 -0.0295
  480DPPI   C3A 7525  10.103   7.836   8.708 -0.1975  0.0466  0.1970
  480DPPI   C4A 7526  10.182   7.782   8.348  0.0475 -0.0618  0.1574
  480DPPI   C1B 7527  10.362   7.393   9.600  0.0138 -0.0082  0.1782
  480DPPI   C2B 7528  10.453   7.453   9.128  0.1056  0.0553 -0.2240
  480DPPI   C3B 7529  10.461   7.435   8.801  0.1807  0.4466 -0.1021
  480DPPI   C4B 7530  10.465   7.359   8.418 -0.1851  0.3311  0.1411
  481DPPI    C1 7531  12.534   2.886  10.509 -0.1698  0.1232  0.3904
  481DPPI    C2 7532  12.406   2.508  10.534 -0.0283  0.0398 -0.0558
  481DPPI    C3 7533  12.525   2.701  10.863  0.1625 -0.3970  0.1397
  481DPPI   PO4 7534  12.599   2.887  10.261  0.0277  0.2031  0.1645
  481DPPI   GL1 7535  12.812   2.890   9.838 -0.0846  0.2179 -0.1453
  481DPPI   GL2 7536  12.583   2.677   9.807 -0.1214 -0.1296 -0.1041
  481DPPI   C1A 7537  12.749   2.957   9.347 -0.1403 -0.1067 -0.1814
  481DPPI   C2A 7538  12.591   3.065   8.872  0.2297 -0.1961  0.1660
  481DPPI   C3A 7539  12.546   3.270   8.486  0.1717 -0.0293 -0.2390
  481DPPI   C4A 7540  12.386   3.376   8.042  0.1555 -0.0689 -0.2415
  481DPPI   C1B 7541  12.565   2.453   9.417 -0.0191 -0.0904  0.0306
  481DPPI   C2B 7542  12.636   2.470   8.950  0.0120  0.1248  0.0118
  481DPPI   C3B 7543  12.704   2.421   8.499 -0.0582  0.2135  0.1431
  481DPPI   C4B 7544  12.642   2.412   8.111 -0.0627 -0.0109  0.0738
  482DPPI    C1 7545   3.360  17.150  10.335  0.0023 -0.0904 -0.0734
  482DPPI    C2 7546   3.046  17.201  10.577  0.0512  0.0879 -0.0464
  482DPPI    C3 7547   3.387  17.051  10.722  0.0412  0.0791 -0.0319
  482DPPI   PO4 7548   3.318  17.394  10.121 -0.0038 -0.0429 -0.3615
  482DPPI   GL1 7549   3.122  17.567   9.730  0.1428  0.1689 -0.1477
  482DPPI   GL2 7550   2.734  17.590   9.587 -0.0089  0.0341  0.1303
  482DPPI   C1A 7551   3.332  17.354   9.416 -0.0256  0.0125 -0.2281
  482DPPI   C2A 7552   3.252  17.224   8.952 -0.1066  0.0994 -0.0027
  482DPPI   C3A 7553   3.107  17.263   8.457  0.0403  0.1845 -0.0272
  482DPPI   C4A 7554   3.245  17.345   8.024  0.3276 -0.0511  0.1927
  482DPPI   C1B 7555   2.480  17.710   9.174  0.3090 -0.1790 -0.3136
  482DPPI   C2B 7556   2.436  17.663   8.749  0.2773  0.0698 -0.2715
  482DPPI   C3B 7557   2.197  17.583   8.426  0.2709 -0.0714  0.0632
  482DPPI   C4B 7558   2.022  17.827   8.018  0.0095  0.2802  0.2447
  483DPPI    C1 7559   1.375   8.655  10.757  0.0625  0.1668 -0.3076
  483DPPI    C2 7560   1.723   8.463  10.714  0.0788  0.1676 -0.1834
  483DPPI    C3 7561   1.714   8.823  10.887 -0.0478 -0.0692  0.3227
  483DPPI   PO4 7562   1.224   8.631  10.476 -0.1224  0.1049  0.3192
  483DPPI   GL1 7563   0.927   8.567  10.167 -0.2933 -0.0406  0.1741
  483DPPI   GL2 7564   0.675   8.602  10.136 -0.0357 -0.2873 -0.2528
  483DPPI   C1A 7565   1.076   8.550   9.686 -0.2892  0.1164  0.1904
  483DPPI   C2A 7566   1.174   8.557   9.238 -0.1207 -0.1079  0.0661
  483DPPI   C3A 7567   1.146   8.753   8.864 -0.2823 -0.1495 -0.0585
  483DPPI   C4A 7568   0.928   8.822   8.508 -0.1813  0.2311  0.0518
  483DPPI   C1B 7569   0.614   8.732   9.696  0.0061  0.1809 -0.1947
  483DPPI   C2B 7570   0.688   8.630   9.309  0.1040 -0.2985  0.2377
  483DPPI   C3B 7571   0.566   8.740   8.858 -0.0751  0.0546 -0.1660
  483DPPI   C4B 7572   0.570   9.129   8.511  0.0367 -0.2258 -0.0570
  484DPPI    C1 7573   8.015   7.580  10.834  0.0509 -0.0217  0.1671
  484DPPI    C2 7574   7.951   7.928  10.646  0.0986 -0.0722  0.0561
  484DPPI    C3 7575   8.065   7.925  11.030  0.0245  0.0323  0.0794
  484DPPI   PO4 7576   8.172   7.453  10.630 -0.0166 -0.1338  0.2618
  484DPPI   GL1 7577   8.278   7.323  10.271  0.0666  0.1332 -0.1729
  484DPPI   GL2 7578   7.957   7.527  10.206  0.0245 -0.0069 -0.1452
  484DPPI   C1A 7579   8.426   7.157   9.899 -0.0829 -0.0439  0.1844
  484DPPI   C2A 7580   8.397   7.060   9.389 -0.0401  0.0112  0.1845
  484DPPI   C3A 7581   8.441   7.035   9.003 -0.0547  0.3049 -0.0079
  484DPPI   C4A 7582   8.476   7.158   8.586  0.0137 -0.0231  0.0109
  484DPPI   C1B 7583   8.089   7.575   9.771 -0.1848  0.1599  0.0019
  484DPPI   C2B 7584   8.143   7.544   9.374  0.1138  0.1030  0.0230
  484DPPI   C3B 7585   8.226   7.542   8.873 -0.4048  0.1113  0.0432
  484DPPI   C4B 7586   8.172   7.457   8.396  0.0746  0.0976  0.0661
  485DPPI    C1 7587  16.096  14.209  10.498  0.2772  0.3621 -0.4032
  485DPPI    C2 7588  16.450  14.191  10.684  0.0082 -0.0104  0.0989
  485DPPI    C3 7589  16.177  14.458  10.801 -0.0468 -0.0319  0.0199
  485DPPI   PO4 7590  16.077  14.034  10.356  0.1135 -0.0027 -0.1455
  485DPPI   GL1 7591  16.179  13.884   9.996 -0.1447 -0.1707  0.3930
  485DPPI   GL2 7592  16.303  13.569   9.931  0.0620  0.0157  0.0374
  485DPPI   C1A 7593  16.250  13.994   9.573 -0.0819  0.3068 -0.0473
  485DPPI   C2A 7594  16.324  13.860   9.202  0.0784  0.1183 -0.0134
  485DPPI   C3A 7595  16.564  13.841   8.858 -0.0153 -0.2110  0.1737
  485DPPI   C4A 7596  16.840  13.615   8.636 -0.0788 -0.1500  0.2493
  485DPPI   C1B 7597  16.445  13.474   9.534 -0.0760 -0.0116  0.0921
  485DPPI   C2B 7598  16.509  13.393   9.103  0.0162 -0.0100 -0.2503
  485DPPI   C3B 7599  16.441  13.244   8.742  0.0284 -0.0954  0.3067
  485DPPI   C4B 7600  16.231  13.129   8.241 -0.1186  0.3544 -0.0914
  486DPPI    C1 7601  13.872  13.717  10.767  0.2849  0.0935 -0.1038
  486DPPI    C2 7602  14.072  13.919  11.049  0.2585 -0.0442  0.0148
  486DPPI    C3 7603  13.898  13.571  11.138  0.0439  0.0287 -0.1113
  486DPPI   PO4 7604  14.048  13.791  10.565  0.0092  0.0610 -0.0625
  486DPPI   GL1 7605  14.076  13.743  10.111  0.1890 -0.3245  0.2395
  486DPPI   GL2 7606  13.855  13.959  10.020 -0.1900  0.0835  0.2597
  486DPPI   C1A 7607  14.186  13.696   9.667  0.0556  0.4438  0.0330
  486DPPI   C2A 7608  14.177  13.741   9.304 -0.0067  0.2407  0.3997
  486DPPI   C3A 7609  14.273  13.884   8.835  0.1722  0.1022 -0.2938
  486DPPI   C4A 7610  14.161  13.949   8.350 -0.0508  0.0103  0.0485
  486DPPI   C1B 7611  13.847  14.096   9.530 -0.1028  0.0982  0.0414
  486DPPI   C2B 7612  13.880  14.055   9.071  0.0648 -0.0360  0.0915
  486DPPI   C3B 7613  13.880  14.174   8.682  0.1181  0.3624 -0.1700
  486DPPI   C4B 7614  13.791  14.340   8.287  0.1053  0.4617  0.0868
  487DPPI    C1 7615  16.873  13.376  10.633  0.1243  0.1430  0.1523
  487DPPI    C2 7616  17.074  13.258  10.957  0.2384  0.1024  0.0677
  487DPPI    C3 7617  16.870  13.602  10.963 -0.0166 -0.0487  0.2839
  487DPPI   PO4 7618  17.096  13.240  10.445  0.2122  0.0641  0.1636
  487DPPI   GL1 7619  17.278  13.197  10.004  0.2772  0.0784 -0.0734
  487DPPI   GL2 7620  17.091  12.947   9.986 -0.0797 -0.2773  0.0792
  487DPPI   C1A 7621  17.576  13.230   9.611  0.3826 -0.0223 -0.1290
  487DPPI   C2A 7622  17.502  13.209   9.208 -0.0467  0.0899  0.0097
  487DPPI   C3A 7623  17.446  13.164   8.828 -0.2981  0.0750  0.2165
  487DPPI   C4A 7624  17.436  13.069   8.369  0.0077 -0.1806  0.0618
  487DPPI   C1B 7625  17.224  12.926   9.524  0.3543  0.1958 -0.2092
  487DPPI   C2B 7626  17.104  12.807   9.097 -0.0390  0.0333 -0.1164
  487DPPI   C3B 7627  17.052  12.706   8.680 -0.0447  0.1258 -0.0071
  487DPPI   C4B 7628  16.980  12.637   8.319 -0.0861 -0.1602  0.0097
  488DPPI    C1 7629   7.430   4.027  10.934  0.0036  0.0956 -0.1834
  488DPPI    C2 7630   7.100   3.878  11.103 -0.1067  0.3127 -0.2042
  488DPPI    C3 7631   7.427   3.650  11.069 -0.2580  0.0907 -0.1984
  488DPPI   PO4 7632   7.399   4.095  10.682 -0.3411  0.1134  0.2756
  488DPPI   GL1 7633   7.559   3.910  10.308 -0.1608 -0.1445  0.0980
  488DPPI   GL2 7634   7.611   3.646  10.136  0.0645 -0.0451  0.1731
  488DPPI   C1A 7635   7.660   4.055   9.859 -0.0073  0.1937 -0.0926
  488DPPI   C2A 7636   7.717   4.084   9.366  0.1664 -0.1553  0.1104
  488DPPI   C3A 7637   7.744   4.248   8.953  0.1884  0.0796 -0.1722
  488DPPI   C4A 7638   7.695   4.199   8.594  0.5696  0.2619  0.2915
  488DPPI   C1B 7639   7.630   3.415   9.702  0.1429  0.3343  0.0115
  488DPPI   C2B 7640   7.834   3.403   9.271 -0.0111 -0.1949 -0.2376
  488DPPI   C3B 7641   7.801   3.344   8.769 -0.1146  0.0223 -0.2387
  488DPPI   C4B 7642   8.174   3.273   8.491  0.1811  0.0141 -0.3263
  489DPPI    C1 7643  15.437   8.631  10.631 -0.1553  0.2779  0.0662
  489DPPI    C2 7644  15.121   8.387  10.598 -0.0861  0.2133 -0.1354
  489DPPI    C3 7645  15.147   8.640  10.907 -0.1737 -0.0121  0.0596
  489DPPI   PO4 7646  15.400   8.780  10.378  0.1796  0.2620  0.0576
  489DPPI   GL1 7647  15.599   8.948   9.966 -0.0325  0.0600  0.1918
  489DPPI   GL2 7648  15.462   8.789   9.787  0.0136  0.0640 -0.5135
  489DPPI   C1A 7649  15.287   9.390   9.724  0.0178 -0.0103  0.1505
  489DPPI   C2A 7650  15.137   9.623   9.372  0.0802  0.2011  0.0923
  489DPPI   C3A 7651  15.157   9.678   8.891 -0.0148  0.1412  0.2017
  489DPPI   C4A 7652  14.756   9.668   8.679  0.1070  0.1664  0.2651
  489DPPI   C1B 7653  15.325   8.932   9.399 -0.0578 -0.2871 -0.1526
  489DPPI   C2B 7654  15.318   8.703   9.048 -0.0968 -0.2227 -0.3559
  489DPPI   C3B 7655  15.245   8.684   8.632 -0.3341  0.1613 -0.0909
  489DPPI   C4B 7656  15.169   8.824   8.269 -0.0661 -0.0974  0.0238
  490DPPI    C1 7657   9.708   1.646  10.643  0.1092  0.2100  0.0769
  490DPPI    C2 7658   9.895   1.318  10.773 -0.1414  0.1279  0.2394
  490DPPI    C3 7659   9.614   1.490  10.999 -0.0287  0.4432  0.1452
  490DPPI   PO4 7660   9.689   1.601  10.361 -0.0133 -0.2335  0.0423
  490DPPI   GL1 7661   9.856   1.652   9.973 -0.2550 -0.0391  0.2279
  490DPPI   GL2 7662   9.598   1.821   9.914 -0.1375 -0.0742  0.0711
  490DPPI   C1A 7663  10.082   1.869   9.554  0.1711  0.0626 -0.0441
  490DPPI   C2A 7664  10.025   1.953   9.175  0.2008  0.0443 -0.0263
  490DPPI   C3A 7665   9.991   1.909   8.750 -0.3880 -0.0229 -0.0643
  490DPPI   C4A 7666  10.154   1.894   8.380  0.1779  0.0419  0.1454
  490DPPI   C1B 7667   9.617   1.762   9.459  0.3473 -0.1837  0.0283
  490DPPI   C2B 7668   9.546   1.910   9.052 -0.3262  0.2641  0.1430
  490DPPI   C3B 7669   9.489   2.048   8.703  0.1611 -0.3488  0.0097
  490DPPI   C4B 7670   9.530   2.099   8.180  0.0065  0.4332 -0.0571
  491DPPI    C1 7671   8.079  11.606  10.149 -0.0302 -0.1919  0.0046
  491DPPI    C2 7672   7.821  11.820  10.367 -0.0221 -0.0490 -0.1243
  491DPPI    C3 7673   7.907  11.444  10.471 -0.1717 -0.0490  0.0021
  491DPPI   PO4 7674   8.012  11.660   9.892 -0.0956 -0.1458  0.1913
  491DPPI   GL1 7675   8.341  11.719   9.663 -0.0057  0.0585  0.1268
  491DPPI   GL2 7676   8.324  11.991   9.483 -0.0392 -0.1106  0.1694
  491DPPI   C1A 7677   8.361  11.526   9.275 -0.1392  0.2369  0.0588
  491DPPI   C2A 7678   8.388  11.448   8.823  0.0508 -0.1858 -0.1872
  491DPPI   C3A 7679   8.432  11.142   8.485  0.3015  0.0336  0.0118
  491DPPI   C4A 7680   8.226  10.918   8.202  0.0285 -0.1558 -0.1034
  491DPPI   C1B 7681   8.149  11.932   9.131  0.2045 -0.4381  0.2067
  491DPPI   C2B 7682   8.124  11.885   8.735 -0.0331  0.0577  0.0834
  491DPPI   C3B 7683   8.287  11.725   8.354 -0.1177  0.0096  0.0496
  491DPPI   C4B 7684   8.314  11.420   8.067 -0.2093  0.1667 -0.0660
  492DPPI    C1 7685  13.874   6.721  10.183 -0.1345  0.0204  0.0065
  492DPPI    C2 7686  13.801   7.081  10.342 -0.0443 -0.1728  0.5031
  492DPPI    C3 7687  13.602   6.760  10.474 -0.2333 -0.2896 -0.0410
  492DPPI   PO4 7688  14.117   6.771  10.068 -0.0608  0.1879  0.0257
  492DPPI   GL1 7689  14.265   7.111   9.652 -0.0500  0.1145  0.0005
  492DPPI   GL2 7690  14.446   7.327   9.721  0.2358 -0.0026 -0.0974
  492DPPI   C1A 7691  14.083   7.100   9.297  0.1278  0.0020 -0.2108
  492DPPI   C2A 7692  13.924   7.365   8.937 -0.0391  0.0336 -0.0652
  492DPPI   C3A 7693  13.836   7.435   8.609  0.3253  0.0012  0.0750
  492DPPI   C4A 7694  13.914   7.443   8.171 -0.1669  0.2736  0.1141
  492DPPI   C1B 7695  14.408   7.460   9.310  0.0779 -0.1065 -0.0661
  492DPPI   C2B 7696  14.410   7.418   8.958  0.0354  0.3690 -0.1198
  492DPPI   C3B 7697  14.324   7.226   8.656 -0.1095  0.1599 -0.0051
  492DPPI   C4B 7698  13.886   6.938   8.615 -0.1093 -0.0902  0.2221
  493DPPI    C1 7699   8.514  13.135  10.277 -0.2062 -0.2926  0.1902
  493DPPI    C2 7700   8.867  13.027  10.432 -0.1026 -0.0378  0.1372
  493DPPI    C3 7701   8.530  12.959  10.636 -0.0224 -0.2602  0.1989
  493DPPI   PO4 7702   8.480  13.008  10.066 -0.0012 -0.1415  0.0251
  493DPPI   GL1 7703   8.361  12.850   9.632  0.1073  0.2621 -0.0029
  493DPPI   GL2 7704   8.443  13.178   9.584 -0.0568  0.0354  0.1331
  493DPPI   C1A 7705   8.658  12.830   9.359  0.1176  0.2926  0.1247
  493DPPI   C2A 7706   8.814  12.591   8.896 -0.0855  0.2689  0.1559
  493DPPI   C3A 7707   8.954  12.476   8.570  0.0049  0.1683  0.0844
  493DPPI   C4A 7708   8.912  12.270   8.239  0.0971 -0.2313  0.0014
  493DPPI   C1B 7709   8.417  13.283   9.141  0.1203  0.0210 -0.0324
  493DPPI   C2B 7710   8.228  13.252   8.704  0.0579  0.2254 -0.1508
  493DPPI   C3B 7711   8.313  13.128   8.257 -0.0674 -0.1737 -0.0223
  493DPPI   C4B 7712   8.051  13.173   7.937  0.2651  0.0702 -0.1417
  494DPPI    C1 7713   0.614  18.288  10.300  0.0585 -0.2434  0.1215
  494DPPI    C2 7714   0.667  18.632  10.497  0.0738 -0.1286 -0.0799
  494DPPI    C3 7715   0.899  18.316  10.579  0.1372 -0.0556  0.0239
  494DPPI   PO4 7716   0.369  18.323  10.236  0.1274  0.0025  0.0731
  494DPPI   GL1 7717   0.251  18.483   9.797  0.2034 -0.1596  0.0466
  494DPPI   GL2 7718   0.575  18.387   9.795  0.0284  0.2043  0.1356
  494DPPI   C1A 7719   0.060  18.655   9.382  0.1373  0.2606  0.1294
  494DPPI   C2A 7720   0.123  18.861   9.006  0.1216  0.1322  0.1231
  494DPPI   C3A 7721   0.199  18.960   8.586  0.0508 -0.3146 -0.0875
  494DPPI   C4A 7722   0.121  18.938   8.101 -0.0774  0.2426  0.0159
  494DPPI   C1B 7723   0.531  18.427   9.380  0.1456  0.2070  0.2405
  494DPPI   C2B 7724   0.412  18.426   9.034  0.0828 -0.1677  0.1747
  494DPPI   C3B 7725   0.271  18.450   8.559  0.0312 -0.0000 -0.0440
  494DPPI   C4B 7726   0.089  18.446   8.102  0.0043  0.1322  0.0693
  495DPPI    C1 7727   4.779  17.193  10.234 -0.1936  0.2759 -0.1664
  495DPPI    C2 7728   5.176  17.226  10.275 -0.1614  0.1419 -0.3585
  495DPPI    C3 7729   4.940  17.230  10.598  0.0287 -0.1831 -0.2109
  495DPPI   PO4 7730   4.757  17.307  10.011 -0.2140  0.0722 -0.1637
  495DPPI   GL1 7731   4.705  17.363   9.576  0.1615 -0.1047  0.1659
  495DPPI   GL2 7732   4.492  17.576   9.564 -0.2237 -0.4081  0.0729
  495DPPI   C1A 7733   4.653  17.344   9.114  0.1069  0.2911  0.3472
  495DPPI   C2A 7734   4.787  17.175   8.752  0.0340 -0.0119 -0.1043
  495DPPI   C3A 7735   4.767  17.101   8.311  0.2487 -0.2989  0.2533
  495DPPI   C4A 7736   4.726  17.153   7.919  0.0107  0.1407  0.0836
  495DPPI   C1B 7737   4.485  17.849   9.261  0.0077 -0.1443  0.1867
  495DPPI   C2B 7738   4.491  17.729   8.844 -0.1518 -0.1374 -0.0020
  495DPPI   C3B 7739   4.526  17.695   8.427 -0.1512 -0.2613 -0.2500
  495DPPI   C4B 7740   4.761  17.656   8.099 -0.0564  0.2720 -0.0069
  496DPPI    C1 7741   1.588  14.099  10.453 -0.0197  0.1858  0.2225
  496DPPI    C2 7742   1.440  13.920  10.779 -0.0710 -0.0777  0.0576
  496DPPI    C3 7743   1.670  13.714  10.525 -0.0264  0.1274 -0.0706
  496DPPI   PO4 7744   1.437  14.229  10.247  0.1186  0.0340 -0.0467
  496DPPI   GL1 7745   1.406  14.270   9.833  0.1290  0.1072  0.3486
  496DPPI   GL2 7746   1.320  14.614   9.901  0.2028 -0.0249 -0.2603
  496DPPI   C1A 7747   1.618  14.144   9.466 -0.1091  0.3464 -0.2184
  496DPPI   C2A 7748   1.654  14.263   8.992 -0.3649 -0.0056 -0.3362
  496DPPI   C3A 7749   1.722  14.293   8.526  0.2683  0.0708 -0.0495
  496DPPI   C4A 7750   1.861  14.353   8.107 -0.2145 -0.0173 -0.1200
  496DPPI   C1B 7751   1.256  14.574   9.429  0.1124 -0.0178  0.2889
  496DPPI   C2B 7752   1.175  14.539   8.891 -0.5207  0.1780  0.1448
  496DPPI   C3B 7753   1.189  14.401   8.456 -0.0291 -0.0747  0.3788
  496DPPI   C4B 7754   1.265  14.364   8.027 -0.0295  0.0968  0.3332
  497DPPI    C1 7755   3.516  12.666   9.853  0.1780 -0.0417  0.0913
  497DPPI    C2 7756   3.714  12.558  10.183  0.0652  0.2138  0.2452
  497DPPI    C3 7757   3.349  12.721  10.212 -0.1069 -0.1098 -0.0278
  497DPPI   PO4 7758   3.686  12.881   9.681  0.0135  0.0923  0.0029
  497DPPI   GL1 7759   3.711  12.941   9.205  0.2138 -0.0483 -0.3441
  497DPPI   GL2 7760   3.896  12.706   9.277 -0.0490 -0.0030 -0.0389
  497DPPI   C1A 7761   3.721  12.957   8.789  0.1787  0.2775 -0.0401
  497DPPI   C2A 7762   3.775  13.024   8.425 -0.1458 -0.2398  0.1507
  497DPPI   C3A 7763   3.692  12.935   8.014  0.0989 -0.0120 -0.1001
  497DPPI   C4A 7764   3.534  12.892   7.619 -0.3653 -0.2953  0.0739
  497DPPI   C1B 7765   4.134  12.646   8.907  0.1164  0.0706 -0.2520
  497DPPI   C2B 7766   4.180  12.731   8.520 -0.4003 -0.1893 -0.0475
  497DPPI   C3B 7767   4.222  12.765   8.037  0.0856  0.1829 -0.0506
  497DPPI   C4B 7768   4.130  12.916   7.638 -0.0798 -0.0728 -0.0127
  498DPPI    C1 7769   1.138  13.767  10.392  0.0338  0.1113  0.2085
  498DPPI    C2 7770   1.005  14.104  10.561 -0.0596  0.1491  0.0618
  498DPPI    C3 7771   0.827  13.755  10.644 -0.1874  0.1856 -0.0557
  498DPPI   PO4 7772   1.156  13.811  10.132 -0.0033 -0.0167  0.1858
  498DPPI   GL1 7773   0.965  13.788   9.814 -0.1300  0.0665  0.0799
  498DPPI   GL2 7774   0.951  13.499   9.698  0.2589 -0.1141 -0.1157
  498DPPI   C1A 7775   1.109  14.085   9.502  0.2549 -0.0658 -0.1162
  498DPPI   C2A 7776   1.162  14.138   9.145  0.0657 -0.0825 -0.1066
  498DPPI   C3A 7777   1.010  14.073   8.737 -0.0538 -0.1033  0.3594
  498DPPI   C4A 7778   0.994  13.820   8.413 -0.0763 -0.0922  0.1656
  498DPPI   C1B 7779   1.022  13.551   9.229  0.0624  0.0822  0.2082
  498DPPI   C2B 7780   1.204  13.428   8.804  0.1469  0.4322 -0.0352
  498DPPI   C3B 7781   1.299  13.464   8.450  0.0773 -0.3005  0.2422
  498DPPI   C4B 7782   1.297  13.559   8.032  0.3519  0.1903  0.0389
  499DPPI    C1 7783   0.546  12.142  10.329  0.0698  0.1543  0.3229
  499DPPI    C2 7784   0.884  12.293  10.176  0.0214  0.0167  0.0750
  499DPPI    C3 7785   0.901  12.030  10.476  0.1461 -0.1448 -0.0717
  499DPPI   PO4 7786   0.376  12.288  10.210 -0.2285 -0.3156 -0.3275
  499DPPI   GL1 7787   0.030  12.144   9.859  0.0503  0.3318 -0.1509
  499DPPI   GL2 7788   0.165  11.875   9.893  0.1755  0.1111  0.2235
  499DPPI   C1A 7789   0.186  12.226   9.544 -0.3750 -0.1696 -0.0400
  499DPPI   C2A 7790   0.147  12.222   9.131 -0.2138 -0.1656  0.0032
  499DPPI   C3A 7791   0.054  12.041   8.691  0.0260  0.3171 -0.0359
  499DPPI   C4A 7792   0.068  11.866   8.271 -0.1152  0.0624 -0.0480
  499DPPI   C1B 7793   0.131  11.725   9.506  0.1307  0.0821 -0.2725
  499DPPI   C2B 7794   0.037  11.656   9.125 -0.0882  0.0992  0.2805
  499DPPI   C3B 7795  -0.312  11.607   8.722  0.0599 -0.2873  0.1570
  499DPPI   C4B 7796  -0.375  11.710   8.273 -0.0612  0.0999 -0.1682
  500DPPI    C1 7797  17.642  15.797  10.673 -0.0355 -0.0313  0.2436
  500DPPI    C2 7798  17.613  15.411  10.571 -0.0237  0.0025  0.1102
  500DPPI    C3 7799  17.803  15.515  10.907  0.0316 -0.1033  0.1121
  500DPPI   PO4 7800  17.632  15.917  10.491  0.1456 -0.1049  0.0936
  500DPPI   GL1 7801  17.383  16.112  10.154 -0.2643 -0.3528  0.2192
  500DPPI   GL2 7802  17.618  15.904   9.902 -0.2301  0.1420 -0.3219
  500DPPI   C1A 7803  17.148  16.014   9.861 -0.0534  0.3126  0.1371
  500DPPI   C2A 7804  17.063  15.983   9.455 -0.0983  0.1007 -0.1869
  500DPPI   C3A 7805  16.974  15.972   9.045 -0.2521  0.1833  0.0847
  500DPPI   C4A 7806  17.022  15.867   8.652  0.1089  0.0308 -0.0833
  500DPPI   C1B 7807  17.526  15.834   9.501 -0.0559 -0.0979 -0.0714
  500DPPI   C2B 7808  17.478  15.680   9.118 -0.0909 -0.2540 -0.1481
  500DPPI   C3B 7809  17.435  15.626   8.730 -0.1009 -0.5096 -0.1917
  500DPPI   C4B 7810  17.475  15.579   8.364  0.1364  0.0483  0.2100
  501DPPI    C1 7811   8.885  14.479   9.850 -0.0210  0.0952  0.0496
  501DPPI    C2 7812   8.807  14.429  10.240 -0.0314 -0.0196  0.0332
  501DPPI    C3 7813   8.901  14.792  10.099  0.0636  0.0052  0.1584
  501DPPI   PO4 7814   8.658  14.349   9.752 -0.1415 -0.1096  0.1576
  501DPPI   GL1 7815   8.419  14.233   9.413 -0.1057  0.1817  0.0815
  501DPPI   GL2 7816   8.458  13.939   9.470 -0.0283 -0.2408 -0.1558
  501DPPI   C1A 7817   8.433  14.203   8.920  0.0438 -0.0991 -0.2908
  501DPPI   C2A 7818   8.441  14.091   8.493  0.3065  0.0860  0.0813
  501DPPI   C3A 7819   8.470  14.158   8.000  0.3941  0.1564  0.0266
  501DPPI   C4A 7820   8.572  13.937   7.615  0.1585  0.3366  0.0667
  501DPPI   C1B 7821   8.264  13.798   9.130  0.2129  0.1555  0.1247
  501DPPI   C2B 7822   8.157  13.683   8.802  0.0021  0.1122  0.0171
  501DPPI   C3B 7823   8.218  13.662   8.303  0.1329 -0.0453 -0.1167
  501DPPI   C4B 7824   8.381  13.569   7.966  0.0263  0.0559  0.1819
  502DPPI    C1 7825  14.834  10.999  10.256 -0.2556 -0.2221 -0.1983
  502DPPI    C2 7826  15.085  10.699  10.341 -0.0732 -0.0217 -0.0147
  502DPPI    C3 7827  14.872  10.870  10.633 -0.1852  0.0204 -0.1203
  502DPPI   PO4 7828  14.753  10.845   9.934 -0.0993 -0.0236  0.1437
  502DPPI   GL1 7829  14.614  10.828   9.573 -0.1340  0.0728  0.1809
  502DPPI   GL2 7830  14.317  10.913   9.553  0.0694 -0.0862  0.0366
  502DPPI   C1A 7831  14.697  10.957   9.065 -0.0358  0.1318  0.2098
  502DPPI   C2A 7832  14.788  11.119   8.687  0.1022 -0.2742  0.3444
  502DPPI   C3A 7833  14.935  11.338   8.281 -0.0842  0.2186  0.0514
  502DPPI   C4A 7834  15.157  11.657   7.963  0.0393 -0.0163  0.0709
  502DPPI   C1B 7835  14.196  11.053   9.184  0.1037  0.2552 -0.0281
  502DPPI   C2B 7836  14.268  11.019   8.703  0.0828 -0.1141  0.3069
  502DPPI   C3B 7837  14.199  11.198   8.455  0.2380 -0.1283  0.0271
  502DPPI   C4B 7838  14.399  11.441   8.101 -0.0626  0.1810 -0.1726
  503DPPI    C1 7839   4.376   6.085  10.596 -0.1067  0.0333 -0.1325
  503DPPI    C2 7840   4.225   6.077  10.967  0.0318  0.1120 -0.0736
  503DPPI    C3 7841   4.620   6.057  10.911  0.0023 -0.0789 -0.2262
  503DPPI   PO4 7842   4.327   5.891  10.401 -0.0019  0.1790  0.5762
  503DPPI   GL1 7843   4.197   5.674  10.059 -0.0206 -0.2127  0.2159
  503DPPI   GL2 7844   4.072   5.939   9.868 -0.0055 -0.0306  0.0759
  503DPPI   C1A 7845   4.320   5.411   9.775  0.2654 -0.1067  0.0399
  503DPPI   C2A 7846   4.339   5.354   9.339  0.2404  0.1550 -0.0398
  503DPPI   C3A 7847   4.530   5.377   8.943 -0.0442  0.2168 -0.1619
  503DPPI   C4A 7848   4.666   5.424   8.608  0.0325  0.4717 -0.0373
  503DPPI   C1B 7849   4.091   5.834   9.527 -0.3767 -0.2247 -0.3542
  503DPPI   C2B 7850   4.182   5.740   9.017 -0.0096  0.1482  0.0343
  503DPPI   C3B 7851   4.238   5.660   8.659 -0.1627  0.1538 -0.0662
  503DPPI   C4B 7852   4.098   5.489   8.304 -0.3280  0.2675 -0.1443
  504DPPI    C1 7853   8.535   0.656  10.364 -0.0308  0.1107  0.1273
  504DPPI    C2 7854   8.843   0.411  10.436 -0.2080 -0.2236 -0.2156
  504DPPI    C3 7855   8.486   0.338  10.601 -0.1239  0.1329  0.1383
  504DPPI   PO4 7856   8.648   0.950  10.394  0.0288  0.0471  0.0121
  504DPPI   GL1 7857   8.897   1.065  10.035  0.0634 -0.0741  0.2773
  504DPPI   GL2 7858   8.798   1.328   9.845 -0.0071  0.0223  0.0513
  504DPPI   C1A 7859   8.981   1.008   9.572  0.2161 -0.0797  0.0888
  504DPPI   C2A 7860   8.949   1.061   9.112  0.2000  0.1963  0.0830
  504DPPI   C3A 7861   8.733   1.109   8.753 -0.4415  0.1239  0.1824
  504DPPI   C4A 7862   8.789   0.995   8.308  0.2658  0.0476  0.0118
  504DPPI   C1B 7863   8.816   1.445   9.389  0.1297 -0.1612 -0.0045
  504DPPI   C2B 7864   8.781   1.595   8.968  0.4507 -0.1606 -0.0218
  504DPPI   C3B 7865   8.772   1.581   8.471  0.3876 -0.3103 -0.0914
  504DPPI   C4B 7866   8.655   1.856   8.184  0.0501 -0.0693  0.1261
  505DPPI    C1 7867  18.272   0.152  10.452  0.0479 -0.0387 -0.1427
  505DPPI    C2 7868  17.873   0.147  10.485  0.0662 -0.1925  0.0713
  505DPPI    C3 7869  18.102   0.054  10.800  0.2712 -0.1582 -0.0653
  505DPPI   PO4 7870  18.212   0.366  10.180 -0.1033 -0.1157 -0.2117
  505DPPI   GL1 7871  18.078   0.559   9.754  0.3806  0.1204  0.0497
  505DPPI   GL2 7872  18.284   0.737   9.834 -0.1566  0.1640  0.0594
  505DPPI   C1A 7873  17.893   0.566   9.240  0.0601  0.2837  0.2379
  505DPPI   C2A 7874  17.915   0.591   8.798 -0.4850 -0.3798  0.0826
  505DPPI   C3A 7875  17.982   0.386   8.414 -0.0224 -0.2185  0.0760
  505DPPI   C4A 7876  17.831   0.175   8.112  0.0204 -0.1201  0.2155
  505DPPI   C1B 7877  18.274   0.873   9.388  0.1412  0.0076 -0.1668
  505DPPI   C2B 7878  18.237   1.013   8.986 -0.0417 -0.3024 -0.1075
  505DPPI   C3B 7879  18.277   1.081   8.594 -0.1431 -0.1050  0.1228
  505DPPI   C4B 7880  18.406   1.319   8.191 -0.0452 -0.0431 -0.1944
  506DPPI    C1 7881  11.871   8.703  10.316  0.0673  0.1035 -0.0988
  506DPPI    C2 7882  11.931   8.735  10.710  0.0766  0.2327 -0.1102
  506DPPI    C3 7883  11.613   8.536  10.571  0.1604  0.0482 -0.0404
  506DPPI   PO4 7884  11.896   8.959  10.193  0.1396 -0.2565  0.1228
  506DPPI   GL1 7885  11.905   9.144   9.862 -0.0633 -0.1276  0.0109
  506DPPI   GL2 7886  11.687   9.217   9.708  0.1306  0.1224  0.1455
  506DPPI   C1A 7887  12.238   9.033   9.521 -0.1769 -0.3912 -0.2292
  506DPPI   C2A 7888  12.367   8.671   9.339 -0.1716  0.0319  0.0841
  506DPPI   C3A 7889  12.518   8.323   9.096  0.0044  0.1291  0.1867
  506DPPI   C4A 7890  12.226   8.224   8.659  0.1006  0.0447  0.0699
  506DPPI   C1B 7891  11.526   9.239   9.318 -0.1598  0.0387 -0.0332
  506DPPI   C2B 7892  11.200   9.124   9.022  0.1127 -0.2859  0.3077
  506DPPI   C3B 7893  11.053   9.027   8.611  0.0307  0.2040 -0.0698
  506DPPI   C4B 7894  10.842   9.008   8.233 -0.0064 -0.0625 -0.0135
  507DPPI    C1 7895   1.102  17.715  10.241 -0.0286  0.0787  0.1844
  507DPPI    C2 7896   1.078  17.840  10.620 -0.1417  0.0393  0.1906
  507DPPI    C3 7897   1.082  17.448  10.538 -0.1032  0.0477  0.1519
  507DPPI   PO4 7898   0.988  17.935  10.087  0.2487 -0.0514 -0.0384
  507DPPI   GL1 7899   0.675  17.914   9.738 -0.0664 -0.1323  0.0646
  507DPPI   GL2 7900   0.361  17.926   9.886  0.1214  0.2062  0.0672
  507DPPI   C1A 7901   0.618  17.977   9.194  0.2874 -0.3328 -0.2071
  507DPPI   C2A 7902   0.405  17.951   8.887  0.2214  0.0487 -0.0605
  507DPPI   C3A 7903   0.328  17.960   8.434 -0.0095 -0.1145  0.2487
  507DPPI   C4A 7904   0.552  18.207   8.167  0.0888  0.0925  0.1206
  507DPPI   C1B 7905   0.211  17.969   9.521 -0.2685 -0.1601  0.2654
  507DPPI   C2B 7906   0.049  18.155   9.276 -0.0607  0.0595 -0.2663
  507DPPI   C3B 7907  -0.036  18.089   8.883 -0.3328  0.3645 -0.0202
  507DPPI   C4B 7908  -0.168  18.184   8.468 -0.0888 -0.0135  0.0901
  508DPPI    C1 7909   9.517   6.915  10.709  0.0531  0.1944 -0.1414
  508DPPI    C2 7910   9.144   7.057  10.744 -0.0280 -0.0429 -0.0246
  508DPPI    C3 7911   9.449   7.252  10.915 -0.1294  0.0256  0.0802
  508DPPI   PO4 7912   9.463   6.793  10.451 -0.0915 -0.0374 -0.1884
  508DPPI   GL1 7913   9.350   6.983  10.063  0.2465  0.1022 -0.0158
  508DPPI   GL2 7914   9.157   6.685  10.021 -0.1847 -0.1087 -0.0430
  508DPPI   C1A 7915   9.457   7.061   9.619  0.2734 -0.0733 -0.2105
  508DPPI   C2A 7916   9.506   7.128   9.231  0.0542 -0.0065 -0.0110
  508DPPI   C3A 7917   9.523   6.949   8.822 -0.0428  0.1249  0.1561
  508DPPI   C4A 7918   9.440   7.047   8.431 -0.0666  0.1846 -0.2328
  508DPPI   C1B 7919   9.226   6.576   9.668  0.2505  0.0131 -0.0989
  508DPPI   C2B 7920   9.264   6.675   9.274  0.0227 -0.0651 -0.2124
  508DPPI   C3B 7921   9.184   6.578   8.926  0.1140  0.0464 -0.1132
  508DPPI   C4B 7922   9.179   6.623   8.503  0.0280 -0.3382 -0.1700
  509DPPI    C1 7923   6.685   6.839  10.712 -0.3044 -0.0095 -0.0216
  509DPPI    C2 7924   6.689   7.178  10.924  0.1246 -0.1099  0.1402
  509DPPI    C3 7925   6.775   6.830  11.101  0.3708 -0.2117 -0.1695
  509DPPI   PO4 7926   6.842   7.068  10.437  0.0155  0.1016  0.0868
  509DPPI   GL1 7927   6.708   7.270   9.991 -0.1376  0.0081  0.0465
  509DPPI   GL2 7928   6.905   7.163   9.779  0.3380 -0.1243 -0.0043
  509DPPI   C1A 7929   6.484   7.452   9.623 -0.0622 -0.1677  0.2614
  509DPPI   C2A 7930   6.531   7.460   9.216  0.0727 -0.2598  0.3857
  509DPPI   C3A 7931   6.511   7.471   8.776 -0.0797  0.0206  0.1503
  509DPPI   C4A 7932   6.750   7.470   8.332  0.2673 -0.1014 -0.2286
  509DPPI   C1B 7933   6.891   7.017   9.314  0.2804  0.0575 -0.0385
  509DPPI   C2B 7934   6.899   7.151   8.826  0.1501 -0.1833  0.0662
  509DPPI   C3B 7935   7.008   6.951   8.413  0.0142  0.2199  0.1961
  509DPPI   C4B 7936   7.011   6.743   8.024  0.0561  0.1864 -0.0973
  510DPPI    C1 7937   5.726   9.712  10.510  0.1636  0.0606 -0.0626
  510DPPI    C2 7938   5.614   9.566  10.865 -0.2878  0.2873 -0.1042
  510DPPI    C3 7939   5.942   9.794  10.836 -0.0444 -0.0291  0.0996
  510DPPI   PO4 7940   5.697   9.606  10.306  0.0533  0.1758  0.0530
  510DPPI   GL1 7941   5.992   9.380  10.121 -0.2692 -0.0910  0.3265
  510DPPI   GL2 7942   5.936   9.524   9.781 -0.1499  0.0994 -0.1780
  510DPPI   C1A 7943   6.359   9.254   9.803  0.0194 -0.0025  0.0260
  510DPPI   C2A 7944   6.500   9.124   9.311  0.1791  0.0527  0.0524
  510DPPI   C3A 7945   6.631   9.330   8.953  0.1547  0.0935 -0.0846
  510DPPI   C4A 7946   6.545   9.709   8.667 -0.3752 -0.2118  0.1052
  510DPPI   C1B 7947   5.968   9.269   9.349 -0.0648  0.1251  0.1967
  510DPPI   C2B 7948   5.895   9.188   8.883  0.1175 -0.1490  0.1274
  510DPPI   C3B 7949   5.806   9.449   8.538 -0.0448 -0.0373 -0.0024
  510DPPI   C4B 7950   5.938   9.434   8.091  0.1269  0.0784  0.1412
  511DPPI    C1 7951   9.083  13.074  10.016 -0.0190  0.3559  0.2689
  511DPPI    C2 7952   9.329  13.299  10.237  0.2309  0.2702  0.0839
  511DPPI    C3 7953   9.448  13.165   9.880 -0.0159  0.0672  0.0746
  511DPPI   PO4 7954   8.885  13.226   9.863  0.0338 -0.1151 -0.3985
  511DPPI   GL1 7955   8.922  13.188   9.361  0.2985  0.1706 -0.1221
  511DPPI   GL2 7956   9.262  13.246   9.437 -0.1825 -0.3970 -0.2101
  511DPPI   C1A 7957   8.800  13.076   8.961  0.3325 -0.1675  0.3190
  511DPPI   C2A 7958   8.730  13.021   8.569 -0.1687 -0.0719 -0.0151
  511DPPI   C3A 7959   8.767  13.110   8.007  0.1176 -0.1007 -0.1170
  511DPPI   C4A 7960   8.585  13.035   7.660 -0.1907  0.1838  0.2264
  511DPPI   C1B 7961   9.253  13.336   9.018 -0.0428 -0.4124  0.0209
  511DPPI   C2B 7962   9.187  13.335   8.617  0.2551  0.0730 -0.1246
  511DPPI   C3B 7963   9.207  13.325   8.169  0.1215  0.1429  0.0826
  511DPPI   C4B 7964   9.285  13.343   7.774 -0.0098 -0.2545 -0.0643
  512DPPI    C1 7965   0.465  14.671  10.476 -0.0631  0.0953  0.2112
  512DPPI    C2 7966   0.764  14.515  10.690 -0.0385  0.0809  0.1666
  512DPPI    C3 7967   0.635  14.886  10.768  0.2878  0.2565 -0.1026
  512DPPI   PO4 7968   0.585  14.636  10.208 -0.2442  0.1220 -0.1987
  512DPPI   GL1 7969   0.765  14.745   9.898 -0.1697 -0.1381 -0.0391
  512DPPI   GL2 7970   0.817  14.528   9.642  0.0940 -0.1296  0.0678
  512DPPI   C1A 7971   0.547  14.941   9.476  0.3015  0.0583 -0.0662
  512DPPI   C2A 7972   0.495  14.930   8.991  0.1986  0.1988  0.2540
  512DPPI   C3A 7973   0.399  14.911   8.544 -0.0703 -0.2689  0.2295
  512DPPI   C4A 7974   0.380  14.790   8.067  0.2735  0.0320 -0.0098
  512DPPI   C1B 7975   0.837  14.488   9.215  0.3569 -0.2702  0.1202
  512DPPI   C2B 7976   0.667  14.519   8.674 -0.3803 -0.1700  0.0463
  512DPPI   C3B 7977   0.660  14.215   8.192 -0.2271  0.0574 -0.0634
  512DPPI   C4B 7978   0.945  14.094   7.833  0.1413 -0.0135  0.0151
  513PYPI    C1 7979   0.105  16.381  10.422 -0.0329  0.1768  0.0030
  513PYPI    C2 7980   0.235  16.697  10.631  0.1337  0.0707  0.0618
  513PYPI    C3 7981   0.344  16.327  10.739  0.0599  0.0022 -0.0953
  513PYPI   PO4 7982   0.120  16.457  10.142 -0.2652  0.0360 -0.1306
  513PYPI   GL1 7983   0.312  16.493   9.793  0.3122  0.1199  0.2949
  513PYPI   GL2 7984   0.354  16.199   9.633 -0.0243  0.2357 -0.3740
  513PYPI   C1A 7985   0.145  16.604   9.351 -0.1501  0.1811  0.2089
  513PYPI   C2A 7986   0.107  16.732   8.815 -0.0455 -0.0448 -0.0764
  513PYPI   D3A 7987   0.096  16.664   8.308  0.2252  0.2329  0.3135
  513PYPI   C4A 7988  -0.002  17.147   8.215  0.0022  0.1564  0.1420
  513PYPI   C1B 7989   0.270  16.115   9.296  0.0943  0.2895  0.1926
  513PYPI   C2B 7990   0.123  16.114   8.840  0.2579  0.0256 -0.1494
  513PYPI   C3B 7991   0.114  16.052   8.513  0.1401 -0.0398  0.0229
  513PYPI   C4B 7992   0.258  16.134   8.094 -0.1670  0.0256 -0.0385
  514PYPI    C1 7993   9.454  17.953  10.576 -0.0406 -0.0321 -0.0168
  514PYPI    C2 7994   9.238  18.011  10.908  0.0445  0.1839  0.0026
  514PYPI    C3 7995   9.597  18.184  10.870  0.1370 -0.0278 -0.1051
  514PYPI   PO4 7996   9.360  17.995  10.347  0.0920  0.2696 -0.2139
  514PYPI   GL1 7997   9.433  18.395  10.120 -0.1918 -0.2111 -0.0151
  514PYPI   GL2 7998   9.485  18.698   9.862  0.1883 -0.3196  0.1107
  514PYPI   C1A 7999   9.451  18.311   9.602  0.1525 -0.0964 -0.1221
  514PYPI   C2A 8000   9.441  18.380   9.126 -0.1008  0.1079 -0.1206
  514PYPI   D3A 8001   9.313  18.098   8.824 -0.1079  0.0724  0.0496
  514PYPI   C4A 8002   9.250  18.206   8.313  0.1824  0.0345  0.2059
  514PYPI   C1B 8003   9.612  18.759   9.382 -0.1886 -0.0193  0.0422
  514PYPI   C2B 8004   9.568  18.841   8.944 -0.1083 -0.0546  0.0300
  514PYPI   C3B 8005   9.532  19.070   8.570  0.4869  0.0387  0.1531
  514PYPI   C4B 8006   9.820  19.416   8.537  0.0518  0.1827 -0.2424
  515PYPI    C1 8007  11.828  13.900  10.200 -0.0714  0.0273 -0.0876
  515PYPI    C2 8008  12.196  13.998  10.077  0.0278 -0.2949 -0.0577
  515PYPI    C3 8009  12.131  13.906  10.461 -0.1598  0.1127  0.0143
  515PYPI   PO4 8010  11.662  13.933  10.024 -0.0251  0.0585 -0.1850
  515PYPI   GL1 8011  11.680  14.145   9.547 -0.0201 -0.0974  0.1778
  515PYPI   GL2 8012  11.814  14.335   9.702 -0.2510 -0.0221  0.0137
  515PYPI   C1A 8013  11.738  14.107   9.090 -0.1975  0.3149 -0.2795
  515PYPI   C2A 8014  11.806  14.254   8.687 -0.2528  0.1765 -0.0068
  515PYPI   D3A 8015  11.805  14.534   8.412 -0.1344 -0.2734 -0.0543
  515PYPI   C4A 8016  11.807  14.356   7.998 -0.0128 -0.1033 -0.0523
  515PYPI   C1B 8017  12.035  14.521   9.312  0.0522 -0.0386  0.0029
  515PYPI   C2B 8018  12.117  14.623   8.898 -0.0693  0.3790  0.1949
  515PYPI   C3B 8019  12.057  14.912   8.510  0.1508  0.1513  0.1415
  515PYPI   C4B 8020  12.097  14.956   8.084 -0.0360  0.1250  0.1267
  516PYPI    C1 8021  15.500   5.956  10.207  0.1185  0.0976  0.1095
  516PYPI    C2 8022  15.126   5.813  10.220  0.1047  0.1289  0.0590
  516PYPI    C3 8023  15.268   6.029  10.525  0.0821  0.1155  0.0790
  516PYPI   PO4 8024  15.522   6.101  10.062  0.0346 -0.3621 -0.0361
  516PYPI   GL1 8025  15.228   6.051   9.813  0.2750 -0.3261  0.0395
  516PYPI   GL2 8026  15.069   5.814   9.703  0.2950  0.0271  0.0757
  516PYPI   C1A 8027  15.307   6.027   9.291  0.0669 -0.0186  0.1873
  516PYPI   C2A 8028  15.157   6.172   8.796  0.0714  0.1023 -0.0979
  516PYPI   D3A 8029  15.288   6.181   8.498  0.0609  0.0617 -0.0409
  516PYPI   C4A 8030  15.729   6.002   8.334 -0.6092 -0.0015 -0.2825
  516PYPI   C1B 8031  15.010   5.587   9.282  0.0643  0.4214  0.2337
  516PYPI   C2B 8032  15.110   5.628   8.799  0.2316 -0.1880  0.0572
  516PYPI   C3B 8033  15.001   5.856   8.355  0.0250 -0.1684  0.1958
  516PYPI   C4B 8034  15.160   6.073   8.064  0.0109 -0.1682 -0.2412
  517PYPI    C1 8035   4.376   6.958  10.674  0.1434 -0.0627  0.1109
  517PYPI    C2 8036   4.071   7.059  10.912  0.0536 -0.1038  0.0140
  517PYPI    C3 8037   4.445   7.059  11.054  0.0194  0.0443  0.1056
  517PYPI   PO4 8038   4.145   6.914  10.396 -0.2679 -0.0607  0.1507
  517PYPI   GL1 8039   4.165   6.812   9.968  0.1461  0.1789  0.0916
  517PYPI   GL2 8040   3.961   6.614   9.813  0.1632 -0.0639  0.0377
  517PYPI   C1A 8041   4.366   7.007   9.649  0.1598  0.0434 -0.0046
  517PYPI   C2A 8042   4.330   7.087   9.248  0.1940  0.2984 -0.1456
  517PYPI   D3A 8043   4.420   7.093   8.778  0.2605  0.1194 -0.0037
  517PYPI   C4A 8044   4.180   7.082   8.524 -0.0053  0.1083  0.3740
  517PYPI   C1B 8045   4.045   6.724   9.308 -0.1279 -0.1353  0.1097
  517PYPI   C2B 8046   4.093   6.683   8.781 -0.2072 -0.1266  0.1487
  517PYPI   C3B 8047   4.233   6.639   8.423  0.0710 -0.0190 -0.0603
  517PYPI   C4B 8048   4.085   6.800   8.071 -0.0956 -0.2475 -0.0884
  518PYPI    C1 8049  17.625   5.075  10.608 -0.0159 -0.2856 -0.2452
  518PYPI    C2 8050  17.233   5.135  10.555 -0.0129 -0.0982 -0.0642
  518PYPI    C3 8051  17.360   4.849  10.804 -0.0394  0.0751  0.1513
  518PYPI   PO4 8052  17.709   5.083  10.246 -0.0895 -0.1339 -0.0582
  518PYPI   GL1 8053  17.682   5.145   9.797 -0.2152 -0.1207  0.0047
  518PYPI   GL2 8054  17.467   4.846   9.727 -0.2354 -0.2105 -0.0193
  518PYPI   C1A 8055  17.615   5.245   9.416 -0.0155 -0.7010 -0.0694
  518PYPI   C2A 8056  17.744   5.248   8.959  0.1192 -0.1552 -0.1678
  518PYPI   D3A 8057  18.069   5.330   8.620 -0.1365 -0.1782  0.0167
  518PYPI   C4A 8058  18.105   5.689   8.289 -0.0068  0.6428  0.2110
  518PYPI   C1B 8059  17.397   4.590   9.429  0.4095  0.1516 -0.1916
  518PYPI   C2B 8060  17.445   4.490   8.959  0.2876 -0.1883  0.0984
  518PYPI   C3B 8061  17.322   4.530   8.530 -0.0648  0.0614 -0.1177
  518PYPI   C4B 8062  17.190   4.745   8.218 -0.3122  0.0935 -0.1433
  519PYPI    C1 8063  14.720  17.821  10.792  0.0954 -0.1090  0.0689
  519PYPI    C2 8064  14.671  17.542  10.509  0.1605  0.0389 -0.0902
  519PYPI    C3 8065  14.771  17.434  10.881  0.2115 -0.1474 -0.1568
  519PYPI   PO4 8066  14.608  18.028  10.686 -0.2473  0.1028 -0.2307
  519PYPI   GL1 8067  14.612  18.260  10.300 -0.0893  0.0610  0.1076
  519PYPI   GL2 8068  14.685  17.920  10.150  0.0780 -0.1705  0.3953
  519PYPI   C1A 8069  14.241  18.247  10.107  0.4032 -0.4276  0.3057
  519PYPI   C2A 8070  13.911  17.867   9.973 -0.2397  0.0445 -0.3123
  519PYPI   D3A 8071  13.499  17.751   9.827  0.0945 -0.1948 -0.0295
  519PYPI   C4A 8072  13.425  17.633   9.369 -0.3236  0.0651 -0.2038
  519PYPI   C1B 8073  14.407  17.814   9.850 -0.0891 -0.0968 -0.1519
  519PYPI   C2B 8074  14.406  17.867   9.442  0.2362 -0.0121  0.0822
  519PYPI   C3B 8075  14.626  17.954   9.130 -0.2386  0.0800  0.1667
  519PYPI   C4B 8076  14.653  18.126   8.674 -0.3000 -0.1017 -0.0645
  520PYPI    C1 8077  16.643   2.684  10.106  0.0036  0.0757  0.1689
  520PYPI    C2 8078  16.366   2.397  10.139  0.0976 -0.0200  0.1329
  520PYPI    C3 8079  16.582   2.504  10.458 -0.1002  0.1771  0.2032
  520PYPI   PO4 8080  16.458   2.856   9.917  0.2033 -0.1762  0.1436
  520PYPI   GL1 8081  16.242   2.865   9.558 -0.0838  0.0980  0.1798
  520PYPI   GL2 8082  16.230   2.546   9.585  0.1418 -0.0617  0.0768
  520PYPI   C1A 8083  16.293   2.953   9.135  0.0557 -0.0849  0.2390
  520PYPI   C2A 8084  16.321   2.869   8.684  0.1073 -0.1569  0.1291
  520PYPI   D3A 8085  16.291   2.832   8.246 -0.0636 -0.0787 -0.1929
  520PYPI   C4A 8086  15.979   2.971   7.957 -0.0441  0.0844 -0.0193
  520PYPI   C1B 8087  15.932   2.574   9.209 -0.0274  0.1209 -0.1354
  520PYPI   C2B 8088  15.862   2.618   8.847  0.0850 -0.2546  0.1383
  520PYPI   C3B 8089  15.880   2.923   8.476  0.1358  0.1457 -0.3528
  520PYPI   C4B 8090  15.643   3.243   8.172  0.0305  0.4487  0.1198
  521PYPI    C1 8091   6.110   1.129  10.384 -0.0625 -0.1606  0.1966
  521PYPI    C2 8092   5.908   1.132  10.729 -0.0887  0.2149  0.1817
  521PYPI    C3 8093   5.885   1.445  10.481 -0.1452 -0.0901 -0.2076
  521PYPI   PO4 8094   6.035   0.743  10.297 -0.0135 -0.0664  0.3412
  521PYPI   GL1 8095   6.098   0.525   9.867 -0.2177 -0.2846  0.2378
  521PYPI   GL2 8096   6.506   0.598   9.836  0.1447  0.1647  0.3562
  521PYPI   C1A 8097   6.059   0.480   9.344 -0.1700  0.2046 -0.3074
  521PYPI   C2A 8098   6.015   0.555   8.918  0.4515 -0.2203  0.1590
  521PYPI   D3A 8099   5.720   0.528   8.514  0.3375  0.3263 -0.2714
  521PYPI   C4A 8100   5.554   0.659   8.084 -0.0307  0.0441 -0.0364
  521PYPI   C1B 8101   6.620   0.505   9.412 -0.3634 -0.0297 -0.1433
  521PYPI   C2B 8102   6.458   0.380   9.075  0.3908  0.3294  0.4053
  521PYPI   C3B 8103   6.310   0.046   8.796 -0.1230 -0.0726  0.1091
  521PYPI   C4B 8104   6.275  -0.155   8.486 -0.3145  0.3687  0.1135
  522PYPI    C1 8105  14.724  12.624  10.372 -0.1313 -0.0301 -0.0072
  522PYPI    C2 8106  14.575  12.918  10.597  0.1468 -0.0252  0.1757
  522PYPI    C3 8107  14.744  12.600  10.771  0.2913 -0.0599 -0.0256
  522PYPI   PO4 8108  14.737  12.763  10.089 -0.4449  0.0573 -0.3560
  522PYPI   GL1 8109  14.742  13.193   9.873 -0.0991  0.2529  0.1513
  522PYPI   GL2 8110  14.485  13.363   9.906 -0.4344 -0.2626 -0.1280
  522PYPI   C1A 8111  15.019  13.183   9.530  0.0710 -0.0194  0.1045
  522PYPI   C2A 8112  14.915  13.204   9.198  0.1253 -0.0169  0.1821
  522PYPI   D3A 8113  14.974  13.339   8.862 -0.1006  0.0986  0.1240
  522PYPI   C4A 8114  15.023  13.143   8.622 -0.4563  0.4553  0.0528
  522PYPI   C1B 8115  14.583  13.482   9.466  0.0201  0.0103  0.1396
  522PYPI   C2B 8116  14.561  13.543   9.058 -0.0950 -0.2256  0.0976
  522PYPI   C3B 8117  14.646  13.583   8.620  0.2330 -0.1304  0.0032
  522PYPI   C4B 8118  14.535  13.651   8.186  0.1018 -0.0851 -0.0970
  523PYPI    C1 8119  12.150   7.781  10.254  0.0827 -0.0480  0.0087
  523PYPI    C2 8120  12.092   7.771  10.649 -0.0097  0.1424  0.0008
  523PYPI    C3 8121  12.464   7.784  10.502  0.0278 -0.0270  0.0780
  523PYPI   PO4 8122  12.020   7.633  10.101  0.3993  0.0767  0.2216
  523PYPI   GL1 8123  11.851   7.573   9.698 -0.1341  0.3596  0.1609
  523PYPI   GL2 8124  12.115   7.278   9.646 -0.0743 -0.1797 -0.1342
  523PYPI   C1A 8125  11.852   7.807   9.362  0.2992  0.1502  0.0178
  523PYPI   C2A 8126  11.917   7.815   8.975 -0.2929  0.0333  0.0367
  523PYPI   D3A 8127  11.869   7.826   8.591 -0.0181  0.3187  0.0009
  523PYPI   C4A 8128  12.186   7.735   8.499 -0.0553 -0.1662 -0.1167
  523PYPI   C1B 8129  11.978   7.339   9.312 -0.3423  0.1377  0.0573
  523PYPI   C2B 8130  12.063   7.353   8.996  0.1132 -0.0471  0.1720
  523PYPI   C3B 8131  11.924   7.287   8.531 -0.0019 -0.1094 -0.1290
  523PYPI   C4B 8132  11.553   7.139   8.426  0.0758 -0.1194  0.1615
  524PYPI    C1 8133   3.756   5.884  10.247 -0.2361 -0.2762 -0.0134
  524PYPI    C2 8134   3.870   6.011  10.608 -0.0418  0.0319 -0.1789
  524PYPI    C3 8135   3.905   5.624  10.513  0.1099 -0.0146  0.0557
  524PYPI   PO4 8136   3.517   5.990  10.244  0.0837 -0.0622 -0.0066
  524PYPI   GL1 8137   3.105   5.943  10.065  0.1404  0.1436 -0.0022
  524PYPI   GL2 8138   2.995   5.744   9.877 -0.1619  0.2326  0.1573
  524PYPI   C1A 8139   3.205   6.197   9.658  0.0038 -0.1811 -0.1533
  524PYPI   C2A 8140   3.148   6.339   9.294 -0.0302 -0.0236  0.0715
  524PYPI   D3A 8141   3.261   6.370   8.917 -0.4746  0.0686 -0.1050
  524PYPI   C4A 8142   2.924   6.315   8.626  0.2753 -0.1726  0.1271
  524PYPI   C1B 8143   3.020   5.798   9.427  0.0652 -0.0697 -0.1163
  524PYPI   C2B 8144   3.121   5.895   8.961  0.1615 -0.0105 -0.2826
  524PYPI   C3B 8145   3.323   6.019   8.572  0.0568 -0.0860 -0.0554
  524PYPI   C4B 8146   3.129   5.919   8.161 -0.0130 -0.2814  0.2630
  525PYPI    C1 8147  14.653   4.531  10.551  0.0290 -0.0258 -0.1942
  525PYPI    C2 8148  14.368   4.250  10.564  0.1162 -0.1069 -0.0128
  525PYPI    C3 8149  14.425   4.493  10.877  0.2022 -0.0470 -0.0743
  525PYPI   PO4 8150  14.723   4.545  10.278 -0.3455  0.3993  0.0886
  525PYPI   GL1 8151  14.533   4.665   9.891  0.1256 -0.0367  0.1396
  525PYPI   GL2 8152  14.286   4.856   9.817 -0.3606 -0.1184  0.1364
  525PYPI   C1A 8153  14.620   4.385   9.522 -0.1909 -0.1044  0.0661
  525PYPI   C2A 8154  14.843   4.278   9.157 -0.2760  0.2233  0.0045
  525PYPI   D3A 8155  14.858   4.253   8.716 -0.0731  0.0771 -0.0123
  525PYPI   C4A 8156  14.495   4.564   8.706 -0.4043  0.1146  0.1416
  525PYPI   C1B 8157  14.216   4.876   9.400  0.1151 -0.0767  0.1086
  525PYPI   C2B 8158  14.295   4.935   8.904 -0.4417 -0.0009  0.2513
  525PYPI   C3B 8159  14.422   5.109   8.432  0.1687 -0.2677 -0.0187
  525PYPI   C4B 8160  14.621   5.027   7.969  0.1293  0.0346 -0.1068
  526PYPI    C1 8161  13.610  10.928  10.120  0.2512 -0.2528 -0.1256
  526PYPI    C2 8162  13.272  10.857   9.918  0.2273  0.0411 -0.1940
  526PYPI    C3 8163  13.448  10.562  10.125 -0.2371 -0.0415  0.0975
  526PYPI   PO4 8164  13.707  11.158   9.968  0.0260 -0.0611  0.0853
  526PYPI   GL1 8165  13.621  11.272   9.582  0.1918  0.0479  0.0262
  526PYPI   GL2 8166  13.382  11.104   9.475  0.2686 -0.0544  0.1036
  526PYPI   C1A 8167  13.828  11.449   9.291  0.1477  0.2259  0.1949
  526PYPI   C2A 8168  14.011  11.454   8.880 -0.1562 -0.2491  0.0516
  526PYPI   D3A 8169  13.993  11.669   8.570 -0.0806  0.0472 -0.3094
  526PYPI   C4A 8170  13.932  11.533   8.153 -0.0871  0.0846 -0.2177
  526PYPI   C1B 8171  13.462  11.064   9.036  0.1907  0.1221  0.1150
  526PYPI   C2B 8172  13.719  11.103   8.609  0.0595 -0.0882 -0.0322
  526PYPI   C3B 8173  13.784  10.976   8.235  0.0073 -0.0286 -0.0101
  526PYPI   C4B 8174  13.627  10.913   7.833 -0.1588 -0.0373  0.3553
  527PYPI    C1 8175   9.664   3.453  10.643  0.2002 -0.0606  0.0825
  527PYPI    C2 8176   9.907   3.704  10.838  0.3115 -0.1719  0.0891
  527PYPI    C3 8177   9.521   3.677  10.942  0.2609  0.1112 -0.0160
  527PYPI   PO4 8178   9.664   3.505  10.408  0.2948 -0.1375  0.1640
  527PYPI   GL1 8179   9.785   3.632  10.013  0.0735  0.1964  0.1194
  527PYPI   GL2 8180   9.822   3.868   9.983 -0.0803  0.0148 -0.0760
  527PYPI   C1A 8181   9.692   3.749   9.497  0.0489 -0.1197  0.3282
  527PYPI   C2A 8182   9.741   3.703   9.008  0.2961 -0.0920 -0.0015
  527PYPI   D3A 8183   9.714   3.817   8.653 -0.0017 -0.2111 -0.4106
  527PYPI   C4A 8184   9.686   3.906   8.162  0.1507  0.0399 -0.2742
  527PYPI   C1B 8185   9.949   4.191   9.767 -0.1180  0.2804  0.2528
  527PYPI   C2B 8186   9.973   4.195   9.262 -0.1281 -0.1089  0.0343
  527PYPI   C3B 8187   9.938   4.260   8.828 -0.2260 -0.2869  0.2041
  527PYPI   C4B 8188   9.910   4.336   8.350 -0.2649  0.2956 -0.4267
  528PYPI    C1 8189  11.176  10.222  10.223  0.1158  0.1527 -0.0771
  528PYPI    C2 8190  11.324  10.485  10.486  0.4325 -0.0415 -0.0566
  528PYPI    C3 8191  11.314  10.095  10.577 -0.1910 -0.0258 -0.0178
  528PYPI   PO4 8192  10.996  10.335  10.109  0.1365 -0.1108  0.0934
  528PYPI   GL1 8193  11.029  10.259   9.669  0.4399 -0.1358  0.0521
  528PYPI   GL2 8194  11.304  10.179   9.628  0.0917 -0.1302 -0.0777
  528PYPI   C1A 8195  10.876  10.163   9.333  0.2521  0.1292 -0.0054
  528PYPI   C2A 8196  10.906  10.228   8.998  0.0906  0.0400 -0.0841
  528PYPI   D3A 8197  10.830  10.216   8.502 -0.2147  0.1787 -0.1693
  528PYPI   C4A 8198  11.054  10.185   8.154  0.0584 -0.1612  0.0959
  528PYPI   C1B 8199  11.408  10.190   9.206  0.0302  0.1155 -0.1777
  528PYPI   C2B 8200  11.373  10.252   8.834 -0.1437  0.1040 -0.1951
  528PYPI   C3B 8201  11.481  10.198   8.388  0.0834  0.0765  0.1916
  528PYPI   C4B 8202  11.613  10.068   7.968 -0.0532 -0.1278 -0.1440
  529PYPI    C1 8203   9.495   8.208  10.354  0.0457  0.0163 -0.0535
  529PYPI    C2 8204   9.553   8.206  10.749 -0.1326 -0.0753 -0.0268
  529PYPI    C3 8205   9.218   8.363  10.597 -0.1457 -0.2015 -0.1295
  529PYPI   PO4 8206   9.709   8.333  10.287  0.1136  0.1162  0.0384
  529PYPI   GL1 8207   9.793   8.661   9.987  0.0763  0.0681  0.0187
  529PYPI   GL2 8208   9.719   8.876   9.827 -0.1427  0.2579 -0.0273
  529PYPI   C1A 8209   9.367   8.461   9.674  0.0705  0.3085  0.2291
  529PYPI   C2A 8210   9.252   8.462   9.199  0.1064 -0.0775  0.0558
  529PYPI   D3A 8211   9.226   8.293   8.816  0.0924 -0.2033  0.2019
  529PYPI   C4A 8212   9.104   8.425   8.373  0.0992 -0.4175  0.0322
  529PYPI   C1B 8213   9.560   8.860   9.384 -0.0525  0.4484 -0.0294
  529PYPI   C2B 8214   9.654   8.773   8.934 -0.0609 -0.0891  0.0480
  529PYPI   C3B 8215   9.496   8.691   8.601  0.1155 -0.2091 -0.0523
  529PYPI   C4B 8216   9.648   8.547   8.261  0.4380  0.0841  0.1781
  530PYPI    C1 8217   8.555   5.354  11.080  0.0590 -0.0589  0.1146
  530PYPI    C2 8218   8.792   5.676  11.060 -0.1397  0.0873  0.0894
  530PYPI    C3 8219   8.630   5.568  11.409 -0.0189 -0.0262  0.1112
  530PYPI   PO4 8220   8.469   5.354  10.844  0.1912  0.3084  0.1772
  530PYPI   GL1 8221   8.480   5.534  10.465  0.1860  0.4487  0.1369
  530PYPI   GL2 8222   8.284   5.250  10.291 -0.0990 -0.3050 -0.1023
  530PYPI   C1A 8223   8.512   5.591  10.019 -0.2830 -0.0323 -0.1206
  530PYPI   C2A 8224   8.630   5.548   9.542  0.3556  0.4234  0.0922
  530PYPI   D3A 8225   8.742   5.514   9.129 -0.1442 -0.1818  0.0792
  530PYPI   C4A 8226   8.751   5.730   8.709  0.2771 -0.0610 -0.0928
  530PYPI   C1B 8227   8.385   5.138   9.823 -0.0310 -0.0907 -0.2141
  530PYPI   C2B 8228   8.397   5.085   9.324  0.1126 -0.1172  0.0009
  530PYPI   C3B 8229   8.444   5.196   8.908  0.1598 -0.2406 -0.0694
  530PYPI   C4B 8230   8.495   5.213   8.450 -0.0407 -0.2176  0.1398
  531PYPI    C1 8231   9.412   9.401  10.784 -0.0021  0.1881 -0.1773
  531PYPI    C2 8232   9.565   9.056  10.918 -0.1985  0.0376 -0.3343
  531PYPI    C3 8233   9.541   9.373  11.162 -0.1309 -0.0959 -0.1519
  531PYPI   PO4 8234   9.357   9.268  10.503 -0.1397  0.2195 -0.1197
  531PYPI   GL1 8235   9.258   9.161  10.059  0.2748  0.0291  0.0090
  531PYPI   GL2 8236   9.218   9.523  10.073 -0.0367 -0.5069  0.0890
  531PYPI   C1A 8237   9.152   9.067   9.627 -0.1514  0.0170  0.1035
  531PYPI   C2A 8238   9.045   8.968   9.271  0.0411  0.2789 -0.1886
  531PYPI   D3A 8239   8.974   8.744   8.925 -0.2588 -0.1007 -0.0812
  531PYPI   C4A 8240   8.813   8.805   8.501 -0.0216 -0.0047  0.1546
  531PYPI   C1B 8241   9.306   9.536   9.659 -0.0769 -0.0575 -0.0024
  531PYPI   C2B 8242   9.309   9.408   9.237  0.2462 -0.3846  0.1450
  531PYPI   C3B 8243   9.359   9.165   8.823  0.2564  0.1850  0.2114
  531PYPI   C4B 8244   9.255   9.007   8.294 -0.0379 -0.2594  0.2000
  532PYPI    C1 8245   0.731  12.664  10.412  0.3137  0.0965  0.2609
  532PYPI    C2 8246   0.510  12.876  10.669  0.0464 -0.1564  0.2451
  532PYPI    C3 8247   0.730  12.569  10.800  0.2446 -0.0219  0.2321
  532PYPI   PO4 8248   0.812  12.858  10.273 -0.1858 -0.0748  0.1446
  532PYPI   GL1 8249   0.769  12.992   9.870  0.0195  0.0776 -0.1359
  532PYPI   GL2 8250   0.966  12.625   9.785  0.1488  0.0467 -0.1386
  532PYPI   C1A 8251   0.747  13.040   9.415 -0.1036  0.0572 -0.1826
  532PYPI   C2A 8252   0.830  13.040   9.035  0.2330 -0.3156 -0.2674
  532PYPI   D3A 8253   0.813  13.000   8.666  0.0381 -0.0546 -0.2088
  532PYPI   C4A 8254   0.642  12.894   8.337  0.0801  0.2086  0.2104
  532PYPI   C1B 8255   1.052  12.697   9.293 -0.1020  0.0507 -0.0919
  532PYPI   C2B 8256   1.187  12.598   8.913  0.1826 -0.0885  0.1382
  532PYPI   C3B 8257   1.094  12.607   8.588 -0.0526 -0.0400  0.0479
  532PYPI   C4B 8258   1.158  12.761   8.229 -0.1166 -0.1793  0.0360
  533PYPI    C1 8259  10.201   9.536  10.509 -0.1559 -0.1130  0.3389
  533PYPI    C2 8260  10.444   9.452  10.815 -0.0636  0.1312  0.3347
  533PYPI    C3 8261  10.332   9.830  10.747 -0.1636  0.0651  0.1261
  533PYPI   PO4 8262  10.237   9.464  10.296  0.2299  0.2891  0.0352
  533PYPI   GL1 8263  10.414   9.257  10.034 -0.0020 -0.0849 -0.1855
  533PYPI   GL2 8264  10.188   9.053   9.986  0.1222  0.0265 -0.0378
  533PYPI   C1A 8265  10.423   9.246   9.602  0.0107  0.3305 -0.0018
  533PYPI   C2A 8266  10.292   9.210   9.111 -0.4760  0.0439 -0.4688
  533PYPI   D3A 8267  10.294   9.214   8.676  0.1568  0.3530 -0.0384
  533PYPI   C4A 8268  10.331   9.114   8.288  0.0910  0.0393  0.5520
  533PYPI   C1B 8269  10.231   8.799   9.651  0.1813  0.0628 -0.1380
  533PYPI   C2B 8270  10.023   8.853   9.274 -0.0466  0.0582  0.2755
  533PYPI   C3B 8271  10.149   8.786   8.860 -0.1651  0.1556  0.1364
  533PYPI   C4B 8272  10.049   8.745   8.453  0.0205  0.1406  0.2735
  534PYPI    C1 8273  15.039   5.303  10.238  0.1843 -0.3029  0.0337
  534PYPI    C2 8274  14.701   5.114  10.136 -0.0979  0.0615  0.2669
  534PYPI    C3 8275  14.846   5.080  10.508  0.2232 -0.2323  0.1207
  534PYPI   PO4 8276  15.134   5.319   9.969 -0.4732 -0.0209 -0.1482
  534PYPI   GL1 8277  15.265   5.325   9.562  0.2307 -0.0197  0.0018
  534PYPI   GL2 8278  15.491   5.575   9.409  0.0047  0.1877  0.1367
  534PYPI   C1A 8279  15.283   5.102   9.260 -0.0558  0.1311  0.0971
  534PYPI   C2A 8280  15.261   5.168   8.767  0.1855  0.3244  0.4323
  534PYPI   D3A 8281  15.374   4.973   8.407  0.0220 -0.0694  0.0342
  534PYPI   C4A 8282  15.528   4.726   8.043  0.0862 -0.0523  0.2039
  534PYPI   C1B 8283  15.676   5.361   9.027  0.3355  0.0358 -0.1557
  534PYPI   C2B 8284  15.803   5.334   8.596  0.1653  0.4790  0.2239
  534PYPI   C3B 8285  15.796   5.211   8.130  0.1441 -0.1454 -0.1052
  534PYPI   C4B 8286  15.937   5.041   7.753 -0.0841  0.1350 -0.0693
  535PYPI    C1 8287   8.144   0.179  10.307 -0.0902  0.0771 -0.2619
  535PYPI    C2 8288   8.172  -0.213  10.231 -0.1237  0.0333 -0.0535
  535PYPI    C3 8289   7.924  -0.081  10.516  0.1838  0.1707  0.1558
  535PYPI   PO4 8290   8.315   0.304  10.102  0.3324 -0.0963  0.1624
  535PYPI   GL1 8291   8.423  -0.017   9.853 -0.0133 -0.0457 -0.2154
  535PYPI   GL2 8292   8.559  -0.329   9.806 -0.1405 -0.2471  0.1039
  535PYPI   C1A 8293   8.340   0.014   9.362 -0.0007 -0.0939  0.3590
  535PYPI   C2A 8294   8.307  -0.006   9.002 -0.5853 -0.2688  0.3847
  535PYPI   D3A 8295   8.315  -0.117   8.637  0.0385 -0.4378 -0.0138
  535PYPI   C4A 8296   8.815  -0.163   8.593 -0.0911  0.0742  0.2426
  535PYPI   C1B 8297   8.538  -0.420   9.385 -0.0213 -0.2705 -0.1078
  535PYPI   C2B 8298   8.606  -0.408   8.969 -0.1403  0.0134 -0.1839
  535PYPI   C3B 8299   8.604  -0.590   8.567  0.2913 -0.4629  0.0199
  535PYPI   C4B 8300   8.556  -0.456   8.220  0.1514  0.2426 -0.1071
  536PYPI    C1 8301  10.902   7.959  10.445 -0.1474 -0.0876 -0.0412
  536PYPI    C2 8302  11.291   7.901  10.521 -0.1417 -0.3020 -0.2231
  536PYPI    C3 8303  11.020   7.848  10.811 -0.0263 -0.0282 -0.0620
  536PYPI   PO4 8304  10.925   8.162  10.197  0.1536  0.0357  0.1622
  536PYPI   GL1 8305  10.865   7.966   9.711  0.2264 -0.1066 -0.0981
  536PYPI   GL2 8306  11.164   8.009   9.696 -0.1627  0.0366 -0.1293
  536PYPI   C1A 8307  10.643   7.996   9.369 -0.0989 -0.1161 -0.0636
  536PYPI   C2A 8308  10.676   7.851   8.968 -0.1285 -0.1447  0.1863
  536PYPI   D3A 8309  10.750   7.774   8.499  0.2454  0.0206 -0.1095
  536PYPI   C4A 8310  10.972   7.947   8.151 -0.2270 -0.3484 -0.0027
  536PYPI   C1B 8311  11.175   7.807   9.307 -0.0945  0.0211  0.3314
  536PYPI   C2B 8312  11.167   7.845   8.844  0.1818  0.0836 -0.0289
  536PYPI   C3B 8313  11.411   8.073   8.684 -0.1078 -0.2128 -0.2435
  536PYPI   C4B 8314  11.379   8.207   8.240 -0.1308  0.2276 -0.1812
  537PYPI    C1 8315  12.144  15.587  10.303  0.0016 -0.0913 -0.0405
  537PYPI    C2 8316  12.133  15.499  10.693 -0.0651 -0.0019 -0.0221
  537PYPI    C3 8317  11.949  15.261  10.429  0.0794 -0.1269 -0.0117
  537PYPI   PO4 8318  11.994  15.789  10.177 -0.1514 -0.1116  0.0719
  537PYPI   GL1 8319  12.177  16.053   9.860  0.0522  0.2977 -0.1487
  537PYPI   GL2 8320  12.348  16.304   9.895  0.3112 -0.0040 -0.3167
  537PYPI   C1A 8321  11.983  16.196   9.460  0.1497  0.2967  0.2582
  537PYPI   C2A 8322  12.013  16.331   9.078  0.0113 -0.1431 -0.2056
  537PYPI   D3A 8323  12.191  16.438   8.703 -0.1294 -0.1270 -0.2266
  537PYPI   C4A 8324  12.575  16.236   8.441  0.3533  0.0618  0.1479
  537PYPI   C1B 8325  12.445  16.319   9.406 -0.3272  0.3259 -0.0703
  537PYPI   C2B 8326  12.646  16.410   9.091  0.3253 -0.0077  0.0388
  537PYPI   C3B 8327  12.939  16.497   8.736  0.1632  0.3223  0.5606
  537PYPI   C4B 8328  12.902  16.638   8.391 -0.1913  0.0560  0.2968
  538PYPI    C1 8329  11.272   5.221  10.560  0.0919  0.1813  0.1582
  538PYPI    C2 8330  11.500   5.274  10.884  0.1425  0.0137  0.1507
  538PYPI    C3 8331  11.108   5.207  10.925  0.1298  0.0995  0.1723
  538PYPI   PO4 8332  11.309   4.930  10.439  0.2437 -0.2064 -0.2072
  538PYPI   GL1 8333  11.312   4.740   9.998 -0.0799  0.0702  0.0294
  538PYPI   GL2 8334  11.525   4.915   9.735 -0.0592  0.0545 -0.2166
  538PYPI   C1A 8335  11.225   4.563   9.561  0.3578  0.3013  0.2470
  538PYPI   C2A 8336  11.160   4.526   9.064 -0.2408  0.1636  0.1870
  538PYPI   D3A 8337  11.158   4.533   8.612 -0.0765  0.1966 -0.3279
  538PYPI   C4A 8338  11.313   4.497   8.276  0.1597 -0.2115 -0.0310
  538PYPI   C1B 8339  11.442   4.926   9.264  0.0033 -0.1785  0.2158
  538PYPI   C2B 8340  11.493   4.800   8.884  0.2623 -0.1013 -0.1873
  538PYPI   C3B 8341  11.473   4.951   8.473 -0.0169  0.2718  0.1807
  538PYPI   C4B 8342  11.561   5.301   8.282 -0.1580 -0.1784  0.4563
  539PYPI    C1 8343  15.315   3.667  10.027  0.1714  0.1948 -0.1984
  539PYPI    C2 8344  15.475   3.484   9.709  0.1317  0.1579 -0.1973
  539PYPI    C3 8345  15.659   3.467  10.064  0.0029 -0.0903 -0.1400
  539PYPI   PO4 8346  15.154   3.830   9.912 -0.1442 -0.3211 -0.0830
  539PYPI   GL1 8347  15.189   4.054   9.495 -0.0943 -0.0967  0.0048
  539PYPI   GL2 8348  15.419   3.909   9.452  0.1486  0.1191  0.1702
  539PYPI   C1A 8349  15.227   4.037   8.958 -0.1312  0.1022 -0.0095
  539PYPI   C2A 8350  15.158   3.832   8.584 -0.2154 -0.0356  0.1664
  539PYPI   D3A 8351  14.909   3.806   8.232 -0.2402  0.2164 -0.3496
  539PYPI   C4A 8352  14.957   4.076   7.760 -0.0774 -0.2302  0.0961
  539PYPI   C1B 8353  15.362   3.600   9.238 -0.0466 -0.1425 -0.0233
  539PYPI   C2B 8354  15.339   3.411   8.815 -0.0858  0.1384  0.0541
  539PYPI   C3B 8355  15.204   3.367   8.445 -0.0438 -0.0545 -0.3517
  539PYPI   C4B 8356  15.097   3.427   8.000 -0.0174  0.0246  0.0369
  540ERGO   ROH 8357   9.848   1.169   9.801 -0.0632  0.0290  0.2615
  540ERGO    R1 8358   9.892   1.303   9.555 -0.0367  0.0991  0.3032
  540ERGO    R2 8359   9.910   1.170   9.314  0.2903  0.1333  0.2989
  540ERGO    R3 8360   9.714   1.343   9.240  0.1412 -0.0826  0.1791
  540ERGO    R4 8361   9.868   1.294   8.994  0.2021 -0.0798  0.2267
  540ERGO    R5 8362   9.821   1.488   9.082  0.0199 -0.0749  0.1096
  540ERGO    C1 8363   9.659   1.529   8.738  0.0108 -0.4066  0.0723
  540ERGO    C2 8364   9.743   1.612   8.303 -0.2032  0.0480 -0.0817
  541ERGO   ROH 8365  13.035   8.560   9.620  0.1017 -0.2022 -0.0400
  541ERGO    R1 8366  12.973   8.480   9.355 -0.0642  0.0102 -0.0684
  541ERGO    R2 8367  12.861   8.652   9.170  0.0547  0.2345  0.0626
  541ERGO    R3 8368  13.075   8.578   9.020 -0.0662  0.0966 -0.0438
  541ERGO    R4 8369  12.894   8.711   8.831 -0.0522  0.2530  0.0552
  541ERGO    R5 8370  12.980   8.512   8.810 -0.2078  0.1929 -0.0103
  541ERGO    C1 8371  13.115   8.676   8.492 -0.2279  0.1341 -0.0492
  541ERGO    C2 8372  13.193   8.781   8.090  0.2004  0.0161  0.0015
  542ERGO   ROH 8373   3.981   0.563   9.498 -0.3402 -0.0924  0.0287
  542ERGO    R1 8374   3.852   0.713   9.295 -0.2186 -0.1059 -0.0555
  542ERGO    R2 8375   3.992   0.855   9.103 -0.1068 -0.0125  0.1120
  542ERGO    R3 8376   3.840   0.710   8.931  0.1078 -0.0285 -0.0748
  542ERGO    R4 8377   3.914   0.950   8.780  0.1972  0.0487  0.0505
  542ERGO    R5 8378   3.712   0.874   8.812  0.1742 -0.0269 -0.1650
  542ERGO    C1 8379   3.725   0.869   8.431  0.5757  0.0693 -0.1607
  542ERGO    C2 8380   3.726   0.969   8.097 -0.5459 -0.1672  0.0674
  543ERGO   ROH 8381   7.582  12.565   9.152 -0.0516 -0.2804 -0.0335
  543ERGO    R1 8382   7.577  12.734   8.925  0.0048 -0.2439 -0.0059
  543ERGO    R2 8383   7.803  12.790   8.776  0.0136 -0.3204 -0.0090
  543ERGO    R3 8384   7.650  12.702   8.570 -0.0363 -0.2166 -0.0189
  543ERGO    R4 8385   7.876  12.837   8.442  0.0911 -0.3900 -0.0033
  543ERGO    R5 8386   7.665  12.876   8.406  0.1163 -0.2288 -0.0267
  543ERGO    C1 8387   7.775  12.781   8.053  0.0894 -0.3330 -0.0094
  543ERGO    C2 8388   7.641  12.856   7.806 -0.3482  0.3281  0.2085
  544ERGO   ROH 8389   3.672  16.123   6.279  0.1086  0.1773  0.1552
  544ERGO    R1 8390   3.688  16.139   6.562  0.1239  0.0164  0.1642
  544ERGO    R2 8391   3.496  16.265   6.715  0.2660  0.1649  0.2240
  544ERGO    R3 8392   3.488  16.027   6.845 -0.0132  0.1034  0.1026
  544ERGO    R4 8393   3.329  16.207   7.012  0.1439  0.1846  0.1603
  544ERGO    R5 8394   3.497  16.085   7.077  0.0017 -0.0267  0.1340
  544ERGO    C1 8395   3.225  15.949   7.307 -0.1892  0.1383  0.0092
  544ERGO    C2 8396   3.023  15.917   7.520 -0.2973 -0.1776 -0.3427
  545ERGO   ROH 8397   6.208  14.986   9.578  0.0864  0.2171  0.0450
  545ERGO    R1 8398   6.131  14.910   9.317  0.2302  0.0129  0.0586
  545ERGO    R2 8399   6.074  15.094   9.119 -0.0929 -0.1297  0.0061
  545ERGO    R3 8400   6.261  14.955   8.979  0.1704  0.1642  0.0568
  545ERGO    R4 8401   6.094  15.082   8.774 -0.1327 -0.3076  0.0101
  545ERGO    R5 8402   6.142  14.870   8.790  0.3081 -0.2024  0.1330
  545ERGO    C1 8403   6.281  14.943   8.442  0.0912 -0.1355  0.0602
  545ERGO    C2 8404   6.305  14.899   8.108  0.1284  0.1595  0.1218
  546ERGO   ROH 8405   2.744  17.487   6.146  0.0444  0.0578  0.0525
  546ERGO    R1 8406   2.687  17.575   6.409  0.0334  0.0353  0.0560
  546ERGO    R2 8407   2.662  17.843   6.474 -0.1215  0.0168  0.0506
  546ERGO    R3 8408   2.422  17.763   6.572 -0.0512 -0.1203  0.0976
  546ERGO    R4 8409   2.518  17.962   6.764 -0.1719 -0.0002  0.0343
  546ERGO    R5 8410   2.452  17.759   6.809 -0.0243 -0.0307  0.0955
  546ERGO    C1 8411   2.208  17.956   7.026 -0.1353 -0.1388  0.0689
  546ERGO    C2 8412   1.847  18.039   7.188  0.2671  0.1465  0.3086
  547ERGO   ROH 8413   6.802   2.092   9.702  0.1111  0.0539  0.0574
  547ERGO    R1 8414   6.936   2.043   9.458  0.0242  0.0356  0.0123
  547ERGO    R2 8415   6.923   1.799   9.328  0.0469 -0.0038  0.0781
  547ERGO    R3 8416   6.842   1.952   9.118 -0.0926 -0.0803  0.0753
  547ERGO    R4 8417   6.944   1.707   8.995  0.0168 -0.0346  0.0849
  547ERGO    R5 8418   7.004   1.911   8.948 -0.1129 -0.0086  0.0413
  547ERGO    C1 8419   6.881   1.798   8.605 -0.1317 -0.1243  0.0864
  547ERGO    C2 8420   6.719   1.742   8.331  0.0924 -0.1016 -0.2129
  548ERGO   ROH 8421   8.029   5.571   9.978  0.0891  0.1189  0.0305
  548ERGO    R1 8422   8.160   5.605   9.729  0.0180  0.0906 -0.0108
  548ERGO    R2 8423   8.112   5.439   9.512 -0.0266  0.0504  0.0277
  548ERGO    R3 8424   8.060   5.674   9.386 -0.0832  0.0261  0.0059
  548ERGO    R4 8425   8.135   5.489   9.171  0.1929  0.0925  0.0464
  548ERGO    R5 8426   8.222   5.685   9.210  0.0390  0.1443  0.1260
  548ERGO    C1 8427   8.098   5.739   8.854  0.2677  0.0941  0.0370
  548ERGO    C2 8428   8.193   5.656   8.652 -0.1066 -0.0915 -0.1968
  549ERGO   ROH 8429   4.306   4.561  10.111 -0.1955 -0.0892 -0.0895
  549ERGO    R1 8430   4.455   4.510   9.876 -0.1277 -0.1722 -0.0285
  549ERGO    R2 8431   4.367   4.338   9.679 -0.1772 -0.0674 -0.0949
  549ERGO    R3 8432   4.408   4.553   9.518  0.0748 -0.0741 -0.0458
  549ERGO    R4 8433   4.424   4.322   9.338 -0.3170 -0.0570 -0.1198
  549ERGO    R5 8434   4.573   4.480   9.361 -0.0790 -0.2702 -0.1235
  549ERGO    C1 8435   4.496   4.515   8.989 -0.1619 -0.0574 -0.0882
  549ERGO    C2 8436   4.675   4.528   8.730  0.3205 -0.1025 -0.0478
  550ERGO   ROH 8437  14.602   5.892   9.556  0.0249 -0.1099 -0.0268
  550ERGO    R1 8438  14.548   5.941   9.283  0.0254 -0.1331 -0.0309
  550ERGO    R2 8439  14.742   5.921   9.087  0.0387 -0.0908 -0.0193
  550ERGO    R3 8440  14.563   5.752   8.972  0.0876 -0.1396 -0.0251
  550ERGO    R4 8441  14.683   5.898   8.747 -0.1356  0.0958 -0.0038
  550ERGO    R5 8442  14.470   5.879   8.791 -0.1027 -0.0785  0.1085
  550ERGO    C1 8443  14.480   5.726   8.441 -0.1912  0.1586 -0.0001
  550ERGO    C2 8444  14.564   5.590   8.164 -0.1211 -0.4321  0.2444
  551ERGO   ROH 8445   3.003  14.096   6.028  0.1187 -0.0008  0.0780
  551ERGO    R1 8446   3.021  14.319   6.202 -0.0100  0.0771 -0.0080
  551ERGO    R2 8447   2.798  14.447   6.303 -0.0834 -0.0347 -0.0295
  551ERGO    R3 8448   2.919  14.399   6.542 -0.0215  0.1371 -0.0251
  551ERGO    R4 8449   2.671  14.539   6.611 -0.1608 -0.0921 -0.0439
  551ERGO    R5 8450   2.872  14.594   6.672 -0.2097  0.1225 -0.0661
  551ERGO    C1 8451   2.710  14.548   7.014 -0.1479  0.0357 -0.0481
  551ERGO    C2 8452   2.550  14.620   7.317  0.3473 -0.1015  0.2011
  552ERGO   ROH 8453   6.626   7.779  10.055 -0.0669 -0.0023 -0.0008
  552ERGO    R1 8454   6.634   7.926   9.814  0.1527  0.0938  0.0623
  552ERGO    R2 8455   6.864   7.953   9.664  0.1743 -0.2834  0.0169
  552ERGO    R3 8456   6.707   7.857   9.464 -0.0710  0.1029  0.0124
  552ERGO    R4 8457   6.898   8.034   9.329  0.3268 -0.2992  0.0280
  552ERGO    R5 8458   6.681   8.042   9.314  0.3334  0.1969  0.0474
  552ERGO    C1 8459   6.771   7.989   8.947  0.1855  0.0542  0.0304
  552ERGO    C2 8460   6.821   7.910   8.574 -0.1713  0.1056 -0.0680
  553ERGO   ROH 8461  11.335   7.477   9.626  0.1018 -0.0988  0.1366
  553ERGO    R1 8462  11.496   7.459   9.394 -0.0543 -0.1566  0.0313
  553ERGO    R2 8463  11.415   7.324   9.167 -0.3239  0.0172  0.0189
  553ERGO    R3 8464  11.470   7.561   9.045 -0.1677  0.0189  0.0896
  553ERGO    R4 8465  11.408   7.376   8.825 -0.0513  0.0647  0.0177
  553ERGO    R5 8466  11.587   7.499   8.845 -0.0324  0.0142  0.1693
  553ERGO    C1 8467  11.454   7.629   8.512  0.2540  0.0940  0.0835
  553ERGO    C2 8468  11.493   7.708   8.208  0.0775 -0.1568 -0.3333
  554ERGO   ROH 8469   4.242  12.953   9.498  0.0579 -0.3468 -0.0573
  554ERGO    R1 8470   4.242  13.135   9.281  0.0437 -0.1138  0.1319
  554ERGO    R2 8471   4.417  13.113   9.069 -0.0099  0.0739  0.0633
  554ERGO    R3 8472   4.189  13.117   8.921 -0.0450  0.2777  0.1213
  554ERGO    R4 8473   4.398  13.221   8.741  0.0440 -0.0841  0.0074
  554ERGO    R5 8474   4.207  13.317   8.790  0.1753  0.1840  0.0044
  554ERGO    C1 8475   4.173  13.289   8.412  0.0425  0.0151  0.0292
  554ERGO    C2 8476   4.168  13.244   8.093 -0.1336  0.1696  0.0659
  555ERGO   ROH 8477   0.135  15.157   9.641 -0.3803 -0.0829 -0.0369
  555ERGO    R1 8478  -0.011  15.130   9.401 -0.2267 -0.1017 -0.1301
  555ERGO    R2 8479   0.095  15.194   9.154 -0.1501  0.1183 -0.0462
  555ERGO    R3 8480   0.021  14.939   9.092  0.1180  0.0761 -0.2078
  555ERGO    R4 8481   0.034  15.078   8.834 -0.1159  0.2760 -0.1101
  555ERGO    R5 8482  -0.135  14.965   8.912  0.0353  0.0278 -0.1401
  555ERGO    C1 8483  -0.071  14.772   8.589  0.1557  0.3283 -0.2991
  555ERGO    C2 8484  -0.135  14.877   8.243  0.1446  0.0105 -0.0804
  556ERGO   ROH 8485   9.019   6.506   6.488 -0.0170  0.2226  0.0059
  556ERGO    R1 8486   8.828   6.472   6.694 -0.0469  0.1284 -0.0361
  556ERGO    R2 8487   8.883   6.334   6.927 -0.0636  0.0658 -0.0681
  556ERGO    R3 8488   8.799   6.565   7.045 -0.1207  0.0171 -0.0127
  556ERGO    R4 8489   8.841   6.379   7.267 -0.1854 -0.0588 -0.0657
  556ERGO    R5 8490   8.660   6.493   7.226 -0.1782 -0.0572 -0.0869
  556ERGO    C1 8491   8.738   6.622   7.576 -0.3100 -0.1769 -0.0123
  556ERGO    C2 8492   8.535   6.777   7.868 -0.0566  0.0098  0.1067
  557ERGO   ROH 8493   4.208  11.119   5.869 -0.4248  0.0343  0.0365
  557ERGO    R1 8494   4.164  11.157   6.146 -0.2453 -0.1357  0.0895
  557ERGO    R2 8495   4.243  10.972   6.335 -0.0470 -0.2116 -0.0697
  557ERGO    R3 8496   4.370  11.185   6.445 -0.0481 -0.2288 -0.0332
  557ERGO    R4 8497   4.303  11.013   6.673 -0.0484 -0.2797 -0.0605
  557ERGO    R5 8498   4.253  11.224   6.651 -0.0526 -0.2709 -0.0231
  557ERGO    C1 8499   4.456  11.238   6.973 -0.0503 -0.3354 -0.0209
  557ERGO    C2 8500   4.644  11.442   7.250 -0.3621  0.3647 -0.2054
  558ERGO   ROH 8501  11.619  11.653   9.627 -0.0687 -0.1084  0.0171
  558ERGO    R1 8502  11.546  11.639   9.354 -0.0276 -0.0737  0.0052
  558ERGO    R2 8503  11.705  11.742   9.152 -0.0154 -0.0179  0.0479
  558ERGO    R3 8504  11.682  11.491   9.051  0.0355 -0.0034 -0.0023
  558ERGO    R4 8505  11.737  11.659   8.818  0.2078  0.0308  0.0548
  558ERGO    R5 8506  11.571  11.520   8.842  0.1784  0.0369 -0.0767
  558ERGO    C1 8507  11.734  11.375   8.529  0.3854  0.0727  0.0118
  558ERGO    C2 8508  11.683  11.417   8.129 -0.0202  0.3063 -0.1673
  559ERGO   ROH 8509  15.898  12.317   6.046  0.1452 -0.0198 -0.0760
  559ERGO    R1 8510  15.908  12.478   6.278  0.1653 -0.1363  0.0046
  559ERGO    R2 8511  15.689  12.620   6.370  0.2313 -0.0130 -0.0284
  559ERGO    R3 8512  15.741  12.487   6.601  0.0268 -0.1625 -0.0656
  559ERGO    R4 8513  15.603  12.731   6.686  0.0962 -0.1403 -0.0190
  559ERGO    R5 8514  15.795  12.659   6.759  0.0179 -0.2730  0.0598
  559ERGO    C1 8515  15.602  12.670   7.087 -0.1745 -0.3549 -0.0485
  559ERGO    C2 8516  15.643  12.590   7.441 -0.0677  0.2660 -0.3493
  560ERGO   ROH 8517  12.004   6.395   6.375  0.0704 -0.0804 -0.1154
  560ERGO    R1 8518  12.022   6.284   6.634 -0.0389 -0.0411 -0.0903
  560ERGO    R2 8519  11.984   6.014   6.684  0.0259 -0.0471 -0.0786
  560ERGO    R3 8520  12.228   6.034   6.801 -0.0472  0.0505  0.0597
  560ERGO    R4 8521  12.113   5.788   6.910  0.0366 -0.0675 -0.1052
  560ERGO    R5 8522  12.193   5.955   7.025 -0.1227 -0.0645  0.0096
  560ERGO    C1 8523  12.418   5.674   7.153 -0.0259  0.0122  0.0092
  560ERGO    C2 8524  12.561   5.401   7.235 -0.4469  0.2219  0.2607
  561ERGO   ROH 8525   3.554   5.832   9.765  0.0011 -0.0715  0.0020
  561ERGO    R1 8526   3.539   5.778   9.488 -0.0662 -0.0058 -0.0071
  561ERGO    R2 8527   3.501   5.976   9.299  0.0298  0.0537  0.0404
  561ERGO    R3 8528   3.726   5.869   9.189 -0.0485 -0.0587 -0.0139
  561ERGO    R4 8529   3.594   6.009   8.967 -0.0142  0.0592  0.0284
  561ERGO    R5 8530   3.658   5.801   8.970 -0.1319  0.0162 -0.0160
  561ERGO    C1 8531   3.859   5.929   8.672 -0.1134 -0.0431 -0.0295
  561ERGO    C2 8532   4.120   6.032   8.383 -0.3649  0.0216  0.2161
  562ERGO   ROH 8533   6.580  11.364   9.595  0.3015  0.1384 -0.1648
  562ERGO    R1 8534   6.500  11.210   9.372  0.0949  0.1466 -0.0993
  562ERGO    R2 8535   6.314  11.300   9.188  0.0441  0.2217 -0.0153
  562ERGO    R3 8536   6.512  11.244   9.009 -0.0797  0.0841 -0.1112
  562ERGO    R4 8537   6.267  11.254   8.849 -0.1251  0.4401 -0.0231
  562ERGO    R5 8538   6.411  11.091   8.855 -0.3064  0.2721 -0.1536
  562ERGO    C1 8539   6.424  11.175   8.484 -0.3398  0.4382 -0.1175
  562ERGO    C2 8540   6.464  11.138   8.219 -0.4032 -0.1909 -0.3842
  563ERGO   ROH 8541  13.829  14.356   6.310  0.1046 -0.2071 -0.0439
  563ERGO    R1 8542  13.975  14.201   6.497  0.0060 -0.1671  0.0664
  563ERGO    R2 8543  14.032  14.291   6.752  0.0008 -0.0503  0.0235
  563ERGO    R3 8544  13.914  14.057   6.826 -0.1106  0.0396  0.1386
  563ERGO    R4 8545  13.932  14.213   7.074  0.0093  0.1395  0.0737
  563ERGO    R5 8546  14.006  14.010   7.042 -0.0994  0.0841  0.1463
  563ERGO    C1 8547  13.764  13.949   7.331 -0.0902  0.3344  0.2110
  563ERGO    C2 8548  13.444  13.881   7.442 -0.3204 -0.4519  0.2130
  564ERGO   ROH 8549  12.528   5.197   9.828  0.3080 -0.0162  0.0753
  564ERGO    R1 8550  12.444   5.091   9.579  0.3271 -0.0941  0.1016
  564ERGO    R2 8551  12.325   5.247   9.383  0.1302 -0.2007  0.1337
  564ERGO    R3 8552  12.524   5.147   9.228  0.1753 -0.0265  0.0768
  564ERGO    R4 8553  12.281   5.106   9.071  0.1558 -0.2951  0.1724
  564ERGO    R5 8554  12.428   4.955   9.124  0.3282 -0.1413  0.1432
  564ERGO    C1 8555  12.442   4.930   8.744  0.2129 -0.1866  0.1413
  564ERGO    C2 8556  12.532   5.006   8.475 -0.1993  0.2852 -0.2258
  565ERGO   ROH 8557  11.577   8.650   9.807 -0.2010  0.1172  0.0722
  565ERGO    R1 8558  11.669   8.750   9.559 -0.1655  0.0517  0.0584
  565ERGO    R2 8559  11.900   8.659   9.438  0.0055  0.2149  0.2504
  565ERGO    R3 8560  11.734   8.615   9.227  0.1678 -0.1026  0.1828
  565ERGO    R4 8561  11.947   8.788   9.121 -0.0757  0.2442  0.2501
  565ERGO    R5 8562  11.732   8.824   9.109 -0.1373 -0.1222  0.1490
  565ERGO    C1 8563  11.819   8.821   8.738  0.0292 -0.0369  0.1866
  565ERGO    C2 8564  11.826   8.925   8.318 -0.2416 -0.0637  0.0509
  566ERGO   ROH 8565   0.329  12.588   9.791  0.1001 -0.1456  0.2123
  566ERGO    R1 8566   0.479  12.668   9.564  0.0718 -0.0728  0.2193
  566ERGO    R2 8567   0.602  12.487   9.396  0.0430 -0.0183  0.1416
  566ERGO    R3 8568   0.461  12.619   9.204  0.0223  0.0515  0.2041
  566ERGO    R4 8569   0.593  12.399   9.061 -0.0091  0.0876  0.1144
  566ERGO    R5 8570   0.602  12.611   9.011 -0.0046  0.1050  0.1808
  566ERGO    C1 8571   0.456  12.472   8.687 -0.0590  0.2148  0.1573
  566ERGO    C2 8572   0.308  12.312   8.342  0.2873  0.0739 -0.2131
  567ERGO   ROH 8573   8.291  15.220   9.363  0.1945 -0.1580  0.1063
  567ERGO    R1 8574   8.424  15.266   9.118  0.0452  0.0829  0.0672
  567ERGO    R2 8575   8.437  15.076   8.918  0.1023  0.2025 -0.0444
  567ERGO    R3 8576   8.333  15.275   8.765 -0.1267  0.2072  0.1134
  567ERGO    R4 8577   8.421  15.072   8.573  0.0900  0.4472 -0.0479
  567ERGO    R5 8578   8.475  15.284   8.573 -0.1428  0.5112  0.1096
  567ERGO    C1 8579   8.314  15.258   8.228 -0.1322  0.5943  0.0983
  567ERGO    C2 8580   8.268  15.278   7.815  0.0017 -0.2365  0.0017
  568ERGO   ROH 8581   3.326   2.764   9.857  0.1461  0.1954  0.0747
  568ERGO    R1 8582   3.447   2.848   9.615  0.0418  0.1396  0.0026
  568ERGO    R2 8583   3.579   2.673   9.446  0.0773  0.1221  0.0476
  568ERGO    R3 8584   3.408   2.774   9.261 -0.0202 -0.0435  0.0465
  568ERGO    R4 8585   3.594   2.607   9.107  0.1955  0.1979  0.0379
  568ERGO    R5 8586   3.545   2.816   9.070 -0.0446  0.1512  0.0699
  568ERGO    C1 8587   3.442   2.663   8.736  0.1727  0.0865  0.0312
  568ERGO    C2 8588   3.417   2.675   8.389 -0.3289  0.1328  0.0547
  569ERGO   ROH 8589  16.694   5.427   9.269 -0.2545 -0.4212 -0.0836
  569ERGO    R1 8590  16.814   5.288   9.054  0.0436 -0.1549 -0.0950
  569ERGO    R2 8591  16.722   5.306   8.794 -0.0169 -0.3494 -0.0822
  569ERGO    R3 8592  16.980   5.375   8.741 -0.1593  0.2193 -0.1059
  569ERGO    R4 8593  16.868   5.296   8.481  0.1053 -0.5585 -0.0205
  569ERGO    R5 8594  17.050   5.218   8.575  0.2952  0.0675  0.2016
  569ERGO    C1 8595  17.195   5.354   8.249  0.0428 -0.1464 -0.0068
  569ERGO    C2 8596  17.368   5.211   8.009  0.0589 -0.2010  0.1175
  570ERGO   ROH 8597  17.100  18.087  10.002 -0.0091  0.0466  0.1454
  570ERGO    R1 8598  16.911  18.134   9.796 -0.0223  0.0955  0.1682
  570ERGO    R2 8599  16.977  18.261   9.560 -0.0150  0.0660  0.1538
  570ERGO    R3 8600  16.870  18.037   9.448 -0.0972  0.0934  0.1773
  570ERGO    R4 8601  16.915  18.219   9.222  0.0867  0.0078  0.1420
  570ERGO    R5 8602  16.728  18.120   9.274  0.0121  0.1250  0.1015
  570ERGO    C1 8603  16.778  17.985   8.921  0.0687 -0.0003  0.1571
  570ERGO    C2 8604  16.682  17.870   8.659  0.2560  0.1683  0.0036
  571ERGO   ROH 8605  14.307  14.579   9.991  0.0824 -0.1696 -0.0713
  571ERGO    R1 8606  14.192  14.507   9.742  0.0548 -0.0535 -0.0939
  571ERGO    R2 8607  14.183  14.680   9.526  0.1809 -0.0072 -0.0684
  571ERGO    R3 8608  14.306  14.475   9.398  0.0629 -0.0641 -0.0893
  571ERGO    R4 8609  14.190  14.637   9.184  0.0627 -0.0397 -0.0662
  571ERGO    R5 8610  14.162  14.423   9.215 -0.0095 -0.0238 -0.0413
  571ERGO    C1 8611  14.311  14.418   8.864 -0.1170 -0.1121 -0.0845
  571ERGO    C2 8612  14.336  14.414   8.516 -0.1385  0.2128  0.0804
  572ERGO   ROH 8613  14.116   3.452   9.618 -0.2061 -0.2542  0.1752
  572ERGO    R1 8614  14.065   3.256   9.421 -0.2340 -0.2427  0.1706
  572ERGO    R2 8615  13.809   3.170   9.360 -0.2756  0.0292 -0.0586
  572ERGO    R3 8616  13.883   3.238   9.107  0.0501 -0.1074 -0.0057
  572ERGO    R4 8617  13.684   3.026   9.071 -0.2692  0.2056 -0.1503
  572ERGO    R5 8618  13.885   3.031   8.987 -0.1838 -0.1255  0.0169
  572ERGO    C1 8619  13.680   3.007   8.666  0.0405  0.1800 -0.1541
  572ERGO    C2 8620  13.427   2.882   8.468  0.0492  0.1341 -0.0850
  573ERGO   ROH 8621  11.643  15.870   6.392  0.0906  0.0991 -0.1514
  573ERGO    R1 8622  11.768  15.756   6.619  0.1180  0.1434 -0.1464
  573ERGO    R2 8623  12.004  15.854   6.724 -0.0324  0.3549 -0.0154
  573ERGO    R3 8624  11.860  15.867   6.954 -0.1363  0.1094 -0.0610
  573ERGO    R4 8625  12.138  15.839   7.042 -0.1442  0.2093  0.0275
  573ERGO    R5 8626  11.969  15.714   7.102 -0.1015  0.0638 -0.1258
  573ERGO    C1 8627  12.080  15.842   7.443 -0.3069 -0.1059  0.0097
  573ERGO    C2 8628  12.327  15.894   7.692  0.1842  0.1208  0.2242
  574ERGO   ROH 8629  14.741  17.287   6.447 -0.1357  0.1315  0.1005
  574ERGO    R1 8630  14.713  17.147   6.691 -0.0964 -0.0058  0.0268
  574ERGO    R2 8631  14.892  17.174   6.899 -0.1166 -0.0506  0.0491
  574ERGO    R3 8632  14.668  17.233   7.042 -0.1430 -0.2057  0.0707
  574ERGO    R4 8633  14.858  17.129   7.240  0.0908  0.2848  0.1183
  574ERGO    R5 8634  14.655  17.058   7.205  0.1727 -0.0453  0.2776
  574ERGO    C1 8635  14.628  17.158   7.573  0.1868  0.3344  0.1789
  574ERGO    C2 8636  14.503  17.353   7.907  0.0180  0.0301 -0.1979
  575ERGO   ROH 8637  11.220   9.643   9.570  0.1271  0.4426 -0.0011
  575ERGO    R1 8638  11.148   9.582   9.304  0.0727  0.3129  0.0425
  575ERGO    R2 8639  11.007   9.757   9.143  0.0420  0.2362 -0.0150
  575ERGO    R3 8640  11.216   9.719   8.973  0.0075  0.1517 -0.0389
  575ERGO    R4 8641  10.988   9.779   8.799  0.0196  0.2906 -0.0101
  575ERGO    R5 8642  11.120   9.606   8.785 -0.0689  0.2243 -0.0448
  575ERGO    C1 8643  11.174   9.756   8.439 -0.0258  0.2429 -0.0299
  575ERGO    C2 8644  11.411   9.665   8.213 -0.0749 -0.0740  0.0710
  576ERGO   ROH 8645  11.146   6.606   9.918  0.0512  0.1789 -0.0721
  576ERGO    R1 8646  11.034   6.452   9.708  0.1197  0.1566 -0.0924
  576ERGO    R2 8647  10.837   6.550   9.540  0.0056  0.0593 -0.0166
  576ERGO    R3 8648  11.012   6.475   9.346  0.0189  0.2505 -0.0809
  576ERGO    R4 8649  10.763   6.538   9.203 -0.1571 -0.1716  0.0246
  576ERGO    R5 8650  10.877   6.353   9.189  0.1161 -0.0094  0.0334
  576ERGO    C1 8651  10.884   6.461   8.824 -0.2395 -0.1266 -0.0119
  576ERGO    C2 8652  10.712   6.472   8.482  0.3276 -0.1744 -0.0159
  577ERGO   ROH 8653  15.759   5.051   9.495  0.2479  0.1397 -0.0212
  577ERGO    R1 8654  15.821   4.890   9.271  0.1609  0.0751  0.0014
  577ERGO    R2 8655  15.640   4.841   9.067  0.0934  0.0398  0.0742
  577ERGO    R3 8656  15.842   4.935   8.910  0.0520 -0.0240 -0.0189
  577ERGO    R4 8657  15.685   4.763   8.734 -0.1733  0.1302  0.0145
  577ERGO    R5 8658  15.899   4.750   8.770 -0.1516 -0.0136 -0.1248
  577ERGO    C1 8659  15.899   4.804   8.392 -0.3677  0.1230 -0.1077
  577ERGO    C2 8660  16.039   4.754   8.148 -0.1878  0.1148  0.0074
  578ERGO   ROH 8661  16.697   2.745   9.453  0.2289  0.2189 -0.0909
  578ERGO    R1 8662  16.685   2.554   9.244  0.2580  0.2337 -0.1080
  578ERGO    R2 8663  16.450   2.430   9.169  0.3173 -0.0206  0.0786
  578ERGO    R3 8664  16.517   2.523   8.923  0.0058  0.1020  0.0373
  578ERGO    R4 8665  16.288   2.347   8.876  0.0692  0.0058  0.2066
  578ERGO    R5 8666  16.482   2.337   8.777 -0.0379  0.1488  0.0029
  578ERGO    C1 8667  16.256   2.387   8.474 -0.3681  0.1363  0.2423
  578ERGO    C2 8668  16.026   2.379   8.363  0.2709 -0.0206 -0.1167
  579ERGO   ROH 8669  13.221   4.008   9.693  0.4207  0.2524  0.0203
  579ERGO    R1 8670  13.324   3.938   9.439  0.3284  0.1613  0.0065
  579ERGO    R2 8671  13.182   3.789   9.256  0.2900  0.0271  0.1404
  579ERGO    R3 8672  13.235   3.998   9.091  0.1523 -0.0331  0.0175
  579ERGO    R4 8673  13.176   3.774   8.911  0.5334 -0.2354  0.1438
  579ERGO    R5 8674  13.354   3.901   8.908  0.3872 -0.0305  0.1684
  579ERGO    C1 8675  13.223   3.963   8.555  0.5458 -0.4446  0.0305
  579ERGO    C2 8676  13.309   3.889   8.207  0.2714 -0.0512  0.0785
  580ERGO   ROH 8677   5.891  12.092   9.283 -0.1093  0.1029  0.1002
  580ERGO    R1 8678   5.946  11.997   9.023  0.2450  0.1947  0.1352
  580ERGO    R2 8679   5.754  11.988   8.824  0.3248 -0.3584  0.0648
  580ERGO    R3 8680   5.938  12.132   8.685  0.0028  0.1216  0.1103
  580ERGO    R4 8681   5.773  12.004   8.479  0.4030 -0.3583  0.0693
  580ERGO    R5 8682   5.990  11.995   8.495  0.4375  0.2223  0.1470
  580ERGO    C1 8683   5.957  12.149   8.148  0.1462  0.0923  0.1144
  580ERGO    C2 8684   5.783  12.131   7.855 -0.1509  0.1120 -0.0946
  581ERGO   ROH 8685   6.772   0.817   6.316 -0.0853 -0.0031  0.0078
  581ERGO    R1 8686   6.547   0.939   6.436 -0.0945 -0.0368  0.0245
  581ERGO    R2 8687   6.315   0.801   6.492 -0.0776 -0.0654  0.0189
  581ERGO    R3 8688   6.356   0.898   6.743 -0.0819 -0.0822  0.0264
  581ERGO    R4 8689   6.077   0.807   6.743 -0.0733 -0.1115  0.0245
  581ERGO    R5 8690   6.149   1.004   6.800 -0.0923 -0.1081  0.0398
  581ERGO    C1 8691   5.978   0.901   7.125 -0.0748 -0.1541  0.0349
  581ERGO    C2 8692   5.691   0.735   7.190 -0.1047  0.0939  0.1624
  582ERGO   ROH 8693  17.824  17.312   9.731 -0.1223 -0.0024 -0.0529
  582ERGO    R1 8694  17.704  17.242   9.485 -0.1249  0.1786 -0.1074
  582ERGO    R2 8695  17.628  17.430   9.297 -0.0578  0.3220 -0.0137
  582ERGO    R3 8696  17.782  17.280   9.131 -0.0773  0.3707 -0.0723
  582ERGO    R4 8697  17.576  17.395   8.957 -0.1968  0.2231  0.0182
  582ERGO    R5 8698  17.627  17.184   8.976 -0.0901  0.2677  0.0237
  582ERGO    C1 8699  17.691  17.234   8.604 -0.2960  0.2113 -0.0183
  582ERGO    C2 8700  17.789  17.397   8.336 -0.0190  0.1003  0.2210
  583ERGO   ROH 8701  14.035  16.525   6.406 -0.0864 -0.0156 -0.1987
  583ERGO    R1 8702  13.810  16.435   6.553 -0.0264 -0.1027 -0.1585
  583ERGO    R2 8703  13.831  16.325   6.805  0.0663 -0.1452 -0.1824
  583ERGO    R3 8704  13.651  16.518   6.869  0.0324 -0.2029 -0.1033
  583ERGO    R4 8705  13.696  16.372   7.120  0.0740 -0.2756 -0.1590
  583ERGO    R5 8706  13.504  16.412   7.025  0.0627 -0.2815 -0.1310
  583ERGO    C1 8707  13.448  16.580   7.363  0.0468 -0.4056 -0.0711
  583ERGO    C2 8708  13.338  16.515   7.579 -0.2428 -0.2857  0.0498
  584ERGO   ROH 8709   6.398  16.290   9.667  0.0791 -0.0218 -0.0585
  584ERGO    R1 8710   6.429  16.412   9.413  0.1344 -0.0162 -0.0492
  584ERGO    R2 8711   6.668  16.409   9.275  0.0668 -0.3407 -0.1650
  584ERGO    R3 8712   6.515  16.303   9.077 -0.1866 -0.0795 -0.1145
  584ERGO    R4 8713   6.713  16.467   8.937 -0.0058 -0.3356 -0.1739
  584ERGO    R5 8714   6.497  16.479   8.915 -0.0069 -0.0146 -0.0685
  584ERGO    C1 8715   6.595  16.402   8.555 -0.2861 -0.0874 -0.1316
  584ERGO    C2 8716   6.749  16.416   8.395 -0.1788 -0.0065 -0.2669
  585ERGO   ROH 8717  12.352   7.747   9.753  0.0507  0.0062  0.0240
  585ERGO    R1 8718  12.322   7.704   9.475 -0.0666  0.0492  0.0292
  585ERGO    R2 8719  12.346   7.907   9.289 -0.0219  0.0554  0.0413
  585ERGO    R3 8720  12.530   7.740   9.178 -0.1473 -0.0313 -0.0374
  585ERGO    R4 8721  12.419   7.889   8.951 -0.0580  0.1370  0.0290
  585ERGO    R5 8722  12.431   7.673   8.970 -0.2098  0.1200 -0.0577
  585ERGO    C1 8723  12.634   7.722   8.651 -0.1969  0.1031 -0.0520
  585ERGO    C2 8724  12.680   7.745   8.345 -0.3284  0.1743  0.1968
  586ERGO   ROH 8725  16.493   8.565   9.739 -0.0694 -0.0012 -0.2343
  586ERGO    R1 8726  16.561   8.689   9.494 -0.0797  0.0277 -0.2225
  586ERGO    R2 8727  16.526   8.565   9.249 -0.0972  0.0593 -0.2358
  586ERGO    R3 8728  16.386   8.791   9.191 -0.0937  0.0707 -0.2002
  586ERGO    R4 8729  16.456   8.677   8.930 -0.0757  0.1212 -0.2189
  586ERGO    R5 8730  16.496   8.881   8.998 -0.0803  0.1086 -0.1758
  586ERGO    C1 8731  16.285   8.955   8.689 -0.0600  0.1680 -0.1757
  586ERGO    C2 8732  16.144   8.900   8.438 -0.0238  0.1957  0.1011
  587ERGO   ROH 8733   4.836   2.963   6.472  0.3917 -0.1509  0.0855
  587ERGO    R1 8734   4.790   3.086   6.723  0.1872 -0.1565  0.0521
  587ERGO    R2 8735   4.752   2.941   6.955  0.2706 -0.1592  0.0635
  587ERGO    R3 8736   4.955   3.096   7.047  0.0820  0.0721  0.1008
  587ERGO    R4 8737   4.872   2.937   7.279  0.3052 -0.1265  0.0511
  587ERGO    R5 8738   4.890   3.154   7.270  0.0242 -0.0955  0.1298
  587ERGO    C1 8739   5.133   3.080   7.554  0.1482  0.1096  0.0790
  587ERGO    C2 8740   5.498   3.215   7.706 -0.2631  0.0096  0.3365
  588ERGO   ROH 8741  12.090  15.517   9.656 -0.3198  0.3351  0.0041
  588ERGO    R1 8742  12.063  15.666   9.417 -0.1565  0.2453 -0.0717
  588ERGO    R2 8743  12.266  15.826   9.317 -0.0741  0.1762 -0.0149
  588ERGO    R3 8744  12.228  15.678   9.092  0.0380  0.0933  0.0196
  588ERGO    R4 8745  12.331  15.935   8.996 -0.1288  0.1397 -0.0386
  588ERGO    R5 8746  12.148  15.835   8.931 -0.0590  0.0000 -0.0249
  588ERGO    C1 8747  12.334  15.860   8.598 -0.0554  0.0407 -0.0201
  588ERGO    C2 8748  12.444  15.791   8.204 -0.0863 -0.0727 -0.2002
  589ERGO   ROH 8749   2.413   0.224   9.390 -0.0726 -0.0263 -0.1062
  589ERGO    R1 8750   2.300   0.236   9.131 -0.0939  0.0614 -0.0931
  589ERGO    R2 8751   2.350   0.444   8.956  0.0355  0.0295 -0.0913
  589ERGO    R3 8752   2.424   0.242   8.788 -0.1282 -0.0188 -0.1080
  589ERGO    R4 8753   2.350   0.463   8.611  0.2596  0.1410 -0.0868
  589ERGO    R5 8754   2.272   0.260   8.604 -0.0041  0.2378 -0.1926
  589ERGO    C1 8755   2.420   0.286   8.253  0.2364  0.1606 -0.0999
  589ERGO    C2 8756   2.294   0.467   7.982 -0.0266 -0.0170  0.2376
  590ERGO   ROH 8757  15.219  10.760   9.809  0.0991  0.0744  0.0665
  590ERGO    R1 8758  15.216  10.761   9.526 -0.0951  0.0846  0.0668
  590ERGO    R2 8759  15.135  10.980   9.379  0.1810  0.2358  0.1299
  590ERGO    R3 8760  15.378  10.950   9.261  0.0556 -0.1858 -0.0372
  590ERGO    R4 8761  15.197  11.025   9.042  0.0588  0.2905  0.1147
  590ERGO    R5 8762  15.328  10.851   9.048 -0.2770  0.0203 -0.0616
  590ERGO    C1 8763  15.461  11.023   8.735 -0.1300 -0.0736 -0.0512
  590ERGO    C2 8764  15.318  11.027   8.437  0.0504  0.2077 -0.0965
  591ERGO   ROH 8765  15.393  16.306  10.086 -0.0002 -0.0369 -0.0344
  591ERGO    R1 8766  15.468  16.327   9.814  0.0450 -0.0035 -0.0195
  591ERGO    R2 8767  15.435  16.120   9.634  0.0217  0.0394 -0.0623
  591ERGO    R3 8768  15.300  16.308   9.491  0.0889  0.0979 -0.0496
  591ERGO    R4 8769  15.346  16.088   9.302 -0.0668  0.0500 -0.0398
  591ERGO    R5 8770  15.399  16.298   9.273  0.0385  0.0225 -0.0712
  591ERGO    C1 8771  15.168  16.245   8.974 -0.0553  0.1111 -0.0147
  591ERGO    C2 8772  15.040  16.098   8.650 -0.0665 -0.1819 -0.0705
  592ERGO   ROH 8773  10.685   0.690   9.936  0.1022  0.0589  0.0984
  592ERGO    R1 8774  10.786   0.823   9.707  0.0382  0.0066  0.0395
  592ERGO    R2 8775  10.993   0.722   9.556  0.0753  0.0310  0.0761
  592ERGO    R3 8776  10.816   0.753   9.352  0.0566 -0.1284  0.0670
  592ERGO    R4 8777  11.078   0.740   9.221  0.0560 -0.1286  0.0620
  592ERGO    R5 8778  10.928   0.896   9.196  0.0114 -0.1816 -0.0167
  592ERGO    C1 8779  10.962   0.778   8.835  0.0274 -0.3712  0.0452
  592ERGO    C2 8780  11.001   0.552   8.571 -0.0878 -0.1543  0.0977
  593ERGO   ROH 8781   8.206   9.556   9.867  0.3081 -0.0805 -0.0610
  593ERGO    R1 8782   8.244   9.604   9.590 -0.0413 -0.0124 -0.1002
  593ERGO    R2 8783   8.370   9.422   9.424  0.0617  0.1853 -0.2210
  593ERGO    R3 8784   8.142   9.446   9.279 -0.1219 -0.1526 -0.0086
  593ERGO    R4 8785   8.340   9.346   9.088 -0.0133  0.4657 -0.2825
  593ERGO    R5 8786   8.216   9.522   9.064 -0.4336  0.2445  0.0010
  593ERGO    C1 8787   8.108   9.324   8.756 -0.2294  0.3120 -0.1189
  593ERGO    C2 8788   7.995   9.270   8.313 -0.1559  0.1252 -0.0664
  594ERGO   ROH 8789  10.003  17.451   9.835  0.0432  0.1291 -0.0388
  594ERGO    R1 8790  10.026  17.550   9.571  0.1479  0.0811 -0.0490
  594ERGO    R2 8791  10.194  17.436   9.383 -0.0130 -0.1560 -0.0588
  594ERGO    R3 8792   9.966  17.422   9.235 -0.0506  0.1281 -0.0315
  594ERGO    R4 8793  10.184  17.409   9.039 -0.0896 -0.3318 -0.0435
  594ERGO    R5 8794  10.016  17.548   9.038  0.1344 -0.0613 -0.1057
  594ERGO    C1 8795   9.964  17.380   8.699 -0.1696 -0.1676 -0.0090
  594ERGO    C2 8796   9.898  17.245   8.498  0.1714  0.0637 -0.1514
  595ERGO   ROH 8797  16.913  12.663   6.437  0.0933 -0.0188 -0.0700
  595ERGO    R1 8798  16.828  12.678   6.706 -0.0609 -0.1213 -0.1114
  595ERGO    R2 8799  16.870  12.474   6.887 -0.0661 -0.1453 -0.1370
  595ERGO    R3 8800  16.986  12.671   7.034 -0.2355 -0.1263 -0.0264
  595ERGO    R4 8801  16.865  12.491   7.233 -0.1194 -0.3210 -0.1280
  595ERGO    R5 8802  16.833  12.707   7.216 -0.2851 -0.3350 -0.0244
  595ERGO    C1 8803  16.970  12.686   7.571 -0.3095 -0.4055 -0.0190
  595ERGO    C2 8804  17.278  12.656   7.882 -0.0233 -0.0765 -0.0137
  596ERGO   ROH 8805  13.282  12.965   9.698  0.0534 -0.2351  0.1540
  596ERGO    R1 8806  13.266  13.103   9.451 -0.2464 -0.2915  0.1379
  596ERGO    R2 8807  13.489  13.157   9.296 -0.3630  0.1265  0.1061
  596ERGO    R3 8808  13.345  13.032   9.103 -0.1457 -0.1838  0.1374
  596ERGO    R4 8809  13.540  13.194   8.957 -0.3441  0.0265  0.0974
  596ERGO    R5 8810  13.324  13.195   8.929 -0.3454 -0.2986  0.0492
  596ERGO    C1 8811  13.434  13.098   8.577 -0.1293 -0.3229  0.1218
  596ERGO    C2 8812  13.400  13.322   8.317  0.3272 -0.2688 -0.1265
  597ERGO   ROH 8813  13.394   7.684   9.597 -0.0318 -0.0470 -0.0011
  597ERGO    R1 8814  13.393   7.771   9.327  0.0835  0.0701  0.0336
  597ERGO    R2 8815  13.620   7.770   9.169  0.1123 -0.0561  0.0652
  597ERGO    R3 8816  13.463   7.624   9.002  0.0095  0.1452 -0.0153
  597ERGO    R4 8817  13.606   7.809   8.826  0.0961  0.1720  0.0920
  597ERGO    R5 8818  13.391   7.781   8.836  0.0835  0.2923  0.0938
  597ERGO    C1 8819  13.451   7.695   8.469 -0.0098  0.4937  0.0319
  597ERGO    C2 8820  13.191   7.727   8.183 -0.1903 -0.1292  0.3121
  598ERGO   ROH 8821  15.902   1.613   9.696  0.0514 -0.2382  0.0437
  598ERGO    R1 8822  15.918   1.680   9.422 -0.0730 -0.2388  0.0364
  598ERGO    R2 8823  16.044   1.519   9.237 -0.0985 -0.2051 -0.0074
  598ERGO    R3 8824  15.805   1.534   9.107 -0.1520 -0.2758  0.0809
  598ERGO    R4 8825  15.980   1.386   8.924 -0.0773  0.0448 -0.1210
  598ERGO    R5 8826  15.865   1.565   8.877 -0.2428 -0.0001  0.0888
  598ERGO    C1 8827  15.719   1.323   8.621 -0.1156  0.1241 -0.1043
  598ERGO    C2 8828  15.786   1.229   8.259 -0.1552  0.0745 -0.1135
  599ERGO   ROH 8829  15.041  13.592  10.043 -0.1285 -0.1495 -0.0422
  599ERGO    R1 8830  14.939  13.610   9.780 -0.0895  0.0330 -0.0461
  599ERGO    R2 8831  14.964  13.839   9.626  0.1524  0.0595  0.0244
  599ERGO    R3 8832  15.076  13.667   9.447 -0.0021 -0.0012 -0.0154
  599ERGO    R4 8833  15.041  13.916   9.298  0.2069  0.0541  0.0358
  599ERGO    R5 8834  14.970  13.719   9.240  0.0359  0.1288 -0.0004
  599ERGO    C1 8835  15.190  13.800   8.939  0.0935 -0.0062  0.0050
  599ERGO    C2 8836  15.154  13.714   8.573  0.2372  0.3182  0.1651
  600ERGO   ROH 8837   2.553   2.212   9.718 -0.1558  0.2186 -0.0911
  600ERGO    R1 8838   2.570   2.343   9.468 -0.2566  0.1408 -0.1397
  600ERGO    R2 8839   2.684   2.225   9.245 -0.0695  0.1812 -0.0713
  600ERGO    R3 8840   2.445   2.287   9.131 -0.1232 -0.1426 -0.1434
  600ERGO    R4 8841   2.637   2.292   8.909 -0.0240  0.3456 -0.0462
  600ERGO    R5 8842   2.499   2.451   8.965 -0.3242  0.0718  0.0023
  600ERGO    C1 8843   2.386   2.388   8.606 -0.0479  0.1373 -0.0990
  600ERGO    C2 8844   2.308   2.499   8.334  0.2006 -0.0969  0.2163
  601ERGO   ROH 8845  13.744   6.215   6.288  0.1339  0.1784  0.2168
  601ERGO    R1 8846  13.624   6.058   6.490 -0.0530  0.3731  0.2584
  601ERGO    R2 8847  13.366   6.103   6.580 -0.3501  0.1177 -0.4245
  601ERGO    R3 8848  13.334   5.840   6.519  0.2515 -0.0816  0.0134
  601ERGO    R4 8849  13.182   5.878   6.767 -0.6358  0.2641 -0.5211
  601ERGO    R5 8850  13.338   5.729   6.731 -0.2624  0.3887  0.2994
  601ERGO    C1 8851  13.045   5.501   6.820 -0.2375  0.1623 -0.1663
  601ERGO    C2 8852  13.017   5.348   7.065  0.0298  0.2215  0.3560
  602ERGO   ROH 8853   5.116  17.593   9.525 -0.2875  0.0086 -0.0324
  602ERGO    R1 8854   5.011  17.653   9.269 -0.1758 -0.0743 -0.0971
  602ERGO    R2 8855   5.166  17.758   9.066 -0.1317  0.0479  0.0028
  602ERGO    R3 8856   5.072  17.544   8.927  0.1222 -0.0271 -0.0626
  602ERGO    R4 8857   5.192  17.716   8.724  0.0359  0.1175  0.0048
  602ERGO    R5 8858   4.989  17.637   8.723  0.1083 -0.0767 -0.0812
  602ERGO    C1 8859   5.118  17.491   8.395  0.3719  0.0876 -0.0553
  602ERGO    C2 8860   5.195  17.294   8.109  0.1298  0.1084 -0.3814
  603ERGO   ROH 8861   5.425   7.467  10.070  0.0478  0.0976  0.0042
  603ERGO    R1 8862   5.492   7.366   9.815 -0.0183 -0.0735  0.0534
  603ERGO    R2 8863   5.300   7.282   9.634 -0.0822  0.0693  0.0525
  603ERGO    R3 8864   5.426   7.457   9.469  0.1434 -0.1290  0.0070
  603ERGO    R4 8865   5.299   7.264   9.289 -0.2516  0.0780  0.0523
  603ERGO    R5 8866   5.509   7.322   9.290 -0.1500 -0.2661 -0.0312
  603ERGO    C1 8867   5.415   7.419   8.933 -0.1386 -0.1030  0.0093
  603ERGO    C2 8868   5.432   7.378   8.629 -0.1960 -0.1529 -0.1248
  604ERGO   ROH 8869  11.182   9.784   6.359  0.3804 -0.1286  0.0007
  604ERGO    R1 8870  11.304   9.765   6.614  0.2697 -0.0180  0.0616
  604ERGO    R2 8871  11.387   9.986   6.755  0.0674  0.0503  0.0671
  604ERGO    R3 8872  11.231   9.881   6.951  0.0397 -0.0129  0.0134
  604ERGO    R4 8873  11.332  10.132   7.064 -0.3000  0.1639 -0.0460
  604ERGO    R5 8874  11.346   9.934   7.154 -0.1519  0.2202  0.0694
  604ERGO    C1 8875  11.153  10.118   7.427 -0.5400  0.1708 -0.1623
  604ERGO    C2 8876  11.120  10.288   7.683  0.2666  0.1981 -0.3032
  605ERGO   ROH 8877  12.178   6.215   9.710 -0.1719 -0.0575  0.1924
  605ERGO    R1 8878  12.033   6.281   9.477 -0.2358 -0.1632  0.2028
  605ERGO    R2 8879  12.151   6.396   9.255 -0.3528  0.0140  0.2346
  605ERGO    R3 8880  12.039   6.185   9.126 -0.1212 -0.0790  0.1808
  605ERGO    R4 8881  12.100   6.379   8.914 -0.2244 -0.0055  0.2152
  605ERGO    R5 8882  11.907   6.285   8.953 -0.1556 -0.1830  0.1445
  605ERGO    C1 8883  11.965   6.171   8.593  0.0677 -0.1042  0.1535
  605ERGO    C2 8884  12.051   6.090   8.313 -0.1293 -0.2221  0.1091
  606ERGO   ROH 8885  17.646  16.484   9.827 -0.0474  0.1970  0.0223
  606ERGO    R1 8886  17.609  16.337   9.588  0.0257  0.1410  0.0457
  606ERGO    R2 8887  17.394  16.379   9.419  0.0661  0.0844 -0.0152
  606ERGO    R3 8888  17.588  16.412   9.232  0.1074  0.0583  0.0220
  606ERGO    R4 8889  17.396  16.228   9.109 -0.0280  0.2754 -0.1107
  606ERGO    R5 8890  17.610  16.195   9.131 -0.0490  0.0998 -0.1114
  606ERGO    C1 8891  17.578  16.171   8.752 -0.0440  0.3624 -0.1315
  606ERGO    C2 8892  17.466  16.109   8.417 -0.3194  0.1266  0.1886
  607ERGO   ROH 8893  15.587  17.833   6.578  0.0197 -0.2417 -0.0836
  607ERGO    R1 8894  15.516  17.705   6.820 -0.0181 -0.0990 -0.0180
  607ERGO    R2 8895  15.673  17.718   7.048 -0.0214 -0.0177 -0.0210
  607ERGO    R3 8896  15.442  17.806   7.162 -0.0040  0.0972 -0.0721
  607ERGO    R4 8897  15.628  17.770   7.386 -0.0955 -0.0676 -0.0227
  607ERGO    R5 8898  15.428  17.685   7.368 -0.1427  0.0584 -0.1040
  607ERGO    C1 8899  15.385  17.883   7.691 -0.1224  0.0114 -0.0718
  607ERGO    C2 8900  15.556  18.041   7.892 -0.2330  0.4493 -0.0639
  608ERGO   ROH 8901  16.929  17.024   9.980 -0.1208  0.1362  0.2055
  608ERGO    R1 8902  16.773  16.943   9.758 -0.1053  0.1654  0.1842
  608ERGO    R2 8903  16.693  17.119   9.561 -0.0069  0.1706  0.1507
  608ERGO    R3 8904  16.811  16.937   9.396 -0.0379  0.1129  0.1913
  608ERGO    R4 8905  16.613  17.072   9.227 -0.1751 -0.0434  0.2185
  608ERGO    R5 8906  16.632  16.857   9.258 -0.0912 -0.0226  0.3325
  608ERGO    C1 8907  16.677  16.874   8.880 -0.3020 -0.2219  0.2962
  608ERGO    C2 8908  16.847  16.763   8.599  0.1437  0.1503  0.0488
  609ERGO   ROH 8909   2.924  12.575   9.838 -0.0334  0.2093 -0.0363
  609ERGO    R1 8910   2.947  12.739   9.608 -0.0855  0.1488 -0.0831
  609ERGO    R2 8911   3.185  12.767   9.469 -0.1419  0.0558 -0.1808
  609ERGO    R3 8912   3.031  12.693   9.257 -0.2407  0.0517 -0.1106
  609ERGO    R4 8913   3.280  12.787   9.137 -0.1957 -0.1503 -0.2116
  609ERGO    R5 8914   3.080  12.854   9.088 -0.1748 -0.0462 -0.1954
  609ERGO    C1 8915   3.192  12.728   8.746 -0.3198 -0.2742 -0.1637
  609ERGO    C2 8916   3.226  12.712   8.411 -0.0232 -0.1344  0.3246
  610ERGO   ROH 8917  10.442   5.037  10.174 -0.1260 -0.2120 -0.1433
  610ERGO    R1 8918  10.358   5.087   9.908 -0.2574 -0.3345 -0.1266
  610ERGO    R2 8919  10.515   5.224   9.726 -0.5127 -0.0555 -0.1451
  610ERGO    R3 8920  10.475   5.002   9.574 -0.1670 -0.1208 -0.1509
  610ERGO    R4 8921  10.533   5.215   9.381 -0.4817 -0.0241 -0.1444
  610ERGO    R5 8922  10.359   5.084   9.381 -0.2839 -0.2928 -0.1555
  610ERGO    C1 8923  10.504   5.003   9.037 -0.1388 -0.0671 -0.1495
  610ERGO    C2 8924  10.546   5.145   8.697 -0.0676 -0.2216  0.2326
  611ERGO   ROH 8925  10.394   0.936   5.881 -0.3895 -0.1372 -0.0560
  611ERGO    R1 8926  10.382   1.136   6.081 -0.1457 -0.1487 -0.0266
  611ERGO    R2 8927  10.154   1.287   6.128  0.0563  0.1805 -0.0582
  611ERGO    R3 8928  10.188   1.197   6.383 -0.1350  0.0851 -0.0655
  611ERGO    R4 8929  10.072   1.464   6.413  0.2879  0.2690 -0.0442
  611ERGO    R5 8930  10.254   1.390   6.506  0.1547 -0.0402 -0.0215
  611ERGO    C1 8931  10.055   1.483   6.818  0.2431  0.2309 -0.0429
  611ERGO    C2 8932  10.121   1.410   7.091  0.1284  0.1097  0.2885
  612ERGO   ROH 8933   8.861   8.758   9.924  0.0178 -0.1060 -0.0347
  612ERGO    R1 8934   8.874   8.565   9.718 -0.0525 -0.0869 -0.0569
  612ERGO    R2 8935   8.651   8.478   9.580 -0.0927 -0.0469 -0.0120
  612ERGO    R3 8936   8.796   8.551   9.362 -0.1367 -0.0447 -0.0412
  612ERGO    R4 8937   8.566   8.404   9.254 -0.0145 -0.2996  0.0227
  612ERGO    R5 8938   8.777   8.364   9.214  0.0262 -0.1477  0.0603
  612ERGO    C1 8939   8.653   8.429   8.859 -0.0106 -0.4447  0.0156
  612ERGO    C2 8940   8.718   8.287   8.616  0.0488 -0.0005  0.0319
  613ERGO   ROH 8941   1.517   3.698   9.621 -0.0391  0.1298  0.1716
  613ERGO    R1 8942   1.491   3.918   9.445  0.0196  0.1331  0.1658
  613ERGO    R2 8943   1.665   3.962   9.235 -0.0261  0.0253  0.1003
  613ERGO    R3 8944   1.436   3.966   9.089 -0.0763  0.1360  0.1817
  613ERGO    R4 8945   1.647   4.036   8.898 -0.1175  0.0388  0.1084
  613ERGO    R5 8946   1.465   4.149   8.937 -0.0476  0.1223  0.1749
  613ERGO    C1 8947   1.421   4.083   8.564 -0.2179  0.1507  0.1895
  613ERGO    C2 8948   1.612   4.008   8.215  0.2685  0.1570 -0.0921
  614ERGO   ROH 8949   4.518  10.775   9.593 -0.1348  0.1197 -0.1033
  614ERGO    R1 8950   4.393  10.647   9.373 -0.1249 -0.0031 -0.0382
  614ERGO    R2 8951   4.214  10.777   9.208 -0.1960 -0.1239 -0.0591
  614ERGO    R3 8952   4.382  10.691   9.012 -0.1954 -0.1364 -0.0528
  614ERGO    R4 8953   4.138  10.772   8.871 -0.1722 -0.0958 -0.0648
  614ERGO    R5 8954   4.239  10.579   8.856 -0.1988 -0.1078 -0.0687
  614ERGO    C1 8955   4.252  10.688   8.491 -0.1577 -0.0913 -0.0623
  614ERGO    C2 8956   4.302  10.610   8.100  0.1751  0.0088 -0.3947
  615ERGO   ROH 8957   1.994   9.267   6.889 -0.1401  0.1804  0.1589
  615ERGO    R1 8958   2.195   9.206   7.078 -0.1647  0.3470  0.2398
  615ERGO    R2 8959   2.171   9.267   7.347 -0.4604  0.0612  0.2816
  615ERGO    R3 8960   2.222   9.002   7.378 -0.0316  0.1091  0.0712
  615ERGO    R4 8961   2.304   9.124   7.631 -0.2709  0.0456  0.1873
  615ERGO    R5 8962   2.425   8.995   7.504 -0.0337  0.3409  0.0967
  615ERGO    C1 8963   2.430   8.791   7.827  0.2421  0.0816 -0.0651
  615ERGO    C2 8964   2.571   8.860   8.177 -0.0362 -0.1098  0.1397
  616ERGO   ROH 8965  18.009  15.369   9.685  0.1696 -0.2924 -0.1153
  616ERGO    R1 8966  17.888  15.412   9.433 -0.0057 -0.2657 -0.0275
  616ERGO    R2 8967  18.034  15.445   9.200 -0.1590  0.0124 -0.0869
  616ERGO    R3 8968  17.878  15.241   9.111 -0.0058 -0.0915 -0.1221
  616ERGO    R4 8969  17.983  15.366   8.868  0.0156 -0.0561 -0.0986
  616ERGO    R5 8970  17.774  15.328   8.914  0.0176 -0.1743 -0.1731
  616ERGO    C1 8971  17.807  15.128   8.591  0.2608 -0.1934 -0.1386
  616ERGO    C2 8972  17.620  15.027   8.204  0.2833  0.2927  0.0343
  617ERGO   ROH 8973  14.554   2.877   6.674 -0.0346 -0.0031 -0.0453
  617ERGO    R1 8974  14.613   2.715   6.898  0.1776 -0.0300 -0.1179
  617ERGO    R2 8975  14.839   2.750   7.052  0.0445  0.3204  0.0072
  617ERGO    R3 8976  14.659   2.764   7.255 -0.0858 -0.1522 -0.0637
  617ERGO    R4 8977  14.915   2.713   7.387 -0.0136  0.3646  0.0249
  617ERGO    R5 8978  14.732   2.599   7.412  0.2189 -0.0574 -0.0964
  617ERGO    C1 8979  14.790   2.705   7.773 -0.1699 -0.0534 -0.0313
  617ERGO    C2 8980  15.027   2.931   8.207  0.7435 -0.0359  0.1701
  618ERGO   ROH 8981   1.576  15.554   9.651  0.1783  0.1219 -0.1563
  618ERGO    R1 8982   1.383  15.471   9.461  0.2272 -0.0459 -0.1346
  618ERGO    R2 8983   1.189  15.641   9.362 -0.0107 -0.2445 -0.0210
  618ERGO    R3 8984   1.289  15.564   9.122  0.0236 -0.0341 -0.0761
  618ERGO    R4 8985   1.028  15.681   9.059 -0.1129 -0.2774  0.0288
  618ERGO    R5 8986   1.099  15.483   9.001  0.0826 -0.1796 -0.0728
  618ERGO    C1 8987   1.028  15.631   8.657 -0.1403 -0.0991  0.0061
  618ERGO    C2 8988   0.983  15.424   8.407  0.1275  0.1331 -0.1553
  619ERGO   ROH 8989  14.069   4.946   6.190 -0.2694 -0.0004  0.1283
  619ERGO    R1 8990  14.244   4.998   6.407 -0.0476 -0.3608  0.0464
  619ERGO    R2 8991  14.208   5.212   6.579  0.5808 -0.1635 -0.0365
  619ERGO    R3 8992  14.215   5.018   6.770  0.1162 -0.1090  0.0473
  619ERGO    R4 8993  14.290   5.263   6.911  0.7870 -0.2238 -0.0782
  619ERGO    R5 8994  14.402   5.076   6.907  0.3076 -0.5280 -0.0211
  619ERGO    C1 8995  14.345   5.111   7.283  0.4709 -0.2078 -0.0239
  619ERGO    C2 8996  14.431   5.299   7.628  0.2022 -0.2842 -0.4468
  620ERGO   ROH 8997  14.784  12.739   9.570  0.0875  0.0579 -0.0398
  620ERGO    R1 8998  14.909  12.691   9.320  0.0391  0.0934 -0.0715
  620ERGO    R2 8999  14.812  12.507   9.139  0.0580  0.0494 -0.0399
  620ERGO    R3 9000  14.817  12.719   8.969 -0.0656  0.0455 -0.0481
  620ERGO    R4 9001  14.838  12.485   8.795  0.2110  0.0534 -0.0289
  620ERGO    R5 9002  14.972  12.656   8.798  0.0577  0.1743  0.0154
  620ERGO    C1 9003  14.857  12.672   8.435  0.1843  0.0520 -0.0302
  620ERGO    C2 9004  14.883  12.806   8.055  0.1383  0.3118  0.2287
  621ERGO   ROH 9005   1.253  14.029   6.351  0.0121 -0.2035 -0.0647
  621ERGO    R1 9006   1.316  13.854   6.565 -0.1284 -0.2326 -0.0468
  621ERGO    R2 9007   1.301  13.932   6.830  0.0131 -0.1675 -0.0595
  621ERGO    R3 9008   1.140  13.714   6.852 -0.2176  0.0063  0.0185
  621ERGO    R4 9009   1.166  13.815   7.126  0.2032 -0.1340  0.0422
  621ERGO    R5 9010   1.206  13.612   7.058 -0.1035 -0.1575 -0.0944
  621ERGO    C1 9011   0.937  13.543   7.319  0.0974  0.0486  0.1745
  621ERGO    C2 9012   0.887  13.602   7.514 -0.2344 -0.0305  0.0217
  622ERGO   ROH 9013  18.024   9.044  10.087 -0.1928  0.1262  0.2167
  622ERGO    R1 9014  17.920   8.918   9.855 -0.2271  0.1531  0.2176
  622ERGO    R2 9015  17.790   9.057   9.655 -0.0787  0.2057  0.1583
  622ERGO    R3 9016  17.975   8.937   9.496 -0.1254  0.0403  0.2260
  622ERGO    R4 9017  17.779   9.051   9.310  0.1123  0.3406  0.1481
  622ERGO    R5 9018  17.847   8.844   9.316 -0.1359  0.2535  0.1187
  622ERGO    C1 9019  17.946   8.935   8.959  0.1797  0.2639  0.2057
  622ERGO    C2 9020  17.997   9.137   8.623 -0.2331 -0.1988  0.0217
  623ERGO   ROH 9021   4.476   9.711   6.354  0.0839 -0.0458  0.0368
  623ERGO    R1 9022   4.588   9.841   6.579 -0.0326  0.2646 -0.0768
  623ERGO    R2 9023   4.466  10.054   6.705 -0.4487  0.0076 -0.0148
  623ERGO    R3 9024   4.493   9.899   6.926  0.1040  0.0921 -0.0109
  623ERGO    R4 9025   4.496  10.174   7.027 -0.8055  0.1225 -0.0204
  623ERGO    R5 9026   4.646  10.020   7.065 -0.2726  0.6146 -0.0329
  623ERGO    C1 9027   4.539  10.098   7.423 -0.4945  0.2687 -0.0201
  623ERGO    C2 9028   4.360  10.233   7.707 -0.1963  0.2359 -0.1271
  624ERGO   ROH 9029  18.020   4.145   6.181  0.1040  0.0727  0.1153
  624ERGO    R1 9030  18.087   4.212   6.447 -0.0541  0.1157  0.1457
  624ERGO    R2 9031  17.920   4.159   6.661 -0.0071 -0.2278  0.1037
  624ERGO    R3 9032  18.139   4.032   6.760  0.1956  0.1130  0.1047
  624ERGO    R4 9033  18.030   4.182   6.988 -0.2957 -0.3802  0.2144
  624ERGO    R5 9034  18.235   4.191   6.913 -0.2477  0.1438  0.3660
  624ERGO    C1 9035  18.299   4.077   7.271 -0.2735 -0.1489  0.2798
  624ERGO    C2 9036  18.227   3.945   7.614  0.0675 -0.2845 -0.0015
  625ERGO   ROH 9037  12.506  14.307   6.825  0.2398 -0.2163 -0.2479
  625ERGO    R1 9038  12.266  14.419   6.724  0.2688 -0.0978 -0.1895
  625ERGO    R2 9039  12.110  14.292   6.534  0.1351 -0.0420 -0.1241
  625ERGO    R3 9040  11.914  14.328   6.719  0.2164  0.0947 -0.0639
  625ERGO    R4 9041  11.776  14.335   6.460  0.1080 -0.0514 -0.0060
  625ERGO    R5 9042  11.765  14.486   6.617  0.1911  0.0459 -0.0974
  625ERGO    C1 9043  11.396  14.394   6.589  0.1686  0.0714  0.1192
  625ERGO    C2 9044  11.059  14.497   6.716 -0.0952  0.2022  0.0654
  626ERGO   ROH 9045   4.923   6.350   9.699 -0.0880 -0.1978 -0.0694
  626ERGO    R1 9046   5.022   6.304   9.438 -0.1634 -0.2385 -0.0909
  626ERGO    R2 9047   4.857   6.236   9.227 -0.2632  0.0145 -0.0972
  626ERGO    R3 9048   4.975   6.450   9.108 -0.0210 -0.0864 -0.0455
  626ERGO    R4 9049   4.951   6.250   8.894 -0.4591  0.0647 -0.1517
  626ERGO    R5 9050   5.133   6.354   8.956 -0.2592 -0.2380 -0.2054
  626ERGO    C1 9051   5.117   6.460   8.589 -0.3457 -0.0007 -0.1349
  626ERGO    C2 9052   5.025   6.571   8.210  0.3416 -0.0724  0.1594
  627ERGO   ROH 9053   9.720  15.596   9.647 -0.2729  0.2564 -0.1258
  627ERGO    R1 9054   9.847  15.546   9.399 -0.1108  0.2602 -0.0455
  627ERGO    R2 9055   9.753  15.360   9.219  0.2416 -0.0412  0.0648
  627ERGO    R3 9056   9.759  15.570   9.047 -0.0416 -0.1598 -0.0953
  627ERGO    R4 9057   9.841  15.339   8.885  0.5187 -0.1344  0.1415
  627ERGO    R5 9058   9.949  15.528   8.907  0.1432  0.0946  0.0752
  627ERGO    C1 9059   9.897  15.525   8.529  0.4142 -0.3000  0.0358
  627ERGO    C2 9060  10.108  15.505   8.208  0.1368  0.2340  0.0107
  628ERGO   ROH 9061   4.337   1.181   9.848 -0.5729  0.0617 -0.0370
  628ERGO    R1 9062   4.454   1.162   9.591 -0.3182  0.0405  0.0792
  628ERGO    R2 9063   4.421   0.940   9.429 -0.2716  0.0902  0.0175
  628ERGO    R3 9064   4.335   1.125   9.249  0.0168  0.1604 -0.0575
  628ERGO    R4 9065   4.425   0.898   9.086 -0.5413 -0.1711  0.0412
  628ERGO    R5 9066   4.488   1.106   9.066 -0.1049 -0.2993 -0.1343
  628ERGO    C1 9067   4.345   1.047   8.717 -0.4276 -0.2573 -0.0152
  628ERGO    C2 9068   4.387   1.152   8.377  0.3109 -0.3467  0.1196
  629ERGO   ROH 9069   5.173   2.176   6.794 -0.1546 -0.0673  0.0988
  629ERGO    R1 9070   5.321   2.093   7.021 -0.0958  0.0048  0.0871
  629ERGO    R2 9071   5.254   2.169   7.278 -0.0998 -0.0105  0.0899
  629ERGO    R3 9072   5.256   1.901   7.323  0.0165 -0.0079  0.1036
  629ERGO    R4 9073   5.266   2.022   7.591 -0.1210  0.0120  0.1014
  629ERGO    R5 9074   5.404   1.873   7.510 -0.0246  0.0738  0.1493
  629ERGO    C1 9075   5.275   1.685   7.815 -0.0243  0.0275  0.1210
  629ERGO    C2 9076   5.255   1.493   8.105  0.0387  0.1280  0.3118
  630ERGO   ROH 9077  16.155  13.119   9.778 -0.1886  0.2209 -0.0627
  630ERGO    R1 9078  16.114  12.972   9.540 -0.0741  0.1005 -0.0093
  630ERGO    R2 9079  15.890  13.005   9.382 -0.0360 -0.0369 -0.0912
  630ERGO    R3 9080  16.074  13.047   9.186  0.0089 -0.0723 -0.0574
  630ERGO    R4 9081  15.822  13.002   9.043  0.0388 -0.1061 -0.1061
  630ERGO    R5 9082  16.010  12.897   9.011  0.0501 -0.1102 -0.0421
  630ERGO    C1 9083  15.956  13.041   8.662  0.1244 -0.1798 -0.0828
  630ERGO    C2 9084  15.830  12.918   8.218  0.2833 -0.0026  0.1736
  631ERGO   ROH 9085   5.852  12.483   9.028  0.2104  0.0026 -0.0388
  631ERGO    R1 9086   5.892  12.601   8.774  0.2335 -0.0525 -0.0602
  631ERGO    R2 9087   6.074  12.503   8.591  0.1336 -0.1861 -0.0824
  631ERGO    R3 9088   5.858  12.499   8.426  0.1015 -0.0700 -0.0446
  631ERGO    R4 9089   6.083  12.572   8.253  0.1326 -0.2183 -0.0892
  631ERGO    R5 9090   5.896  12.681   8.275  0.1952 -0.0988 -0.0652
  631ERGO    C1 9091   5.886  12.609   7.901  0.1019 -0.1279 -0.0576
  631ERGO    C2 9092   5.851  12.523   7.587 -0.0970  0.5857 -0.1630
  632ERGO   ROH 9093   8.121  17.751   9.889  0.0358 -0.0038 -0.0318
  632ERGO    R1 9094   8.125  17.676   9.617 -0.0686  0.0399 -0.0458
  632ERGO    R2 9095   7.910  17.715   9.448 -0.0672  0.2336 -0.0012
  632ERGO    R3 9096   8.094  17.844   9.295  0.0046  0.1191 -0.0131
  632ERGO    R4 9097   7.933  17.689   9.104 -0.1153  0.2140 -0.0031
  632ERGO    R5 9098   8.151  17.685   9.125 -0.1103  0.0769 -0.0179
  632ERGO    C1 9099   8.120  17.795   8.761 -0.0760  0.0952 -0.0153
  632ERGO    C2 9100   8.065  17.781   8.439 -0.0150 -0.0112  0.0293
  633ERGO   ROH 9101  17.996   2.951   9.738  0.2002  0.0339  0.0233
  633ERGO    R1 9102  18.026   3.056   9.477  0.1931 -0.1078 -0.0364
  633ERGO    R2 9103  18.033   2.896   9.251 -0.0778 -0.2158  0.0230
  633ERGO    R3 9104  17.831   3.059   9.169  0.0527 -0.0375  0.0536
  633ERGO    R4 9105  17.906   2.907   8.930 -0.1392 -0.1186  0.0508
  633ERGO    R5 9106  17.894   3.124   8.947  0.0620 -0.1086  0.0387
  633ERGO    C1 9107  17.644   3.067   8.665 -0.0525  0.1055  0.0958
  633ERGO    C2 9108  17.628   3.177   8.382  0.0857 -0.1499  0.1083
  634ERGO   ROH 9109   2.832  12.156   6.025 -0.1546  0.0154 -0.0424
  634ERGO    R1 9110   2.648  12.224   6.229 -0.2439 -0.0706 -0.0930
  634ERGO    R2 9111   2.491  12.036   6.357 -0.0024 -0.1836  0.0467
  634ERGO    R3 9112   2.602  12.144   6.581 -0.1361  0.1272 -0.0327
  634ERGO    R4 9113   2.313  12.178   6.617 -0.1742 -0.1210 -0.1041
  634ERGO    R5 9114   2.464  12.334   6.629 -0.3279  0.0395 -0.2220
  634ERGO    C1 9115   2.312  12.363   6.978 -0.3997  0.2072 -0.2665
  634ERGO    C2 9116   2.406  12.609   7.250 -0.0214  0.1809 -0.0231
  635ERGO   ROH 9117   3.586   9.310   6.423  0.0017  0.1617 -0.0670
  635ERGO    R1 9118   3.479   9.389   6.673 -0.1226  0.2044 -0.1332
  635ERGO    R2 9119   3.638   9.466   6.885 -0.2082 -0.1104  0.0516
  635ERGO    R3 9120   3.483   9.689   6.879  0.1088  0.1151 -0.0036
  635ERGO    R4 9121   3.572   9.669   7.158 -0.3054 -0.2239  0.1135
  635ERGO    R5 9122   3.366   9.687   7.088 -0.1909  0.1159 -0.1656
  635ERGO    C1 9123   3.388   9.996   7.310 -0.0642 -0.0783  0.0977
  635ERGO    C2 9124   3.444  10.250   7.468 -0.0181 -0.0850  0.1716
  636ERGO   ROH 9125   8.365   0.886   9.937 -0.0596 -0.2847 -0.2057
  636ERGO    R1 9126   8.284   0.996   9.689 -0.1756 -0.2777 -0.1645
  636ERGO    R2 9127   8.460   1.038   9.481 -0.2230 -0.0270 -0.1503
  636ERGO    R3 9128   8.280   0.889   9.341 -0.0770 -0.1572 -0.2051
  636ERGO    R4 9129   8.453   1.007   9.136 -0.2551  0.2020 -0.1720
  636ERGO    R5 9130   8.235   1.018   9.145 -0.2770 -0.0684 -0.1105
  636ERGO    C1 9131   8.280   0.850   8.805 -0.1366  0.2132 -0.2363
  636ERGO    C2 9132   8.318   0.714   8.507 -0.0759  0.1374  0.1586
  637ERGO   ROH 9133   9.669  12.997   9.459  0.1053  0.0023 -0.1169
  637ERGO    R1 9134   9.693  13.113   9.202  0.0329  0.0541 -0.1000
  637ERGO    R2 9135   9.865  13.014   9.009  0.0409  0.1454 -0.1372
  637ERGO    R3 9136   9.639  13.007   8.858  0.0246  0.0953 -0.1121
  637ERGO    R4 9137   9.857  13.028   8.664  0.0144 -0.0808 -0.1480
  637ERGO    R5 9138   9.683  13.158   8.678  0.0431 -0.0314 -0.2171
  637ERGO    C1 9139   9.640  13.030   8.321 -0.0161 -0.2595 -0.1306
  637ERGO    C2 9140   9.476  12.976   7.951 -0.3307  0.1327 -0.0957
  638ERGO   ROH 9141   1.928  17.662   9.642 -0.2455  0.0885  0.1053
  638ERGO    R1 9142   1.978  17.630   9.366  0.0495  0.1755  0.1445
  638ERGO    R2 9143   1.788  17.531   9.191  0.3562 -0.1404 -0.0261
  638ERGO    R3 9144   1.841  17.761   9.055  0.0944 -0.0428  0.0313
  638ERGO    R4 9145   1.698  17.591   8.863  0.2932 -0.1594 -0.0123
  638ERGO    R5 9146   1.892  17.687   8.832  0.1837  0.0721  0.0140
  638ERGO    C1 9147   1.695  17.841   8.544  0.0108 -0.0785  0.0494
  638ERGO    C2 9148   1.545  17.924   8.156 -0.4618 -0.2282 -0.0441
  639ERGO   ROH 9149   1.078  15.084   9.622  0.0144 -0.1177 -0.0076
  639ERGO    R1 9150   1.054  15.145   9.346  0.0909 -0.0548 -0.0009
  639ERGO    R2 9151   1.225  15.041   9.156  0.0196 -0.1752 -0.0022
  639ERGO    R3 9152   0.994  14.960   9.039 -0.0429  0.0423 -0.0337
  639ERGO    R4 9153   1.177  15.010   8.815  0.0183 -0.0823 -0.0105
  639ERGO    R5 9154   0.977  15.094   8.841  0.0881  0.0868 -0.0147
  639ERGO    C1 9155   0.931  14.915   8.507 -0.0411  0.1759 -0.0450
  639ERGO    C2 9156   0.804  14.871   8.323 -0.0131 -0.0857 -0.0429
  640ERGO   ROH 9157  11.109   5.522   6.726  0.1920 -0.2005  0.0339
  640ERGO    R1 9158  11.018   5.470   6.989  0.0372 -0.0522  0.0112
  640ERGO    R2 9159  11.160   5.315   7.168 -0.1346 -0.0693  0.1381
  640ERGO    R3 9160  11.136   5.535   7.327 -0.0857  0.0049  0.0432
  640ERGO    R4 9161  11.016   5.317   7.482 -0.3326  0.1454  0.0491
  640ERGO    R5 9162  10.923   5.508   7.434 -0.1714  0.1910 -0.0790
  640ERGO    C1 9163  10.910   5.523   7.815 -0.4019  0.3400 -0.0916
  640ERGO    C2 9164  10.668   5.549   8.099 -0.0914  0.1412  0.0882
  641ERGO   ROH 9165  14.353   0.781   6.408  0.0999  0.0702 -0.0854
  641ERGO    R1 9166  14.134   0.826   6.581  0.0762 -0.0300 -0.0881
  641ERGO    R2 9167  14.069   0.654   6.787  0.1362 -0.0742 -0.1056
  641ERGO    R3 9168  14.086   0.880   6.938  0.0442 -0.0806 -0.0849
  641ERGO    R4 9169  14.008   0.669   7.127 -0.2015 -0.0627 -0.1632
  641ERGO    R5 9170  13.906   0.859   7.095 -0.1206 -0.0354 -0.2638
  641ERGO    C1 9171  13.988   0.889   7.466 -0.4845 -0.0620 -0.1774
  641ERGO    C2 9172  14.005   0.910   7.730  0.1913 -0.1088  0.0409
  642ERGO   ROH 9173   1.412  16.517   9.764  0.0760 -0.0647  0.0800
  642ERGO    R1 9174   1.235  16.656   9.591 -0.1305 -0.1757  0.1981
  642ERGO    R2 9175   1.322  16.786   9.363 -0.3124  0.1847  0.3287
  642ERGO    R3 9176   1.134  16.632   9.242 -0.0585 -0.0036  0.1642
  642ERGO    R4 9177   1.228  16.814   9.032 -0.3816  0.4150  0.3659
  642ERGO    R5 9178   1.021  16.782   9.094 -0.3295 -0.0157  0.3499
  642ERGO    C1 9179   0.996  16.685   8.725 -0.1834  0.3725  0.2332
  642ERGO    C2 9180   0.926  16.748   8.439 -0.0480 -0.1417 -0.1140
  643ERGO   ROH 9181   5.038   7.820   9.921 -0.0918 -0.1097  0.1622
  643ERGO    R1 9182   5.149   7.754   9.669 -0.1803 -0.1647  0.1368
  643ERGO    R2 9183   4.998   7.651   9.462 -0.3144  0.0758  0.1095
  643ERGO    R3 9184   5.104   7.860   9.324 -0.0728 -0.0025  0.1719
  643ERGO    R4 9185   5.065   7.650   9.123 -0.0738  0.0176  0.1554
  643ERGO    R5 9186   5.250   7.757   9.164 -0.0291 -0.1078  0.2801
  643ERGO    C1 9187   5.203   7.845   8.796  0.2931 -0.0898  0.2409
  643ERGO    C2 9188   5.092   7.725   8.451 -0.0469  0.0939 -0.0618
  644ERGO   ROH 9189  13.798   4.574   6.112  0.0065  0.0310 -0.0151
  644ERGO    R1 9190  13.640   4.502   6.336 -0.0813  0.0891 -0.0568
  644ERGO    R2 9191  13.741   4.359   6.550 -0.2337 -0.1004 -0.1033
  644ERGO    R3 9192  13.644   4.568   6.694 -0.0423 -0.0613 -0.0303
  644ERGO    R4 9193  13.618   4.338   6.873 -0.0534 -0.0518 -0.0312
  644ERGO    R5 9194  13.460   4.476   6.817 -0.0143  0.0292  0.0742
  644ERGO    C1 9195  13.456   4.522   7.195  0.2311  0.0133  0.0793
  644ERGO    C2 9196  13.329   4.534   7.484 -0.1328  0.2992 -0.0614
  645ERGO   ROH 9197   5.127   7.810   6.334  0.0411  0.1203 -0.1264
  645ERGO    R1 9198   4.969   7.970   6.505  0.2586  0.3392 -0.1256
  645ERGO    R2 9199   4.804   7.863   6.699 -0.2027  0.5320 -0.4010
  645ERGO    R3 9200   4.943   8.029   6.863  0.0513  0.0348 -0.0851
  645ERGO    R4 9201   4.690   7.979   7.004 -0.2900  0.5750 -0.4489
  645ERGO    R5 9202   4.776   8.174   6.956  0.3015  0.4091 -0.1861
  645ERGO    C1 9203   4.755   8.203   7.336 -0.1025  0.1333 -0.1803
  645ERGO    C2 9204   4.745   8.253   7.730 -0.0226  0.0127 -0.0383
  646ERGO   ROH 9205   0.610   8.420   6.929  0.2105  0.1350  0.1547
  646ERGO    R1 9206   0.486   8.293   7.150  0.2532 -0.0138  0.0957
  646ERGO    R2 9207   0.565   8.338   7.411  0.0762  0.0801  0.1390
  646ERGO    R3 9208   0.302   8.398   7.446 -0.0133 -0.2288  0.0088
  646ERGO    R4 9209   0.397   8.320   7.712 -0.0490 -0.0901  0.0591
  646ERGO    R5 9210   0.226   8.237   7.606  0.0999 -0.3037 -0.0143
  646ERGO    C1 9211   0.052   8.365   7.920 -0.2060 -0.4794 -0.1098
  646ERGO    C2 9212  -0.063   8.247   8.307 -0.4578 -0.2638 -0.0411
  647ERGO   ROH 9213   0.016   9.956   6.378 -0.0664 -0.2597 -0.0769
  647ERGO    R1 9214  -0.117   9.943   6.628  0.0660 -0.0765  0.0043
  647ERGO    R2 9215  -0.284   9.734   6.697 -0.1628  0.1440  0.1117
  647ERGO    R3 9216  -0.121   9.717   6.914 -0.0556 -0.0598  0.0186
  647ERGO    R4 9217  -0.309   9.495   6.945 -0.2701  0.1095  0.0686
  647ERGO    R5 9218  -0.265   9.650   7.092 -0.0344  0.0439  0.0829
  647ERGO    C1 9219  -0.170   9.340   7.293 -0.2317 -0.1019 -0.0439
  647ERGO    C2 9220  -0.269   9.194   7.560  0.0315 -0.1244  0.1702
  648ERGO   ROH 9221   3.269  11.464   6.034 -0.3010 -0.0035 -0.0383
  648ERGO    R1 9222   3.214  11.377   6.298 -0.3158  0.0712 -0.0172
  648ERGO    R2 9223   3.408  11.363   6.493 -0.2513 -0.2065 -0.0999
  648ERGO    R3 9224   3.234  11.518   6.632  0.0241  0.0421 -0.0208
  648ERGO    R4 9225   3.266  11.278   6.797 -0.3124 -0.0579 -0.0852
  648ERGO    R5 9226   3.078  11.363   6.727 -0.2023  0.2591 -0.0207
  648ERGO    C1 9227   3.020  11.374   7.104 -0.0894  0.2621 -0.0024
  648ERGO    C2 9228   2.733  11.561   7.377  0.0345  0.1324  0.1617
  649ERGO   ROH 9229  16.232   0.771  10.139  0.1502  0.0085  0.1836
  649ERGO    R1 9230  16.209   0.648   9.885  0.0285 -0.1002  0.2462
  649ERGO    R2 9231  16.014   0.461   9.827 -0.2127  0.1245  0.3174
  649ERGO    R3 9232  15.960   0.629   9.621  0.0441  0.0896  0.2166
  649ERGO    R4 9233  15.916   0.361   9.511 -0.0634  0.0776  0.2847
  649ERGO    R5 9234  16.044   0.516   9.428  0.1018 -0.0391  0.3149
  649ERGO    C1 9235  15.807   0.461   9.134  0.2647  0.0175  0.1711
  649ERGO    C2 9236  15.564   0.377   8.788 -0.0755 -0.3142  0.0846
  650ERGO   ROH 9237  13.203   4.612   9.753 -0.0594 -0.1267  0.0282
  650ERGO    R1 9238  13.329   4.487   9.532  0.0060  0.0121 -0.0153
  650ERGO    R2 9239  13.189   4.407   9.306  0.0339 -0.0430 -0.0202
  650ERGO    R3 9240  13.374   4.560   9.178 -0.0929  0.1254 -0.0037
  650ERGO    R4 9241  13.261   4.390   8.969  0.0305  0.0854 -0.0270
  650ERGO    R5 9242  13.472   4.413   9.017  0.0121  0.2390 -0.0392
  650ERGO    C1 9243  13.476   4.523   8.652 -0.0906  0.3183 -0.0154
  650ERGO    C2 9244  13.582   4.462   8.374  0.2510  0.2872 -0.1923
  651ERGO   ROH 9245   1.228   6.006   6.354 -0.0168 -0.0442  0.1135
  651ERGO    R1 9246   1.136   5.864   6.582 -0.0349  0.0307  0.1524
  651ERGO    R2 9247   1.307   5.769   6.778 -0.0447  0.0369  0.1614
  651ERGO    R3 9248   1.143   5.911   6.943 -0.0006  0.1128  0.1418
  651ERGO    R4 9249   1.247   5.694   7.110 -0.1270  0.0584  0.1523
  651ERGO    R5 9250   1.038   5.745   7.079 -0.0997  0.1596  0.1241
  651ERGO    C1 9251   1.059   5.782   7.457 -0.1335  0.1421  0.1286
  651ERGO    C2 9252   0.987   6.058   7.642 -0.1130 -0.0735 -0.0327
  652ERGO   ROH 9253  12.641  11.523   9.489  0.4078 -0.0193  0.1898
  652ERGO    R1 9254  12.672  11.341   9.275  0.1862  0.1703 -0.0096
  652ERGO    R2 9255  12.696  11.424   9.012  0.2809  0.4282  0.0755
  652ERGO    R3 9256  12.923  11.274   9.020  0.1050  0.1445 -0.0825
  652ERGO    R4 9257  12.879  11.329   8.735  0.0806  0.3612 -0.0357
  652ERGO    R5 9258  12.908  11.133   8.827 -0.1273  0.2718 -0.1593
  652ERGO    C1 9259  13.199  11.133   8.580 -0.2011  0.0557 -0.2487
  652ERGO    C2 9260  13.306  11.253   8.245  0.0302  0.1788 -0.0968
  653ERGO   ROH 9261   2.120  14.245   9.612 -0.1236 -0.0890 -0.0667
  653ERGO    R1 9262   2.077  14.374   9.363 -0.1229 -0.0778 -0.0608
  653ERGO    R2 9263   2.278  14.504   9.227 -0.1443  0.0080 -0.0085
  653ERGO    R3 9264   2.202  14.341   9.023 -0.0478  0.0036 -0.0419
  653ERGO    R4 9265   2.306  14.582   8.891 -0.1392  0.0744  0.0070
  653ERGO    R5 9266   2.111  14.490   8.859 -0.0963 -0.0099 -0.0292
  653ERGO    C1 9267   2.251  14.473   8.504 -0.0456  0.1089 -0.0154
  653ERGO    C2 9268   2.337  14.370   8.184 -0.1541  0.2430  0.1862
  654ERGO   ROH 9269  16.844  17.910   6.131  0.1793 -0.1731  0.0962
  654ERGO    R1 9270  16.773  17.961   6.400  0.1650 -0.0538  0.0710
  654ERGO    R2 9271  16.620  17.786   6.549 -0.0111  0.1001  0.0829
  654ERGO    R3 9272  16.828  17.804   6.723 -0.0282 -0.0295  0.1162
  654ERGO    R4 9273  16.591  17.772   6.893 -0.0492 -0.0541  0.0732
  654ERGO    R5 9274  16.740  17.930   6.907 -0.0168 -0.0975  0.1652
  654ERGO    C1 9275  16.769  17.780   7.257 -0.0876 -0.2656  0.0988
  654ERGO    C2 9276  16.851  17.671   7.605  0.0437  0.0083 -0.2512
  655ERGO   ROH 9277   9.800   7.213   6.418  0.1296  0.1968 -0.1686
  655ERGO    R1 9278   9.884   7.289   6.678  0.2821  0.2491 -0.2319
  655ERGO    R2 9279   9.910   7.107   6.885 -0.1103  0.3640 -0.0710
  655ERGO    R3 9280  10.162   7.209   6.899  0.1165 -0.1501 -0.1597
  655ERGO    R4 9281  10.097   7.135   7.174 -0.0237  0.1668 -0.1058
  655ERGO    R5 9282  10.166   7.329   7.105  0.3836 -0.0160 -0.2400
  655ERGO    C1 9283  10.441   7.248   7.356  0.2397 -0.4307 -0.2094
  655ERGO    C2 9284  10.602   7.384   7.673  0.1410 -0.1594  0.0528
  656ERGO   ROH 9285   1.421   5.160   9.758 -0.1114 -0.0955 -0.0348
  656ERGO    R1 9286   1.580   5.205   9.529  0.1111 -0.2385  0.0882
  656ERGO    R2 9287   1.706   5.001   9.392 -0.2179 -0.3953  0.0155
  656ERGO    R3 9288   1.574   5.105   9.179  0.1035  0.0296  0.0080
  656ERGO    R4 9289   1.788   4.943   9.062 -0.3105 -0.5656  0.0206
  656ERGO    R5 9290   1.746   5.152   9.019  0.2844 -0.4193  0.0511
  656ERGO    C1 9291   1.711   5.006   8.668 -0.0625 -0.2659  0.0166
  656ERGO    C2 9292   1.720   4.732   8.313 -0.0503  0.0091  0.3648
  657ERGO   ROH 9293   2.525   3.395   9.778  0.0132 -0.1520  0.0649
  657ERGO    R1 9294   2.538   3.293   9.515 -0.0757 -0.0407  0.0172
  657ERGO    R2 9295   2.414   3.417   9.300  0.0891  0.2070  0.0636
  657ERGO    R3 9296   2.664   3.408   9.193  0.0929 -0.0285  0.0856
  657ERGO    R4 9297   2.484   3.379   8.964  0.0759  0.2910  0.0508
  657ERGO    R5 9298   2.648   3.246   9.017 -0.0793  0.0724  0.0039
  657ERGO    C1 9299   2.759   3.349   8.667  0.0717  0.1188  0.0639
  657ERGO    C2 9300   2.736   3.352   8.287 -0.3562  0.2845 -0.0970
  658ERGO   ROH 9301  10.184  14.410   9.160  0.0061  0.0993 -0.0690
  658ERGO    R1 9302  10.296  14.417   8.900 -0.0900  0.2149 -0.1082
  658ERGO    R2 9303  10.362  14.187   8.761  0.2251  0.2809 -0.0735
  658ERGO    R3 9304  10.204  14.297   8.569 -0.0164 -0.0120 -0.0490
  658ERGO    R4 9305  10.411  14.152   8.420  0.0929  0.1708 -0.0819
  658ERGO    R5 9306  10.356  14.362   8.396 -0.1842  0.0946 -0.1608
  658ERGO    C1 9307  10.290  14.235   8.042 -0.2108 -0.1684 -0.0637
  658ERGO    C2 9308  10.167  14.209   7.774 -0.0067  0.0001  0.1427
  659ERGO   ROH 9309   1.590   8.319   6.976  0.1128 -0.1301  0.0988
  659ERGO    R1 9310   1.619   8.212   7.236 -0.0816 -0.2133  0.0879
  659ERGO    R2 9311   1.569   8.360   7.464  0.0596 -0.1844  0.0999
  659ERGO    R3 9312   1.403   8.152   7.523 -0.2246  0.0161  0.0314
  659ERGO    R4 9313   1.427   8.303   7.774  0.1513 -0.2030  0.1390
  659ERGO    R5 9314   1.464   8.090   7.746 -0.1861 -0.2469 -0.0480
  659ERGO    C1 9315   1.189   8.075   8.010 -0.0621 -0.0257  0.0975
  659ERGO    C2 9316   1.016   7.923   8.258  0.3685  0.0534 -0.1697
  660ERGO   ROH 9317   7.132  13.739   8.927 -0.0868 -0.0898 -0.0171
  660ERGO    R1 9318   7.153  13.640   8.662 -0.1088  0.0475 -0.0707
  660ERGO    R2 9319   6.933  13.561   8.515 -0.1011 -0.0724 -0.0158
  660ERGO    R3 9320   7.031  13.738   8.333 -0.3243  0.0940  0.0204
  660ERGO    R4 9321   6.897  13.532   8.173  0.1132 -0.1703 -0.0311
  660ERGO    R5 9322   7.103  13.600   8.151  0.0112  0.1986  0.0642
  660ERGO    C1 9323   6.969  13.680   7.803  0.0283 -0.0710 -0.0061
  660ERGO    C2 9324   6.928  13.915   7.465  0.0283  0.1751  0.2695
  661ERGO   ROH 9325  12.897   0.356   6.596  0.0630  0.0671  0.1487
  661ERGO    R1 9326  13.041   0.405   6.835  0.1061 -0.0617  0.1505
  661ERGO    R2 9327  12.998   0.630   6.990  0.2123 -0.0890  0.2211
  661ERGO    R3 9328  12.961   0.446   7.187  0.1555 -0.1327  0.1700
  661ERGO    R4 9329  13.071   0.681   7.324  0.0655 -0.1434  0.2625
  661ERGO    R5 9330  13.148   0.477   7.333  0.0905 -0.1343  0.2547
  661ERGO    C1 9331  13.080   0.538   7.703 -0.0731 -0.2160  0.2387
  661ERGO    C2 9332  12.967   0.414   7.981  0.0742 -0.2547 -0.1184
  662ERGO   ROH 9333  10.678   8.838   9.850  0.2318 -0.3304  0.1712
  662ERGO    R1 9334  10.769   8.843   9.582  0.1307 -0.3255  0.1372
  662ERGO    R2 9335  10.749   8.624   9.413 -0.1829 -0.2351  0.0574
  662ERGO    R3 9336  10.622   8.802   9.251 -0.0480 -0.0258  0.1757
  662ERGO    R4 9337  10.754   8.615   9.068 -0.4251 -0.1865  0.0500
  662ERGO    R5 9338  10.772   8.833   9.067 -0.1221 -0.2042  0.0799
  662ERGO    C1 9339  10.638   8.777   8.715 -0.4396  0.0384  0.1568
  662ERGO    C2 9340  10.516   8.597   8.455  0.0262  0.0763  0.0173
  663ERGO   ROH 9341   8.898  17.991   6.423 -0.0916  0.1890  0.0423
  663ERGO    R1 9342   8.952  17.915   6.690  0.0284  0.2360  0.0319
  663ERGO    R2 9343   8.952  18.095   6.900 -0.1393  0.2294  0.0365
  663ERGO    R3 9344   8.774  17.921   7.008  0.0634  0.0297  0.0581
  663ERGO    R4 9345   8.819  18.121   7.217 -0.2719  0.1957 -0.0156
  663ERGO    R5 9346   8.838  17.905   7.238  0.0196  0.2246  0.0878
  663ERGO    C1 9347   8.574  17.973   7.504 -0.1590 -0.0113 -0.0256
  663ERGO    C2 9348   8.337  17.833   7.702 -0.1794  0.1513 -0.0849
  664ERGO   ROH 9349   3.817  16.327   9.516  0.1821 -0.3853 -0.1070
  664ERGO    R1 9350   3.789  16.277   9.239  0.1246 -0.1451 -0.1475
  664ERGO    R2 9351   3.565  16.355   9.095  0.0564 -0.0910 -0.0186
  664ERGO    R3 9352   3.750  16.477   8.937 -0.0271  0.1170  0.0419
  664ERGO    R4 9353   3.546  16.378   8.751  0.0619  0.0366 -0.0099
  664ERGO    R5 9354   3.760  16.340   8.741  0.0920  0.2062 -0.0134
  664ERGO    C1 9355   3.709  16.507   8.402 -0.0132  0.3062  0.0520
  664ERGO    C2 9356   3.929  16.586   8.199 -0.1535  0.1884  0.1687
  665ERGO   ROH 9357  11.607  18.227   9.881 -0.0371  0.0287 -0.0975
  665ERGO    R1 9358  11.549  18.300   9.614  0.0844  0.0433 -0.1197
  665ERGO    R2 9359  11.745  18.321   9.420  0.1448 -0.1538 -0.0786
  665ERGO    R3 9360  11.584  18.149   9.284  0.0228 -0.0319 -0.0928
  665ERGO    R4 9361  11.700  18.320   9.077  0.1602 -0.1033 -0.0813
  665ERGO    R5 9362  11.488  18.281   9.109  0.1268  0.0497 -0.0914
  665ERGO    C1 9363  11.524  18.157   8.750  0.0546  0.0408 -0.0963
  665ERGO    C2 9364  11.360  18.056   8.465  0.1589  0.0234 -0.1174
  666ERGO   ROH 9365  17.986  16.128   6.265 -0.0162 -0.0220 -0.0381
  666ERGO    R1 9366  18.109  16.049   6.508  0.0007 -0.0153 -0.0441
  666ERGO    R2 9367  18.191  16.231   6.699 -0.0087 -0.0105 -0.0427
  666ERGO    R3 9368  18.036  16.079   6.863  0.0106 -0.0286 -0.0414
  666ERGO    R4 9369  18.175  16.264   7.043  0.1305 -0.1403 -0.0226
  666ERGO    R5 9370  18.170  16.047   7.059  0.0744 -0.1432 -0.1045
  666ERGO    C1 9371  18.020  16.141   7.396  0.2296 -0.2324 -0.0098
  666ERGO    C2 9372  17.983  16.251   7.650  0.0821 -0.1392  0.0086
  667ERGO   ROH 9373  12.831   2.503   6.465  0.0547  0.0067  0.0277
  667ERGO    R1 9374  12.747   2.626   6.705  0.2435  0.1646  0.0160
  667ERGO    R2 9375  12.593   2.495   6.893 -0.1587  0.4834 -0.0752
  667ERGO    R3 9376  12.793   2.570   7.062 -0.0382 -0.0262  0.0257
  667ERGO    R4 9377  12.554   2.553   7.231 -0.1804  0.5608 -0.0909
  667ERGO    R5 9378  12.688   2.724   7.213  0.2687  0.2362 -0.0173
  667ERGO    C1 9379  12.718   2.657   7.587 -0.0799  0.1275 -0.0055
  667ERGO    C2 9380  12.873   2.798   7.868  0.0761 -0.0303 -0.1975
  668ERGO   ROH 9381  15.700   6.576   6.761 -0.1523  0.0166 -0.0105
  668ERGO    R1 9382  15.629   6.533   7.031 -0.0155 -0.0676  0.0131
  668ERGO    R2 9383  15.812   6.550   7.238  0.0889 -0.1289 -0.0722
  668ERGO    R3 9384  15.633   6.726   7.340  0.1371 -0.1621  0.0717
  668ERGO    R4 9385  15.827   6.685   7.555  0.2516 -0.2159 -0.0417
  668ERGO    R5 9386  15.611   6.663   7.569  0.2600 -0.2256  0.0662
  668ERGO    C1 9387  15.667   6.930   7.836  0.3916 -0.2977  0.1112
  668ERGO    C2 9388  15.723   6.940   8.128 -0.4116 -0.0354 -0.0850
  669ERGO   ROH 9389  11.492  17.376   6.323 -0.1244  0.0644 -0.0004
  669ERGO    R1 9390  11.552  17.529   6.554 -0.1535 -0.0396  0.0778
  669ERGO    R2 9391  11.636  17.791   6.541  0.0807 -0.0982  0.1951
  669ERGO    R3 9392  11.427  17.833   6.710 -0.0083  0.0294  0.0552
  669ERGO    R4 9393  11.608  18.059   6.758  0.1256 -0.1408  0.2538
  669ERGO    R5 9394  11.528  17.923   6.908 -0.0929 -0.1091  0.1532
  669ERGO    C1 9395  11.396  18.255   7.042  0.0680 -0.0456  0.1567
  669ERGO    C2 9396  11.203  18.585   7.000 -0.2404  0.1374 -0.3022
  670ERGO   ROH 9397   0.644   3.279  10.105 -0.0871 -0.1501  0.1791
  670ERGO    R1 9398   0.564   3.333   9.839 -0.3449 -0.1663  0.2510
  670ERGO    R2 9399   0.742   3.336   9.628 -0.4459  0.3716  0.1624
  670ERGO    R3 9400   0.568   3.157   9.520 -0.0960  0.0302  0.1410
  670ERGO    R4 9401   0.763   3.208   9.307 -0.2213  0.5038  0.1215
  670ERGO    R5 9402   0.546   3.225   9.292 -0.2718  0.0566  0.1617
  670ERGO    C1 9403   0.612   2.965   9.020  0.2380  0.2603  0.0776
  670ERGO    C2 9404   0.819   2.890   8.711 -0.1018 -0.1111 -0.1129
  671ERGO   ROH 9405   9.097   3.675   6.695 -0.1368  0.1104  0.1055
  671ERGO    R1 9406   9.190   3.855   6.894 -0.1602  0.0814  0.1439
  671ERGO    R2 9407   9.089   3.857   7.151 -0.0545 -0.0895  0.1912
  671ERGO    R3 9408   9.351   3.828   7.219 -0.0080  0.0351  0.0649
  671ERGO    R4 9409   9.208   3.827   7.474  0.1182 -0.0314  0.1331
  671ERGO    R5 9410   9.375   3.955   7.420  0.0302  0.0464  0.0513
  671ERGO    C1 9411   9.524   3.782   7.726  0.2625  0.1194 -0.0192
  671ERGO    C2 9412   9.496   3.599   7.880  0.1617 -0.0792 -0.6664
  672ERGO   ROH 9413   4.880   5.381   9.803  0.0928  0.1431  0.0119
  672ERGO    R1 9414   5.053   5.398   9.580  0.0527  0.1976 -0.0145
  672ERGO    R2 9415   5.075   5.196   9.392  0.2346  0.1181  0.0921
  672ERGO    R3 9416   5.017   5.396   9.218  0.0159 -0.0301 -0.0115
  672ERGO    R4 9417   5.192   5.214   9.068  0.2999  0.1290  0.1157
  672ERGO    R5 9418   5.221   5.429   9.096  0.0105  0.1846  0.0309
  672ERGO    C1 9419   5.206   5.413   8.715  0.1327 -0.0038  0.0321
  672ERGO    C2 9420   5.125   5.333   8.345 -0.1670 -0.3266 -0.2249
  673ERGO   ROH 9421  12.817   0.465  10.170  0.0396  0.1152 -0.0136
  673ERGO    R1 9422  12.845   0.532   9.897  0.1156  0.0537 -0.0220
  673ERGO    R2 9423  13.036   0.417   9.734  0.0068 -0.1637 -0.0060
  673ERGO    R3 9424  12.821   0.359   9.578 -0.0535  0.0345  0.0017
  673ERGO    R4 9425  13.038   0.413   9.388 -0.0338 -0.1124 -0.0064
  673ERGO    R5 9426  12.841   0.507   9.391  0.0457  0.0442  0.0245
  673ERGO    C1 9427  12.838   0.357   9.040 -0.1139  0.1034  0.0005
  673ERGO    C2 9428  12.905   0.517   8.781  0.1997 -0.0178  0.1055
  674ERGO   ROH 9429   1.224   5.950   9.982 -0.3708  0.1875 -0.0573
  674ERGO    R1 9430   1.078   6.054   9.763 -0.1884  0.2083 -0.1730
  674ERGO    R2 9431   1.193   6.213   9.568  0.0141  0.0917 -0.1570
  674ERGO    R3 9432   1.088   6.026   9.401  0.0081  0.0979 -0.1586
  674ERGO    R4 9433   1.226   6.215   9.224  0.1630 -0.0141 -0.1440
  674ERGO    R5 9434   1.018   6.151   9.209  0.1471  0.0743 -0.2202
  674ERGO    C1 9435   1.146   6.041   8.867  0.2440 -0.0699 -0.1377
  674ERGO    C2 9436   1.145   6.072   8.499  0.0277 -0.0141 -0.1834
  675PSPI    C1 9437   1.238   2.267   5.657 -0.2057 -0.1988  0.0437
  675PSPI    C2 9438   1.274   2.025   5.340  0.3347  0.1308 -0.1607
  675PSPI    C3 9439   1.136   2.398   5.293 -0.1573 -0.0088  0.0976
  675PSPI   PO4 9440   1.483   2.304   5.906 -0.0667 -0.2030  0.2214
  675PSPI   GL1 9441   1.440   2.399   6.286  0.2317  0.1839 -0.2677
  675PSPI   GL2 9442   1.327   2.209   6.478  0.2006  0.0366  0.3522
  675PSPI   C1A 9443   1.399   2.608   6.672 -0.0507 -0.1939 -0.1085
  675PSPI   C2A 9444   1.200   2.776   7.020 -0.2890 -0.3087  0.2174
  675PSPI   C3A 9445   0.999   3.174   7.264 -0.1043  0.0007 -0.0544
  675PSPI   C4A 9446   0.640   3.308   7.550 -0.3291  0.1241  0.0743
  675PSPI   C1B 9447   1.226   1.920   6.768 -0.1494  0.0941 -0.1883
  675PSPI   C2B 9448   1.226   1.875   7.224  0.0598  0.2789  0.0758
  675PSPI   C3B 9449   1.023   1.740   7.533  0.0248 -0.0907 -0.0955
  675PSPI   C4B 9450   0.976   1.734   7.918 -0.1889  0.0466 -0.0253
  676PSPI    C1 9451  15.441   6.373   5.488 -0.0202 -0.0103 -0.0729
  676PSPI    C2 9452  15.121   6.448   5.261 -0.0616 -0.2173 -0.0841
  676PSPI    C3 9453  15.334   6.751   5.411 -0.3264 -0.0767  0.0143
  676PSPI   PO4 9454  15.360   6.210   5.638  0.0719 -0.1590  0.2371
  676PSPI   GL1 9455  15.592   6.190   6.145 -0.0173  0.0718  0.2887
  676PSPI   GL2 9456  15.900   6.117   5.941  0.1861  0.1169  0.2989
  676PSPI   C1A 9457  15.969   6.164   6.522 -0.2402  0.0872 -0.2501
  676PSPI   C2A 9458  15.889   6.076   6.951 -0.1017 -0.0443 -0.0484
  676PSPI   C3A 9459  15.489   6.077   7.160  0.0026 -0.1629 -0.0456
  676PSPI   C4A 9460  15.170   6.329   7.498  0.0657  0.1596 -0.3428
  676PSPI   C1B 9461  15.832   5.731   6.213  0.1345 -0.4652 -0.0934
  676PSPI   C2B 9462  15.930   5.670   6.667  0.0685 -0.3101  0.1171
  676PSPI   C3B 9463  15.689   5.511   6.993  0.0105 -0.0274 -0.1896
  676PSPI   C4B 9464  15.865   5.457   7.517 -0.0401 -0.0725  0.1858
  677PSPI    C1 9465   9.327   4.933   5.761 -0.0359 -0.0502  0.0237
  677PSPI    C2 9466   9.204   4.568   5.651  0.1344 -0.0154 -0.2930
  677PSPI    C3 9467   9.221   4.864   5.381  0.0753  0.2072 -0.0567
  677PSPI   PO4 9468   9.411   4.963   6.028 -0.1727 -0.2548 -0.2171
  677PSPI   GL1 9469   9.351   4.924   6.460  0.0839  0.2340 -0.0903
  677PSPI   GL2 9470   9.458   4.657   6.476  0.0005 -0.1746  0.0480
  677PSPI   C1A 9471   9.516   5.095   6.764  0.0472 -0.2196  0.0281
  677PSPI   C2A 9472   9.603   5.196   7.204  0.2336 -0.0139 -0.1006
  677PSPI   C3A 9473   9.572   5.275   7.585 -0.3787  0.0920 -0.2012
  677PSPI   C4A 9474   9.442   5.366   8.004 -0.0792 -0.0216  0.1914
  677PSPI   C1B 9475   9.410   4.630   6.821  0.1399  0.2051 -0.2239
  677PSPI   C2B 9476   9.411   4.442   7.209 -0.0769 -0.1338  0.0069
  677PSPI   C3B 9477   9.355   4.463   7.596 -0.1998  0.1321  0.0558
  677PSPI   C4B 9478   9.498   4.518   8.070  0.1288  0.1528 -0.1338
  678PSPI    C1 9479   0.267   6.675   5.053 -0.0929  0.1779 -0.0053
  678PSPI    C2 9480   0.649   6.787   5.087 -0.0922  0.1323  0.1471
  678PSPI    C3 9481   0.558   6.407   5.001 -0.1013  0.1717 -0.0205
  678PSPI   PO4 9482   0.150   6.716   5.327 -0.0434  0.0918  0.0762
  678PSPI   GL1 9483   0.055   6.580   5.731  0.2843 -0.0403 -0.0866
  678PSPI   GL2 9484  -0.035   6.925   5.935 -0.1157  0.1717 -0.3890
  678PSPI   C1A 9485  -0.214   6.502   6.142 -0.0047  0.1058 -0.5157
  678PSPI   C2A 9486  -0.557   6.470   6.385  0.1137  0.1690  0.0417
  678PSPI   C3A 9487  -0.930   6.345   6.624 -0.2302 -0.0486 -0.3890
  678PSPI   C4A 9488  -1.303   6.454   6.473  0.0151 -0.0154 -0.3510
  678PSPI   C1B 9489  -0.046   6.979   6.455  0.0613 -0.2904 -0.1161
  678PSPI   C2B 9490  -0.329   6.746   6.689 -0.0101  0.2942  0.1477
  678PSPI   C3B 9491  -0.499   6.397   7.095 -0.1097 -0.0697 -0.2399
  678PSPI   C4B 9492  -0.410   6.251   7.444  0.1031  0.0085  0.1891
  679PSPI    C1 9493   2.200   8.284   6.195  0.0840 -0.2959 -0.0217
  679PSPI    C2 9494   2.087   8.331   5.814  0.1586 -0.0274 -0.0128
  679PSPI    C3 9495   2.053   7.974   5.990 -0.0718 -0.1035 -0.2063
  679PSPI   PO4 9496   2.155   8.523   6.354 -0.3032 -0.0296 -0.0606
  679PSPI   GL1 9497   2.033   8.772   6.670 -0.1066  0.1307 -0.4011
  679PSPI   GL2 9498   1.779   8.689   6.710 -0.1896  0.1183 -0.0142
  679PSPI   C1A 9499   2.352   8.694   6.990 -0.1193 -0.0212  0.3045
  679PSPI   C2A 9500   2.704   8.801   7.128  0.1432  0.3303 -0.0680
  679PSPI   C3A 9501   3.070   8.779   7.406  0.1412  0.1390  0.1627
  679PSPI   C4A 9502   3.388   8.837   7.574  0.1978 -0.2684 -0.1707
  679PSPI   C1B 9503   1.889   8.795   7.129  0.0804 -0.0267 -0.0581
  679PSPI   C2B 9504   1.697   9.167   7.368  0.0420  0.0427 -0.2470
  679PSPI   C3B 9505   1.866   9.405   7.702  0.2012 -0.0079 -0.1461
  679PSPI   C4B 9506   2.191   9.619   7.993  0.0206 -0.2399  0.3415
  680PSPI    C1 9507   4.260  10.720   5.447  0.0869  0.0095  0.0159
  680PSPI    C2 9508   4.234  11.104   5.340  0.1017  0.0057 -0.0012
  680PSPI    C3 9509   3.928  10.928   5.526  0.0992  0.0288  0.0166
  680PSPI   PO4 9510   4.453  10.691   5.610 -0.0335  0.3507  0.1560
  680PSPI   GL1 9511   4.618  10.872   5.985 -0.2396 -0.3030  0.1968
  680PSPI   GL2 9512   4.911  10.843   5.873 -0.0789  0.0171  0.1319
  680PSPI   C1A 9513   4.736  10.824   6.338  0.1902  0.0004  0.3244
  680PSPI   C2A 9514   4.768  10.939   6.758 -0.1538 -0.1389 -0.2431
  680PSPI   C3A 9515   4.846  10.965   7.210  0.0562 -0.0524 -0.0823
  680PSPI   C4A 9516   4.828  11.072   7.529 -0.3281  0.0029 -0.3645
  680PSPI   C1B 9517   5.124  11.163   6.195 -0.0010  0.1390 -0.1120
  680PSPI   C2B 9518   5.269  11.287   6.584  0.0052 -0.1408  0.2683
  680PSPI   C3B 9519   5.295  11.459   6.996 -0.0991 -0.1811 -0.1465
  680PSPI   C4B 9520   5.116  11.519   7.441  0.1213  0.0252  0.0067
  681PSPI    C1 9521  17.449   2.237   5.811 -0.0394 -0.2002  0.0226
  681PSPI    C2 9522  17.232   2.432   5.537  0.1201  0.0681  0.0834
  681PSPI    C3 9523  17.147   2.051   5.625 -0.0120  0.0176 -0.2468
  681PSPI   PO4 9524  17.483   2.409   6.034 -0.3262  0.2358  0.3101
  681PSPI   GL1 9525  17.346   2.316   6.443  0.3827 -0.3113  0.3180
  681PSPI   GL2 9526  17.633   2.170   6.490 -0.3610 -0.0264  0.0682
  681PSPI   C1A 9527  17.178   2.003   6.627 -0.0294  0.0568  0.1564
  681PSPI   C2A 9528  16.923   1.981   6.993 -0.0190 -0.1112  0.0494
  681PSPI   C3A 9529  16.799   2.106   7.426 -0.0816  0.1146  0.0030
  681PSPI   C4A 9530  16.634   2.082   7.792 -0.3379 -0.1481  0.0258
  681PSPI   C1B 9531  17.545   2.153   6.981 -0.0067 -0.2126  0.2658
  681PSPI   C2B 9532  17.744   2.086   7.368  0.0146 -0.1986 -0.1078
  681PSPI   C3B 9533  17.728   1.708   7.735  0.1872 -0.1518  0.0667
  681PSPI   C4B 9534  17.693   1.857   8.187 -0.2481 -0.0479  0.1087
  682PSPI    C1 9535   4.838   7.467   5.679  0.1945 -0.1219 -0.0846
  682PSPI    C2 9536   5.011   7.185   5.454  0.0546 -0.1948 -0.1016
  682PSPI    C3 9537   4.654   7.333   5.350  0.1536  0.0315 -0.1250
  682PSPI   PO4 9538   4.890   7.454   5.951  0.0277  0.0744 -0.1271
  682PSPI   GL1 9539   4.678   7.523   6.326  0.0394  0.0895 -0.0025
  682PSPI   GL2 9540   4.459   7.598   6.081 -0.2598 -0.1296  0.1059
  682PSPI   C1A 9541   4.718   7.183   6.689 -0.1413 -0.2735  0.0372
  682PSPI   C2A 9542   4.754   7.243   7.070  0.2372  0.0821 -0.0535
  682PSPI   C3A 9543   4.791   7.125   7.538  0.0255 -0.0737  0.0290
  682PSPI   C4A 9544   5.053   6.945   7.849  0.1462 -0.0564  0.4251
  682PSPI   C1B 9545   4.346   7.790   6.577  0.1349 -0.1588  0.0235
  682PSPI   C2B 9546   4.408   7.581   6.978  0.1391 -0.1848  0.0526
  682PSPI   C3B 9547   4.359   7.315   7.413 -0.0210 -0.3045  0.0113
  682PSPI   C4B 9548   4.323   6.908   7.517 -0.0571 -0.2126  0.1659
  683PSPI    C1 9549  17.293   9.627   5.929  0.2302  0.1248  0.2882
  683PSPI    C2 9550  16.948   9.821   5.990  0.0979  0.0278 -0.1182
  683PSPI    C3 9551  17.296  10.014   6.029 -0.0171  0.2367 -0.1110
  683PSPI   PO4 9552  17.337   9.442   6.085  0.0658  0.0608  0.0518
  683PSPI   GL1 9553  17.144   9.432   6.400  0.2798  0.0323  0.0802
  683PSPI   GL2 9554  16.826   9.519   6.414  0.1009 -0.2885  0.1599
  683PSPI   C1A 9555  17.029   9.172   6.783 -0.5234  0.0858  0.0582
  683PSPI   C2A 9556  16.960   9.185   7.194 -0.0674 -0.1135  0.4036
  683PSPI   C3A 9557  17.062   9.544   7.464 -0.0289 -0.3190  0.2977
  683PSPI   C4A 9558  17.180   9.709   7.799 -0.1366 -0.0905 -0.1614
  683PSPI   C1B 9559  16.945   9.644   6.876 -0.0436 -0.0390  0.1162
  683PSPI   C2B 9560  17.174  10.011   7.087 -0.1013 -0.0081  0.0779
  683PSPI   C3B 9561  17.338  10.045   7.456 -0.2073  0.1307 -0.0152
  683PSPI   C4B 9562  17.625   9.986   7.761  0.1009  0.0628  0.2994
  684PSPI    C1 9563  11.486  11.526   5.433  0.1238  0.0038 -0.0638
  684PSPI    C2 9564  11.704  11.290   5.670  0.1272 -0.1275 -0.1964
  684PSPI    C3 9565  11.861  11.434   5.332 -0.0214 -0.3021 -0.3419
  684PSPI   PO4 9566  11.387  11.724   5.623 -0.0048  0.1102 -0.0054
  684PSPI   GL1 9567  11.538  11.702   6.127  0.1156 -0.4456 -0.0483
  684PSPI   GL2 9568  11.929  11.746   6.069  0.0516  0.0463  0.7449
  684PSPI   C1A 9569  11.539  11.921   6.556 -0.1375  0.2578 -0.0527
  684PSPI   C2A 9570  11.449  12.111   6.865  0.0411 -0.2893 -0.1780
  684PSPI   C3A 9571  11.438  12.172   7.292 -0.1429  0.0224  0.2673
  684PSPI   C4A 9572  11.179  11.985   7.714 -0.4794 -0.1544  0.0208
  684PSPI   C1B 9573  12.157  11.923   6.371  0.0333 -0.2846  0.1579
  684PSPI   C2B 9574  12.126  12.164   6.738 -0.0458 -0.0077  0.0462
  684PSPI   C3B 9575  11.878  12.312   7.043  0.3727 -0.1222 -0.3744
  684PSPI   C4B 9576  11.819  12.639   7.378 -0.2490  0.2505 -0.0447
  685PSPI    C1 9577  10.257   6.248   5.873  0.1107  0.0508 -0.0043
  685PSPI    C2 9578  10.128   6.075   5.536  0.1658 -0.1231  0.0629
  685PSPI    C3 9579  10.485   6.254   5.545 -0.0096  0.2442 -0.0862
  685PSPI   PO4 9580  10.215   6.074   6.056  0.0165 -0.0768 -0.0393
  685PSPI   GL1 9581  10.036   6.172   6.449 -0.1822 -0.5347 -0.3647
  685PSPI   GL2 9582   9.856   5.927   6.634 -0.1990 -0.2661 -0.2089
  685PSPI   C1A 9583   9.983   6.587   6.636 -0.0118 -0.1363  0.0528
  685PSPI   C2A 9584   9.888   6.605   7.100 -0.0862  0.0892  0.0638
  685PSPI   C3A 9585  10.177   6.742   7.432  0.2166  0.1285  0.0291
  685PSPI   C4A 9586  10.181   6.917   7.829 -0.0106  0.0823 -0.0214
  685PSPI   C1B 9587   9.860   6.066   6.967  0.2793  0.2040  0.0570
  685PSPI   C2B 9588   9.768   6.149   7.455  0.3251 -0.2058  0.0272
  685PSPI   C3B 9589   9.677   6.136   7.922 -0.4685  0.4043  0.2811
  685PSPI   C4B 9590   9.334   6.301   8.173 -0.2480  0.1754 -0.0002
  686PSPI    C1 9591  17.568   1.767   5.658  0.2760 -0.1524  0.0562
  686PSPI    C2 9592  17.959   1.684   5.668  0.2976 -0.0524  0.0479
  686PSPI    C3 9593  17.757   1.652   5.324  0.2533 -0.3065  0.0954
  686PSPI   PO4 9594  17.506   1.657   5.970 -0.3425  0.0293 -0.2374
  686PSPI   GL1 9595  17.757   1.599   6.281  0.4792 -0.2481  0.1847
  686PSPI   GL2 9596  17.644   1.268   6.270  0.1717 -0.0174  0.0178
  686PSPI   C1A 9597  17.575   1.679   6.667 -0.1204 -0.2518  0.1575
  686PSPI   C2A 9598  17.538   1.623   7.104 -0.3699  0.1443 -0.1572
  686PSPI   C3A 9599  17.663   1.277   7.397 -0.0863  0.0509 -0.0715
  686PSPI   C4A 9600  17.579   0.933   7.756  0.1316  0.2568 -0.0078
  686PSPI   C1B 9601  17.837   1.183   6.656  0.1025  0.3240  0.0416
  686PSPI   C2B 9602  18.062   1.107   7.026  0.1676  0.1960  0.0818
  686PSPI   C3B 9603  18.342   0.766   7.193 -0.1552 -0.0173 -0.1665
  686PSPI   C4B 9604  18.770   0.695   7.152  0.1861  0.3135  0.1501
  687PSPI    C1 9605  17.288  14.378   5.817  0.1599  0.1159  0.1140
  687PSPI    C2 9606  17.064  14.709   5.827  0.0345  0.0329  0.0814
  687PSPI    C3 9607  17.185  14.559   5.476  0.1543  0.0852  0.0994
  687PSPI   PO4 9608  17.223  14.335   6.063  0.0069 -0.0030 -0.1510
  687PSPI   GL1 9609  17.449  14.080   6.303  0.2293  0.3012  0.0011
  687PSPI   GL2 9610  17.767  13.870   6.296  0.3648 -0.0017  0.1247
  687PSPI   C1A 9611  17.527  14.102   6.729 -0.2349 -0.1992  0.0366
  687PSPI   C2A 9612  17.487  13.940   7.091 -0.1532  0.3947 -0.0650
  687PSPI   C3A 9613  17.374  14.005   7.521  0.0891 -0.1456 -0.0020
  687PSPI   C4A 9614  17.471  13.816   7.952 -0.3678  0.0420 -0.1235
  687PSPI   C1B 9615  17.848  13.713   6.645  0.0323  0.1082 -0.0468
  687PSPI   C2B 9616  17.866  13.619   7.018 -0.0182 -0.0710 -0.0798
  687PSPI   C3B 9617  17.848  13.792   7.442  0.0154 -0.4900  0.0123
  687PSPI   C4B 9618  17.935  13.932   7.846 -0.0405  0.0894  0.0179
  688PSPI    C1 9619   2.327   2.474   5.803  0.1577  0.0583 -0.0548
  688PSPI    C2 9620   2.701   2.481   5.661  0.1645  0.0503 -0.0372
  688PSPI    C3 9621   2.498   2.137   5.671  0.2365  0.0119  0.1607
  688PSPI   PO4 9622   2.351   2.470   6.043  0.1262  0.1648 -0.0592
  688PSPI   GL1 9623   1.898   2.426   6.268 -0.1542  0.3006 -0.2029
  688PSPI   GL2 9624   1.841   2.126   6.420  0.2281 -0.2279  0.1373
  688PSPI   C1A 9625   1.984   2.574   6.718 -0.0649 -0.0614 -0.0329
  688PSPI   C2A 9626   1.772   2.770   7.080  0.1315 -0.1576  0.3000
  688PSPI   C3A 9627   1.860   2.763   7.455 -0.3007  0.1559  0.0332
  688PSPI   C4A 9628   2.067   2.693   7.767  0.2600  0.1199 -0.3032
  688PSPI   C1B 9629   1.663   2.177   6.861  0.4929 -0.3322 -0.2432
  688PSPI   C2B 9630   1.666   2.281   7.364 -0.1981  0.3889 -0.0476
  688PSPI   C3B 9631   1.617   1.851   7.648  0.0185 -0.0140  0.0686
  688PSPI   C4B 9632   1.538   1.588   8.126 -0.0606  0.3571 -0.0454
  689PSPI    C1 9633   6.717  16.094   5.217 -0.2311  0.0116  0.3232
  689PSPI    C2 9634   6.604  16.471   5.142 -0.1152  0.0488  0.3334
  689PSPI    C3 9635   6.338  16.173   5.118 -0.1211  0.0800 -0.0639
  689PSPI   PO4 9636   6.780  16.105   5.529  0.2287 -0.1354 -0.1007
  689PSPI   GL1 9637   6.704  15.911   5.895  0.3515  0.1321 -0.2038
  689PSPI   GL2 9638   6.423  15.839   6.022  0.3980  0.0689  0.0506
  689PSPI   C1A 9639   6.939  15.899   6.266  0.0001  0.0482  0.2558
  689PSPI   C2A 9640   7.128  15.870   6.691 -0.1535  0.2398 -0.2570
  689PSPI   C3A 9641   7.347  15.833   7.027 -0.1222  0.0708 -0.0273
  689PSPI   C4A 9642   7.715  15.781   7.300  0.0848  0.1340 -0.0054
  689PSPI   C1B 9643   6.508  15.821   6.543  0.2967  0.0710  0.1505
  689PSPI   C2B 9644   6.221  15.771   6.818  0.4833  0.6122 -0.2261
  689PSPI   C3B 9645   5.991  15.934   7.236  0.0049  0.2093  0.0198
  689PSPI   C4B 9646   5.732  16.227   7.396  0.1014  0.3094 -0.1616
  690PSPI    C1 9647  17.904  16.387   5.369  0.1215  0.0723  0.0467
  690PSPI    C2 9648  17.786  16.045   5.538  0.2621  0.0075  0.0161
  690PSPI    C3 9649  18.003  16.037   5.202  0.2273  0.1283 -0.0097
  690PSPI   PO4 9650  17.887  16.527   5.566 -0.3148 -0.3715  0.0221
  690PSPI   GL1 9651  17.811  16.486   5.954 -0.0146  0.1672  0.0375
  690PSPI   GL2 9652  17.531  16.350   6.199  0.0758  0.0901  0.0069
  690PSPI   C1A 9653  17.936  16.721   6.382  0.1579 -0.1930 -0.2854
  690PSPI   C2A 9654  18.083  16.742   6.766  0.2428 -0.1323 -0.0788
  690PSPI   C3A 9655  18.118  16.805   7.150  0.2332 -0.3175 -0.1434
  690PSPI   C4A 9656  18.374  16.582   7.378  0.0477 -0.0554 -0.1972
  690PSPI   C1B 9657  17.669  16.417   6.643 -0.1671 -0.0121  0.1624
  690PSPI   C2B 9658  17.741  16.429   7.029 -0.1443 -0.0858  0.3856
  690PSPI   C3B 9659  17.631  16.567   7.485  0.5215  0.0467 -0.0878
  690PSPI   C4B 9660  17.498  16.388   7.870  0.1069  0.1185 -0.1302
  691PSPI    C1 9661  16.804  13.427   5.667 -0.0202  0.0150  0.1882
  691PSPI    C2 9662  16.678  13.059   5.572  0.0423 -0.0373  0.3059
  691PSPI    C3 9663  16.471  13.379   5.450  0.1075 -0.1032  0.0157
  691PSPI   PO4 9664  16.886  13.420   5.959  0.0015 -0.4737  0.0297
  691PSPI   GL1 9665  16.841  13.556   6.297 -0.2133 -0.2094  0.2356
  691PSPI   GL2 9666  17.026  13.314   6.435 -0.0609  0.2978 -0.2603
  691PSPI   C1A 9667  16.701  13.642   6.778 -0.1243  0.0826  0.1658
  691PSPI   C2A 9668  16.502  13.751   7.105  0.4440  0.3335  0.2076
  691PSPI   C3A 9669  16.596  13.488   7.469 -0.1471  0.2483  0.0521
  691PSPI   C4A 9670  16.540  13.363   7.905  0.0222 -0.1854 -0.2407
  691PSPI   C1B 9671  17.039  13.299   6.810  0.2210  0.0606  0.4929
  691PSPI   C2B 9672  16.972  13.219   7.200 -0.0484  0.2307  0.1148
  691PSPI   C3B 9673  16.961  13.200   7.569  0.3040  0.0539 -0.3376
  691PSPI   C4B 9674  17.114  13.135   8.006 -0.1806  0.0415 -0.0534
  692PSPI    C1 9675  11.971   9.915   5.810  0.1517  0.0723 -0.1716
  692PSPI    C2 9676  11.837   9.700   5.501  0.1101  0.1853 -0.2329
  692PSPI    C3 9677  12.202   9.862   5.488  0.2152 -0.0372 -0.1085
  692PSPI   PO4 9678  11.911   9.791   5.983  0.0298  0.2032  0.2587
  692PSPI   GL1 9679  11.691   9.797   6.309  0.0072 -0.3118  0.0190
  692PSPI   GL2 9680  11.839  10.049   6.445  0.1317  0.2855  0.1085
  692PSPI   C1A 9681  11.840   9.681   6.713  0.3880 -0.0586 -0.1362
  692PSPI   C2A 9682  11.773   9.704   7.078 -0.1423  0.2376  0.2012
  692PSPI   C3A 9683  11.619   9.799   7.537  0.1847  0.1971 -0.1044
  692PSPI   C4A 9684  11.214   9.607   7.483  0.1527 -0.1499 -0.2217
  692PSPI   C1B 9685  11.879  10.197   6.876 -0.1555 -0.2687 -0.2061
  692PSPI   C2B 9686  11.842  10.215   7.302  0.0436  0.0136  0.4393
  692PSPI   C3B 9687  11.584  10.309   7.548 -0.1831 -0.0166  0.0588
  692PSPI   C4B 9688  11.508  10.520   7.997 -0.2135 -0.1689 -0.1782
  693PSPI    C1 9689   7.860   5.684   5.794  0.2529  0.1185 -0.0521
  693PSPI    C2 9690   8.080   5.397   5.622  0.0582  0.0214 -0.1419
  693PSPI    C3 9691   7.714   5.480   5.482 -0.0773 -0.0125  0.1816
  693PSPI   PO4 9692   7.891   5.585   6.034 -0.1108  0.0200 -0.0430
  693PSPI   GL1 9693   8.015   5.882   6.397 -0.1294  0.2323 -0.1041
  693PSPI   GL2 9694   7.889   5.642   6.621  0.0285 -0.0609 -0.1419
  693PSPI   C1A 9695   7.935   6.156   6.814  0.1301 -0.0118  0.1297
  693PSPI   C2A 9696   8.165   6.446   7.148  0.2114 -0.2308  0.1568
  693PSPI   C3A 9697   8.244   6.734   7.440 -0.2904  0.1951  0.2165
  693PSPI   C4A 9698   8.272   7.128   7.629  0.0567 -0.3874  0.1000
  693PSPI   C1B 9699   7.698   5.678   7.000 -0.2648  0.0724  0.0100
  693PSPI   C2B 9700   7.453   5.758   7.362  0.1954 -0.3738 -0.0558
  693PSPI   C3B 9701   7.179   5.740   7.752  0.0970 -0.0349  0.3041
  693PSPI   C4B 9702   6.834   5.821   8.144  0.2441  0.2277 -0.1322
  694PSPI    C1 9703  10.371   3.511   5.626  0.1318 -0.1598 -0.0185
  694PSPI    C2 9704  10.159   3.788   5.432 -0.0067 -0.1694  0.1173
  694PSPI    C3 9705  10.071   3.401   5.386 -0.0680 -0.1695  0.2317
  694PSPI   PO4 9706  10.456   3.615   5.914 -0.1230 -0.1569  0.1089
  694PSPI   GL1 9707  10.426   3.790   6.364 -0.0787 -0.0126 -0.1668
  694PSPI   GL2 9708  10.510   3.431   6.402 -0.0765  0.0736 -0.0193
  694PSPI   C1A 9709  10.719   3.805   6.690  0.0748  0.1623 -0.1368
  694PSPI   C2A 9710  10.721   3.745   7.127  0.3334 -0.2883 -0.1053
  694PSPI   C3A 9711  10.946   3.796   7.500 -0.1085 -0.0280  0.2459
  694PSPI   C4A 9712  10.891   4.059   7.818  0.0372 -0.2153  0.1248
  694PSPI   C1B 9713  10.348   3.509   6.844  0.0514 -0.1642  0.0294
  694PSPI   C2B 9714  10.167   3.339   7.223  0.4560 -0.4473 -0.1914
  694PSPI   C3B 9715   9.988   2.998   7.457 -0.4471  0.0261  0.1801
  694PSPI   C4B 9716  10.152   2.802   7.802  0.1185 -0.2287 -0.1072
  695POPI    C1 9717  15.184   1.006   5.912 -0.0901 -0.2326 -0.2571
  695POPI    C2 9718  15.128   1.309   6.167  0.1662 -0.1851 -0.2549
  695POPI    C3 9719  14.931   1.302   5.819  0.0973 -0.0583 -0.2190
  695POPI   PO4 9720  15.140   0.830   6.083  0.4375  0.0362  0.3709
  695POPI   GL1 9721  14.805   0.579   6.371  0.1729  0.1654  0.0146
  695POPI   GL2 9722  14.941   0.846   6.589  0.0458  0.1029  0.1220
  695POPI   C1A 9723  14.529   0.505   6.791 -0.0279  0.1812  0.3769
  695POPI   D2A 9724  14.510   0.638   7.134 -0.1486 -0.2190 -0.2217
  695POPI   C3A 9725  14.411   1.069   7.283 -0.1371  0.1246 -0.2283
  695POPI   C4A 9726  14.503   1.304   7.677 -0.0455 -0.2714 -0.0020
  695POPI   C1B 9727  14.547   0.998   6.773 -0.0592  0.1398 -0.5139
  695POPI   C2B 9728  14.415   1.341   6.790  0.0663  0.0471 -0.1453
  695POPI   C3B 9729  14.546   1.578   7.105 -0.0211 -0.2085 -0.0428
  695POPI   C4B 9730  14.266   1.962   7.122 -0.0788 -0.2853  0.0083
  696POPI    C1 9731   2.458   4.579   5.624 -0.0888  0.0357 -0.0698
  696POPI    C2 9732   2.128   4.532   5.402  0.0464  0.0989 -0.2866
  696POPI    C3 9733   2.416   4.254   5.394 -0.0849 -0.0530  0.0534
  696POPI   PO4 9734   2.416   4.828   5.754  0.1228 -0.1454  0.1469
  696POPI   GL1 9735   2.603   4.810   6.189  0.0454 -0.1057 -0.2258
  696POPI   GL2 9736   2.740   4.624   6.316 -0.0313  0.2413  0.3660
  696POPI   C1A 9737   2.514   5.020   6.590 -0.0488  0.2502  0.1308
  696POPI   D2A 9738   2.434   4.957   6.943  0.0617  0.0215 -0.0849
  696POPI   C3A 9739   2.585   4.868   7.332 -0.0677  0.0169  0.0354
  696POPI   C4A 9740   2.552   4.724   7.722  0.0902  0.0819  0.1557
  696POPI   C1B 9741   2.541   4.518   6.706 -0.1258  0.0346 -0.0477
  696POPI   C2B 9742   2.435   4.399   7.101  0.2363 -0.3984 -0.1028
  696POPI   C3B 9743   2.225   4.208   7.517 -0.2960 -0.1691 -0.0610
  696POPI   C4B 9744   1.929   4.043   7.706 -0.0199  0.3390 -0.2903
  697POPI    C1 9745   9.068   9.401   5.919  0.0137  0.0370 -0.2344
  697POPI    C2 9746   9.062   9.307   5.530 -0.0401  0.1776 -0.2681
  697POPI    C3 9747   8.834   9.605   5.667 -0.0671  0.0887 -0.1180
  697POPI   PO4 9748   9.403   9.321   6.081 -0.2787 -0.0725  0.1858
  697POPI   GL1 9749   9.357   9.305   6.475 -0.1021  0.1230  0.0006
  697POPI   GL2 9750   9.252   9.007   6.460  0.4058 -0.1914 -0.0854
  697POPI   C1A 9751   9.342   9.536   6.792 -0.0631 -0.1173 -0.0279
  697POPI   D2A 9752   9.444  10.003   7.032  0.1755 -0.0822  0.0371
  697POPI   C3A 9753   9.137  10.123   7.352 -0.0426 -0.0697  0.1622
  697POPI   C4A 9754   8.893   9.865   7.612  0.1032 -0.0893 -0.0074
  697POPI   C1B 9755   9.240   9.087   6.879 -0.1411 -0.0473 -0.0748
  697POPI   C2B 9756   9.090   8.999   7.265 -0.1742 -0.0642  0.0245
  697POPI   C3B 9757   9.128   8.939   7.735  0.1412  0.1239  0.0451
  697POPI   C4B 9758   8.813   9.120   8.071  0.0128  0.0371  0.0984
  698POPI    C1 9759  12.076  18.072   5.779  0.0073 -0.0797  0.0859
  698POPI    C2 9760  12.052  17.675   5.742 -0.0277 -0.0896  0.2092
  698POPI    C3 9761  12.143  17.900   5.424 -0.1059 -0.1878  0.1164
  698POPI   PO4 9762  12.080  18.114   6.048  0.0913 -0.0102 -0.2825
  698POPI   GL1 9763  11.997  18.151   6.475  0.0689  0.1059 -0.0561
  698POPI   GL2 9764  11.744  18.429   6.384 -0.0482 -0.1758  0.0552
  698POPI   C1A 9765  12.035  18.217   6.968 -0.2011  0.0557 -0.0825
  698POPI   D2A 9766  11.866  18.152   7.308 -0.1732 -0.1918 -0.1767
  698POPI   C3A 9767  11.629  18.569   7.444  0.1086 -0.3967 -0.1366
  698POPI   C4A 9768  11.254  18.761   7.717 -0.1131 -0.0085  0.2422
  698POPI   C1B 9769  11.713  18.567   6.789 -0.0569 -0.1378  0.2642
  698POPI   C2B 9770  12.033  18.831   7.019  0.1551 -0.3516 -0.1110
  698POPI   C3B 9771  12.105  18.971   7.465 -0.0671  0.3205 -0.0668
  698POPI   C4B 9772  12.147  18.941   7.883  0.0003  0.0718 -0.2666
  699POPI    C1 9773   7.159   4.873   5.929 -0.3327 -0.3486  0.2386
  699POPI    C2 9774   7.344   4.908   6.282  0.1334  0.1670 -0.0403
  699POPI    C3 9775   7.333   4.554   6.096  0.1816 -0.0337  0.3297
  699POPI   PO4 9776   7.102   5.184   5.940  0.0719 -0.0970  0.0084
  699POPI   GL1 9777   6.990   5.391   6.369  0.2228  0.1280 -0.0324
  699POPI   GL2 9778   6.674   5.169   6.370 -0.1977  0.3714 -0.0165
  699POPI   C1A 9779   6.940   5.715   6.696 -0.2792  0.0320 -0.1114
  699POPI   D2A 9780   7.023   5.684   7.104  0.1783  0.0747  0.0768
  699POPI   C3A 9781   6.936   5.370   7.480  0.1138  0.2649 -0.0665
  699POPI   C4A 9782   6.855   5.376   7.846  0.1713  0.2678  0.4283
  699POPI   C1B 9783   6.627   5.217   6.747  0.0002  0.0186  0.0137
  699POPI   C2B 9784   6.593   5.385   7.082  0.0589  0.2894 -0.0566
  699POPI   C3B 9785   6.458   5.438   7.452  0.0553 -0.0690 -0.4991
  699POPI   C4B 9786   6.334   5.313   7.806 -0.1358 -0.1083 -0.1254
  700POPI    C1 9787   5.411  10.294   5.574 -0.2573 -0.3118 -0.1895
  700POPI    C2 9788   5.695  10.132   5.804 -0.1598  0.1478  0.0257
  700POPI    C3 9789   5.497   9.905   5.541  0.0928 -0.2734  0.1888
  700POPI   PO4 9790   5.297  10.391   5.743  0.0245 -0.0827  0.0669
  700POPI   GL1 9791   5.438  10.636   5.948  0.1226  0.1087 -0.2302
  700POPI   GL2 9792   5.140  10.491   6.173 -0.3306  0.0979 -0.2344
  700POPI   C1A 9793   5.699  10.590   6.229 -0.0288 -0.0201  0.2994
  700POPI   D2A 9794   5.975  10.690   6.529 -0.0425 -0.0860 -0.0887
  700POPI   C3A 9795   6.371  10.572   6.436  0.2424 -0.0008 -0.0276
  700POPI   C4A 9796   6.703  10.338   6.253 -0.0305 -0.0558 -0.1782
  700POPI   C1B 9797   5.279  10.783   6.461  0.0424  0.1076 -0.1786
  700POPI   C2B 9798   5.263  10.945   6.899 -0.0845 -0.0266  0.2024
  700POPI   C3B 9799   5.262  10.762   7.332  0.0345  0.4885  0.0949
  700POPI   C4B 9800   5.089  10.730   7.773 -0.4250 -0.1028  0.1727
  701POPI    C1 9801   8.489   3.826   5.965 -0.2328  0.2192 -0.0216
  701POPI    C2 9802   8.849   3.749   5.810 -0.2024  0.3091  0.0043
  701POPI    C3 9803   8.529   3.544   5.684 -0.1541  0.2798 -0.0712
  701POPI   PO4 9804   8.509   3.853   6.241 -0.1429 -0.1081 -0.3584
  701POPI   GL1 9805   8.573   3.648   6.579  0.3099  0.0531  0.0290
  701POPI   GL2 9806   8.692   3.995   6.797 -0.2146  0.2619  0.0991
  701POPI   C1A 9807   8.687   3.514   6.998  0.1751  0.0058  0.0432
  701POPI   D2A 9808   8.668   3.472   7.352  0.0527  0.1557  0.0426
  701POPI   C3A 9809   8.556   3.236   7.710  0.0967 -0.1913 -0.1663
  701POPI   C4A 9810   8.447   3.265   8.103 -0.0252  0.1164 -0.0273
  701POPI   C1B 9811   8.631   4.014   7.267  0.0511 -0.1293 -0.2363
  701POPI   C2B 9812   8.791   3.833   7.655 -0.0875  0.3087 -0.2994
  701POPI   C3B 9813   8.623   3.755   8.056 -0.1915 -0.0354 -0.0073
  701POPI   C4B 9814   8.530   3.823   8.428 -0.0722 -0.1199 -0.0875
  702POPI    C1 9815  12.141   8.167   5.502 -0.2181 -0.1297 -0.1916
  702POPI    C2 9816  12.193   8.425   5.201  0.0114  0.0755  0.0193
  702POPI    C3 9817  12.198   8.032   5.130 -0.2751  0.1239 -0.2949
  702POPI   PO4 9818  12.226   8.321   5.795  0.0807 -0.0831 -0.1758
  702POPI   GL1 9819  12.131   8.392   6.122  0.1236 -0.1012 -0.0709
  702POPI   GL2 9820  11.882   8.433   6.427 -0.0910 -0.2646 -0.4848
  702POPI   C1A 9821  12.480   8.265   6.498  0.1999  0.2731 -0.4800
  702POPI   D2A 9822  12.627   8.247   6.951 -0.0483 -0.3477  0.1946
  702POPI   C3A 9823  12.626   7.871   7.110  0.0967 -0.1090  0.0931
  702POPI   C4A 9824  12.263   7.945   7.385 -0.1543  0.2434  0.0175
  702POPI   C1B 9825  12.050   7.944   6.378  0.2424 -0.0046 -0.0858
  702POPI   C2B 9826  12.294   7.676   6.420  0.2778  0.2412  0.1319
  702POPI   C3B 9827  12.398   7.244   6.570 -0.2042  0.0678  0.0748
  702POPI   C4B 9828  12.539   6.913   6.914  0.0029  0.1791 -0.1266
  703POPI    C1 9829   2.835  15.576   5.270 -0.1410 -0.0738 -0.0216
  703POPI    C2 9830   2.456  15.449   5.262 -0.1800  0.0529 -0.2944
  703POPI    C3 9831   2.737  15.251   5.058 -0.0907 -0.0606 -0.0649
  703POPI   PO4 9832   2.789  15.799   5.434  0.3432 -0.0869 -0.0034
  703POPI   GL1 9833   2.823  15.802   5.848  0.0745 -0.0271  0.1256
  703POPI   GL2 9834   3.041  15.512   5.914  0.1574  0.1020  0.3019
  703POPI   C1A 9835   2.743  16.146   6.083  0.1774  0.1231 -0.1285
  703POPI   D2A 9836   2.463  16.266   6.413 -0.1621 -0.1366  0.0881
  703POPI   C3A 9837   2.690  16.256   6.808  0.1053  0.2020 -0.1291
  703POPI   C4A 9838   2.851  16.244   7.158  0.1700  0.1568 -0.2016
  703POPI   C1B 9839   2.944  15.661   6.360 -0.3407  0.1969  0.2199
  703POPI   C2B 9840   2.855  15.415   6.734 -0.3238 -0.0837 -0.0012
  703POPI   C3B 9841   2.588  15.216   7.010 -0.0360 -0.0993  0.2323
  703POPI   C4B 9842   2.326  15.127   7.424 -0.1951  0.0591 -0.0342
  704POPI    C1 9843   2.429   0.768   5.435  0.2894  0.0172  0.1561
  704POPI    C2 9844   2.180   0.603   5.702 -0.0205  0.2247  0.0018
  704POPI    C3 9845   2.107   0.565   5.310  0.3194  0.0959 -0.0529
  704POPI   PO4 9846   2.582   0.909   5.599 -0.0312 -0.0655  0.0162
  704POPI   GL1 9847   2.746   1.234   6.073 -0.0151 -0.2879 -0.1781
  704POPI   GL2 9848   2.882   0.933   5.962  0.0771  0.1563  0.1900
  704POPI   C1A 9849   2.666   0.901   6.444 -0.1271 -0.3000  0.2409
  704POPI   D2A 9850   2.367   0.610   6.475  0.2637  0.1472 -0.0448
  704POPI   C3A 9851   1.998   0.758   6.722 -0.0304 -0.0388  0.1713
  704POPI   C4A 9852   1.799   0.693   7.147  0.0163 -0.0042 -0.3769
  704POPI   C1B 9853   3.124   0.971   6.252  0.0092  0.1092 -0.3116
  704POPI   C2B 9854   3.221   1.173   6.670 -0.0421 -0.2254  0.1757
  704POPI   C3B 9855   3.331   1.545   6.811  0.1659  0.0089  0.2451
  704POPI   C4B 9856   3.447   1.916   6.648 -0.0401  0.6039 -0.0875
  705POPI    C1 9857   5.333   5.556   5.800 -0.2321 -0.0699 -0.0312
  705POPI    C2 9858   5.109   5.243   5.691  0.1343 -0.2754 -0.2118
  705POPI    C3 9859   5.285   5.470   5.413  0.3546 -0.2687 -0.0700
  705POPI   PO4 9860   5.474   5.456   5.994  0.0089 -0.4469  0.0022
  705POPI   GL1 9861   5.717   5.605   6.365 -0.0202  0.0407 -0.1562
  705POPI   GL2 9862   5.492   5.891   6.241  0.1734  0.3220  0.0031
  705POPI   C1A 9863   5.912   5.756   6.752 -0.0390  0.0014  0.1335
  705POPI   D2A 9864   5.764   5.856   7.188 -0.2059  0.0249 -0.1385
  705POPI   C3A 9865   5.753   6.294   7.429  0.1079 -0.1923 -0.1513
  705POPI   C4A 9866   6.001   6.592   7.614 -0.2706  0.0547  0.0432
  705POPI   C1B 9867   5.457   6.061   6.648 -0.1907 -0.0002  0.0052
  705POPI   C2B 9868   5.555   6.280   6.983 -0.1459 -0.1253 -0.0394
  705POPI   C3B 9869   5.469   6.567   7.198 -0.0429  0.1056 -0.0595
  705POPI   C4B 9870   5.518   6.922   7.518 -0.0339  0.2286 -0.2266
  706POPI    C1 9871   6.705   4.646   6.201  0.0740  0.1247 -0.1168
  706POPI    C2 9872   6.437   4.352   6.160  0.1315  0.0533  0.0132
  706POPI    C3 9873   6.598   4.522   5.836  0.1752 -0.1295 -0.0622
  706POPI   PO4 9874   6.844   4.591   6.355  0.1288  0.1288  0.1423
  706POPI   GL1 9875   7.101   4.738   6.734 -0.0884 -0.0225  0.2599
  706POPI   GL2 9876   7.348   4.486   6.608  0.0978  0.1598 -0.0235
  706POPI   C1A 9877   6.863   4.761   6.986  0.1463 -0.0527  0.1236
  706POPI   D2A 9878   6.585   4.955   7.280 -0.1256 -0.0703 -0.1550
  706POPI   C3A 9879   6.618   4.804   7.595 -0.2600  0.1348 -0.0334
  706POPI   C4A 9880   6.841   4.511   7.933  0.0860  0.1862  0.1218
  706POPI   C1B 9881   7.279   4.444   7.040 -0.0551  0.1260 -0.1200
  706POPI   C2B 9882   7.535   4.283   7.344  0.1283  0.0282  0.2783
  706POPI   C3B 9883   7.922   4.440   7.800  0.2011  0.1387 -0.1265
  706POPI   C4B 9884   8.151   4.824   8.072 -0.1282 -0.0088  0.2562
  707POPI    C1 9885   1.264   7.521   6.035 -0.1640 -0.3324 -0.0252
  707POPI    C2 9886   1.021   7.721   5.789 -0.1034 -0.2480 -0.0169
  707POPI    C3 9887   1.219   7.399   5.657  0.0240 -0.1307 -0.1142
  707POPI   PO4 9888   1.122   7.463   6.215  0.1384 -0.2673  0.0375
  707POPI   GL1 9889   0.821   7.106   6.396 -0.1842  0.0483  0.0526
  707POPI   GL2 9890   1.115   7.049   6.508  0.1008 -0.0187  0.1679
  707POPI   C1A 9891   0.590   7.262   6.811 -0.2989  0.0038  0.2193
  707POPI   D2A 9892   0.390   7.298   7.249 -0.0824 -0.0175 -0.2245
  707POPI   C3A 9893   0.216   6.914   7.438  0.0402  0.1694 -0.0747
  707POPI   C4A 9894   0.077   6.650   7.568  0.1043  0.1401  0.0982
  707POPI   C1B 9895   0.971   6.869   6.880 -0.1096 -0.0549 -0.1091
  707POPI   C2B 9896   0.652   6.790   7.206  0.1817 -0.1177 -0.2340
  707POPI   C3B 9897   0.747   7.054   7.527 -0.1797  0.1881 -0.0677
  707POPI   C4B 9898   0.612   7.173   7.869 -0.0991 -0.0991 -0.2704
  708POPI    C1 9899   8.717   0.994   6.002 -0.2753 -0.1792  0.0396
  708POPI    C2 9900   8.514   0.916   5.666 -0.1607 -0.0027 -0.0721
  708POPI    C3 9901   8.911   0.965   5.654 -0.1363 -0.1435  0.1134
  708POPI   PO4 9902   8.621   0.844   6.180  0.0487 -0.0064  0.0721
  708POPI   GL1 9903   8.611   0.992   6.504 -0.3978  0.1665 -0.3093
  708POPI   GL2 9904   8.301   1.287   6.644 -0.1257 -0.1074  0.1628
  708POPI   C1A 9905   8.611   0.732   6.807  0.0868 -0.0272 -0.1445
  708POPI   D2A 9906   8.390   0.855   7.197 -0.1358 -0.0367  0.2658
  708POPI   C3A 9907   8.338   0.712   7.575 -0.0181  0.2911 -0.0363
  708POPI   C4A 9908   8.336   0.419   7.910 -0.3003  0.1661 -0.0350
  708POPI   C1B 9909   8.214   1.362   7.076  0.4496  0.1435  0.0362
  708POPI   C2B 9910   8.507   1.265   7.539  0.0563 -0.0196  0.0316
  708POPI   C3B 9911   8.787   1.183   7.766  0.1246 -0.0450  0.0986
  708POPI   C4B 9912   9.011   1.367   8.073 -0.0249 -0.0648  0.2723
  709POPI    C1 9913   3.665   1.982   5.391 -0.0505  0.0349  0.0709
  709POPI    C2 9914   3.397   2.230   5.228 -0.0055  0.0708  0.0515
  709POPI    C3 9915   3.716   2.377   5.419  0.0708  0.0279 -0.0419
  709POPI   PO4 9916   3.432   1.770   5.583 -0.0162  0.2617  0.0696
  709POPI   GL1 9917   3.607   1.769   6.093 -0.4492  0.1120 -0.0696
  709POPI   GL2 9918   3.962   1.695   6.100  0.4323  0.0301 -0.0725
  709POPI   C1A 9919   3.363   1.380   6.269 -0.0819 -0.1826  0.2929
  709POPI   D2A 9920   3.628   1.019   6.404  0.2350 -0.1962  0.2497
  709POPI   C3A 9921   3.663   0.856   6.825 -0.2075  0.0651 -0.1791
  709POPI   C4A 9922   3.753   0.877   7.211 -0.0427 -0.1506  0.0446
  709POPI   C1B 9923   3.773   1.544   6.563 -0.1404  0.0827 -0.0259
  709POPI   C2B 9924   3.683   1.321   7.014 -0.1699 -0.0208  0.1762
  709POPI   C3B 9925   3.356   1.188   7.184  0.2311  0.0738 -0.1317
  709POPI   C4B 9926   2.975   0.977   7.079  0.1456 -0.1756  0.1930
  710POPI    C1 9927  15.667   7.790   5.369  0.0238  0.1933 -0.0744
  710POPI    C2 9928  15.737   8.145   5.198  0.1262  0.2837  0.1512
  710POPI    C3 9929  15.366   7.995   5.205  0.1317  0.2455 -0.2092
  710POPI   PO4 9930  15.928   7.781   5.548 -0.2070  0.3437  0.2437
  710POPI   GL1 9931  15.920   7.890   5.874 -0.1981  0.0951 -0.4355
  710POPI   GL2 9932  15.945   8.199   5.994 -0.1177  0.0183  0.3607
  710POPI   C1A 9933  16.022   7.676   6.278  0.0542 -0.1248 -0.0135
  710POPI   D2A 9934  16.131   7.784   6.653  0.1892  0.1777  0.0135
  710POPI   C3A 9935  16.516   7.984   6.727  0.1006 -0.0644 -0.1783
  710POPI   C4A 9936  16.631   8.302   7.064 -0.1367 -0.1113 -0.2063
  710POPI   C1B 9937  15.675   8.067   6.273  0.0547  0.1155 -0.1791
  710POPI   C2B 9938  15.701   8.075   6.667  0.2394  0.0481  0.3128
  710POPI   C3B 9939  15.693   8.024   7.134 -0.2593 -0.1326 -0.3664
  710POPI   C4B 9940  15.965   8.219   7.452  0.0092  0.1839  0.0966
  711POPI    C1 9941   9.621   3.788   6.044  0.1328 -0.1058  0.0592
  711POPI    C2 9942   9.791   3.674   5.700 -0.0874 -0.0572 -0.0675
  711POPI    C3 9943  10.018   3.809   6.001  0.0991 -0.0123 -0.2266
  711POPI   PO4 9944   9.377   3.676   6.065  0.3202 -0.3573 -0.0032
  711POPI   GL1 9945   9.327   3.339   6.375  0.0988  0.0885  0.1509
  711POPI   GL2 9946   9.189   3.188   6.583 -0.1686  0.0341 -0.0056
  711POPI   C1A 9947   9.596   3.610   6.657 -0.0665 -0.1204 -0.0747
  711POPI   D2A 9948   9.846   3.666   7.034  0.0538  0.1425  0.1053
  711POPI   C3A 9949   9.654   3.442   7.415  0.2192 -0.0286  0.0193
  711POPI   C4A 9950   9.478   3.020   7.606  0.0608 -0.0548 -0.0844
  711POPI   C1B 9951   9.368   3.332   7.026  0.1337  0.5863 -0.1096
  711POPI   C2B 9952   9.146   3.373   7.335 -0.1136 -0.2133  0.2066
  711POPI   C3B 9953   9.076   3.402   7.758  0.0532 -0.3299 -0.2992
  711POPI   C4B 9954   9.173   3.284   8.140 -0.0043  0.4359  0.0970
  712POPI    C1 9955  14.996  10.886   5.476  0.2153  0.2382 -0.0244
  712POPI    C2 9956  15.358  11.042   5.540  0.1527  0.3685  0.0158
  712POPI    C3 9957  15.150  11.147   5.215  0.2697  0.0744 -0.1576
  712POPI   PO4 9958  14.964  10.706   5.806  0.0261 -0.2577  0.0132
  712POPI   GL1 9959  14.704  10.795   6.090 -0.0095  0.1292  0.2651
  712POPI   GL2 9960  14.760  11.058   6.220 -0.1609  0.2106 -0.1490
  712POPI   C1A 9961  14.549  10.448   6.236 -0.0315 -0.1087 -0.2129
  712POPI   D2A 9962  14.331  10.212   6.509 -0.0745 -0.0389 -0.0780
  712POPI   C3A 9963  14.509   9.967   6.882  0.0035 -0.0313  0.0125
  712POPI   C4A 9964  14.746  10.046   7.298  0.0902  0.1563 -0.4742
  712POPI   C1B 9965  14.778  10.913   6.617  0.0541  0.0210 -0.2444
  712POPI   C2B 9966  14.967  10.871   7.028 -0.3174 -0.0445 -0.2820
  712POPI   C3B 9967  14.855  11.001   7.451 -0.0511  0.1585 -0.2135
  712POPI   C4B 9968  14.811  11.058   7.772  0.2044  0.0787 -0.1327
  713POPI    C1 9969   8.442   7.967   5.918 -0.1906 -0.0439 -0.0960
  713POPI    C2 9970   8.155   8.234   5.837 -0.2067  0.0687  0.3112
  713POPI    C3 9971   8.530   8.299   5.713 -0.3258 -0.0159 -0.1093
  713POPI   PO4 9972   8.397   7.863   6.227 -0.0372  0.0400  0.0782
  713POPI   GL1 9973   8.582   7.914   6.620 -0.0672  0.2416 -0.1453
  713POPI   GL2 9974   8.687   8.226   6.681  0.0551  0.3711 -0.1757
  713POPI   C1A 9975   8.325   7.878   7.020  0.1986  0.2409 -0.2909
  713POPI   D2A 9976   7.934   7.910   7.187  0.0283  0.1725 -0.0060
  713POPI   C3A 9977   7.648   7.927   7.571 -0.0528  0.3236  0.2994
  713POPI   C4A 9978   7.467   8.153   7.945 -0.1986  0.4020 -0.0343
  713POPI   C1B 9979   8.526   8.384   7.008 -0.4497 -0.2922  0.0929
  713POPI   C2B 9980   8.315   8.240   7.360 -0.1701 -0.1130  0.1869
  713POPI   C3B 9981   8.185   8.259   7.727 -0.1520  0.0400  0.4493
  713POPI   C4B 9982   8.070   8.008   8.052 -0.1055 -0.2543  0.1203
  714POPI    C1 9983  15.857   3.905   5.468 -0.1340 -0.2108  0.1515
  714POPI    C2 9984  16.148   3.669   5.328 -0.1792 -0.1769 -0.0014
  714POPI    C3 9985  15.778   3.641   5.179 -0.1935 -0.0353  0.0056
  714POPI   PO4 9986  15.795   3.813   5.764  0.0052 -0.1076 -0.0448
  714POPI   GL1 9987  15.759   3.779   6.176 -0.2965  0.1133 -0.2631
  714POPI   GL2 9988  15.872   4.074   6.237 -0.1547  0.0038  0.1879
  714POPI   C1A 9989  15.690   3.401   6.399  0.1869  0.2024  0.2193
  714POPI   D2A 9990  15.584   3.009   6.737 -0.1528  0.0617 -0.0299
  714POPI   C3A 9991  15.724   3.028   7.144 -0.0478  0.1506 -0.0562
  714POPI   C4A 9992  15.608   3.087   7.605 -0.3440 -0.0028  0.0490
  714POPI   C1B 9993  16.136   4.519   6.394  0.0352 -0.3002 -0.1728
  714POPI   C2B 9994  16.237   4.728   6.730 -0.0561  0.0971 -0.1946
  714POPI   C3B 9995  16.245   4.715   7.187 -0.0363  0.1807 -0.1650
  714POPI   C4B 9996  16.384   4.784   7.605 -0.3203 -0.0563 -0.2142
  715POPI    C1 9997  14.895  18.087   6.022  0.2837  0.0257  0.1075
  715POPI    C2 9998  14.949  18.274   5.673 -0.1458 -0.0653 -0.0134
  715POPI    C3 9999  14.937  17.875   5.686  0.3620 -0.0810  0.1841
  715POPI   PO410000  14.671  18.186   6.169  0.1297  0.1685  0.1615
  715POPI   GL110001  14.689  18.110   6.585 -0.1009 -0.0904  0.0747
  715POPI   GL210002  14.735  18.400   6.633  0.1739  0.0152 -0.1845
  715POPI   C1A10003  14.489  18.116   7.019  0.0159 -0.0690  0.1388
  715POPI   D2A10004  14.174  18.092   7.449  0.0722  0.0436 -0.0246
  715POPI   C3A10005  14.073  17.789   7.799 -0.2318  0.2949  0.0303
  715POPI   C4A10006  14.245  17.664   8.224  0.0331  0.0526 -0.1704
  715POPI   C1B10007  15.065  18.133   6.997  0.0740 -0.0579 -0.0189
  715POPI   C2B10008  14.898  18.014   7.381  0.1682 -0.0815 -0.0753
  715POPI   C3B10009  14.979  18.108   7.865 -0.2829 -0.0150  0.1082
  715POPI   C4B10010  15.146  18.027   8.254 -0.0418 -0.0497 -0.0007
  716POPI    C110011  16.332   2.440   6.257  0.0581 -0.1555 -0.3734
  716POPI    C210012  16.471   2.556   5.900  0.0154  0.0781 -0.3154
  716POPI    C310013  16.357   2.829   6.170  0.2602 -0.0890 -0.0365
  716POPI   PO410014  16.192   2.216   6.201  0.0373 -0.0615 -0.2688
  716POPI   GL110015  15.873   1.994   6.505 -0.0958 -0.4829 -0.2869
  716POPI   GL210016  16.156   1.816   6.573 -0.1416  0.0715  0.0897
  716POPI   C1A10017  15.545   2.080   6.903  0.2969  0.0757 -0.0135
  716POPI   D2A10018  15.655   2.013   7.352 -0.2143 -0.0262  0.1131
  716POPI   C3A10019  15.588   2.321   7.719  0.2630  0.1345  0.1456
  716POPI   C4A10020  15.684   2.494   8.012 -0.0277  0.1511 -0.0024
  716POPI   C1B10021  15.992   1.857   6.990  0.1796 -0.3305  0.0943
  716POPI   C2B10022  15.968   1.620   7.346  0.0733  0.0769 -0.1711
  716POPI   C3B10023  15.874   1.194   7.389 -0.2270  0.0456 -0.1925
  716POPI   C4B10024  15.704   0.859   7.210  0.0522  0.3211  0.0732
  717POPI    C110025  17.828  12.849   5.595 -0.3473 -0.1350  0.1865
  717POPI    C210026  17.645  13.107   5.839 -0.0141  0.0962  0.1990
  717POPI    C310027  17.743  13.218   5.467  0.0578 -0.0396  0.1769
  717POPI   PO410028  17.604  12.659   5.598 -0.1421 -0.0526 -0.2557
  717POPI   GL110029  17.481  12.694   6.034  0.0608  0.1708 -0.0872
  717POPI   GL210030  17.445  12.945   6.227  0.0038 -0.1744  0.1312
  717POPI   C1A10031  17.366  12.431   6.348 -0.1163 -0.2677 -0.3795
  717POPI   D2A10032  17.352  12.445   6.841 -0.1745 -0.2900  0.1025
  717POPI   C3A10033  17.463  12.427   7.355 -0.2320  0.1701 -0.3382
  717POPI   C4A10034  17.579  12.281   7.774  0.1633 -0.0057  0.2361
  717POPI   C1B10035  17.301  12.891   6.657  0.4024 -0.0303  0.2063
  717POPI   C2B10036  17.485  12.860   7.009  0.0551 -0.1906  0.2029
  717POPI   C3B10037  17.386  12.950   7.463  0.0200 -0.0393  0.2783
  717POPI   C4B10038  17.588  13.077   7.890  0.0743  0.2873 -0.1701
  718POPI    C110039   8.500  17.564   5.574  0.2162  0.0015 -0.1175
  718POPI    C210040   8.311  17.875   5.741  0.0579 -0.1246 -0.0586
  718POPI    C310041   8.100  17.567   5.597  0.2180 -0.2578 -0.0123
  718POPI   PO410042   8.700  17.439   5.731  0.2549  0.2767  0.3632
  718POPI   GL110043   8.819  17.465   6.223 -0.0012  0.1440  0.0854
  718POPI   GL210044   9.160  17.490   6.413 -0.1347 -0.0621  0.0663
  718POPI   C1A10045   8.590  17.198   6.298 -0.1171 -0.1329  0.1459
  718POPI   D2A10046   8.242  17.096   6.622 -0.0076  0.2592 -0.1939
  718POPI   C3A10047   8.360  17.214   7.071  0.2415  0.0562 -0.0318
  718POPI   C4A10048   8.500  16.927   7.377 -0.0011  0.1053  0.1790
  718POPI   C1B10049   9.287  17.200   6.748 -0.0443  0.0202 -0.2063
  718POPI   C2B10050   9.483  16.795   6.929  0.2534  0.3490  0.0311
  718POPI   C3B10051   9.477  16.701   7.333  0.0332  0.0347  0.0777
  718POPI   C4B10052   9.580  17.100   7.633 -0.4705 -0.1702  0.1088
  719POPI    C110053   6.682  17.699   5.531 -0.1707  0.1747  0.0926
  719POPI    C210054   6.775  17.916   5.209 -0.0045  0.1540  0.1255
  719POPI    C310055   6.855  17.524   5.216  0.2294  0.2026  0.2902
  719POPI   PO410056   6.847  17.783   5.754 -0.0461  0.0985 -0.0171
  719POPI   GL110057   6.720  17.885   6.249  0.2753 -0.0737  0.1517
  719POPI   GL210058   6.969  17.872   6.311 -0.3203  0.0884 -0.0544
  719POPI   C1A10059   6.404  17.782   6.512  0.2917  0.0573 -0.0950
  719POPI   D2A10060   6.272  17.660   6.893  0.1323 -0.1331 -0.1396
  719POPI   C3A10061   6.285  17.466   7.289 -0.1094  0.0160  0.0086
  719POPI   C4A10062   6.259  17.573   7.807  0.1371  0.1051  0.1553
  719POPI   C1B10063   6.867  17.773   6.738 -0.0455  0.0344  0.0994
  719POPI   C2B10064   6.805  17.538   7.048 -0.2297 -0.1515 -0.2577
  719POPI   C3B10065   6.921  17.455   7.481 -0.1768 -0.1377  0.2747
  719POPI   C4B10066   6.787  17.235   7.929  0.0788  0.1319  0.4517
  720POPI    C110067   9.836   8.420   5.664 -0.1401 -0.0205  0.0581
  720POPI    C210068   9.481   8.549   5.532  0.0629  0.1133 -0.3733
  720POPI    C310069   9.530   8.165   5.631 -0.2527  0.1346 -0.1196
  720POPI   PO410070   9.955   8.760   5.828 -0.0352  0.2749  0.0719
  720POPI   GL110071   9.997   8.778   6.156  0.0019 -0.0080 -0.0363
  720POPI   GL210072  10.294   8.930   6.208  0.0212  0.0058  0.0763
  720POPI   C1A10073   9.845   8.643   6.557  0.0388  0.0769  0.0422
  720POPI   D2A10074   9.932   8.532   6.861 -0.0596  0.0788  0.2787
  720POPI   C3A10075   9.949   8.607   7.238 -0.2377 -0.1080 -0.0058
  720POPI   C4A10076  10.139   8.335   7.509  0.1141 -0.0329 -0.2267
  720POPI   C1B10077  10.263   8.901   6.709  0.0357 -0.1033  0.1334
  720POPI   C2B10078  10.326   8.918   7.191 -0.1414 -0.3104 -0.3450
  720POPI   C3B10079  10.155   8.839   7.621  0.1362 -0.1582 -0.0316
  720POPI   C4B10080  10.082   8.578   7.962 -0.2729  0.1581  0.1654
  721POPI    C110081  14.029  13.698   5.671  0.0311  0.1586 -0.1170
  721POPI    C210082  14.205  13.361   5.547  0.0260 -0.0575  0.4338
  721POPI    C310083  13.834  13.449   5.426  0.1119 -0.1301  0.1061
  721POPI   PO410084  14.149  13.682   5.970  0.2390 -0.1192  0.1313
  721POPI   GL110085  14.385  13.873   6.373  0.0863 -0.1243  0.0844
  721POPI   GL210086  14.113  13.689   6.562  0.0405 -0.1549  0.1472
  721POPI   C1A10087  14.440  14.106   6.824 -0.1245  0.0841  0.1020
  721POPI   D2A10088  14.458  14.238   7.151  0.0415 -0.1275 -0.1765
  721POPI   C3A10089  14.237  14.201   7.456  0.3851  0.0002  0.0368
  721POPI   C4A10090  14.238  13.811   7.757  0.0566  0.0033  0.2120
  721POPI   C1B10091  14.196  13.619   6.899 -0.0559  0.0696 -0.0894
  721POPI   C2B10092  14.111  13.553   7.277 -0.1055 -0.1051 -0.4181
  721POPI   C3B10093  13.759  13.523   7.671 -0.0588  0.1451  0.0532
  721POPI   C4B10094  13.432  13.603   7.901  0.0710  0.0386 -0.1659
  722POPI    C110095  11.551  15.713   5.847  0.1728 -0.0851 -0.0896
  722POPI    C210096  11.439  15.365   5.686 -0.0814 -0.0385 -0.0196
  722POPI    C310097  11.592  15.653   5.454  0.0529 -0.1652 -0.0905
  722POPI   PO410098  11.267  15.754   6.044  0.0443  0.3041  0.1669
  722POPI   GL110099  11.066  15.590   6.443 -0.4306  0.1793  0.1726
  722POPI   GL210100  10.862  15.436   6.287  0.0929  0.2456 -0.1309
  722POPI   C1A10101  11.026  15.578   6.912  0.4360 -0.0580 -0.1740
  722POPI   D2A10102  10.883  15.400   7.374  0.3927 -0.1869 -0.0459
  722POPI   C3A10103  10.742  15.309   7.663 -0.1936  0.1729 -0.2321
  722POPI   C4A10104  10.620  15.053   7.908  0.0293 -0.0420 -0.2697
  722POPI   C1B10105  10.590  15.496   6.668 -0.3233  0.1637 -0.3867
  722POPI   C2B10106  10.477  15.370   7.011 -0.0746  0.0704  0.0449
  722POPI   C3B10107  10.304  15.455   7.464  0.1272  0.0768  0.1526
  722POPI   C4B10108  10.251  15.415   7.754 -0.0854 -0.0151  0.1132
  723POPI    C110109  14.282  12.870   5.586  0.0859  0.2587  0.1106
  723POPI    C210110  13.901  12.951   5.498  0.0412 -0.0347  0.0231
  723POPI    C310111  14.166  12.891   5.204  0.2238  0.4540  0.0774
  723POPI   PO410112  14.255  12.894   5.878 -0.6517 -0.2754 -0.0605
  723POPI   GL110113  14.454  13.089   6.114  0.0006 -0.0688 -0.2632
  723POPI   GL210114  14.687  12.921   6.363  0.1062 -0.2776  0.2417
  723POPI   C1A10115  14.147  13.206   6.472  0.0250  0.0158 -0.0251
  723POPI   D2A10116  13.978  13.239   6.796  0.2642  0.1011  0.1201
  723POPI   C3A10117  13.913  13.076   7.130  0.0307 -0.2001 -0.1061
  723POPI   C4A10118  14.038  13.103   7.537 -0.3225 -0.1122 -0.1714
  723POPI   C1B10119  14.785  12.710   6.657 -0.1138  0.0802  0.0124
  723POPI   C2B10120  14.843  12.744   7.039 -0.2831 -0.1794 -0.0298
  723POPI   C3B10121  14.735  12.681   7.469 -0.3529  0.1853 -0.0496
  723POPI   C4B10122  14.582  12.861   7.690 -0.1519 -0.1809 -0.2963
  724POPI    C110123   0.702  12.127   5.996  0.1109 -0.0637  0.2049
  724POPI    C210124   0.599  12.054   5.617  0.1002  0.2922  0.1359
  724POPI    C310125   0.958  11.942   5.752  0.2239  0.4355 -0.0691
  724POPI   PO410126   0.423  12.087   6.108  0.0692  0.1327  0.0226
  724POPI   GL110127   0.355  12.249   6.384  0.1311  0.0970 -0.3272
  724POPI   GL210128   0.605  12.600   6.391 -0.1640 -0.0817  0.1333
  724POPI   C1A10129   0.505  12.354   6.803  0.0880  0.1177  0.1732
  724POPI   D2A10130   0.664  12.112   7.167  0.1369  0.0864 -0.2808
  724POPI   C3A10131   0.506  12.220   7.614 -0.1010 -0.0033 -0.1666
  724POPI   C4A10132   0.152  12.073   7.850 -0.2116 -0.5598  0.0485
  724POPI   C1B10133   0.897  12.759   6.472  0.1280 -0.1343 -0.0382
  724POPI   C2B10134   1.262  12.628   6.696  0.1188 -0.1032 -0.3569
  724POPI   C3B10135   1.429  12.716   7.068  0.0700  0.0575  0.0680
  724POPI   C4B10136   1.907  12.561   7.137  0.0159 -0.3683 -0.1411
  725POPI    C110137   0.055  12.891   5.542  0.0113 -0.1909  0.0762
  725POPI    C210138   0.445  12.979   5.528 -0.0421  0.0007 -0.3651
  725POPI    C310139   0.254  12.866   5.195 -0.3428 -0.1949 -0.1312
  725POPI   PO410140   0.043  12.706   5.795 -0.1364  0.2295 -0.0684
  725POPI   GL110141   0.114  12.726   6.290 -0.1526 -0.3073  0.0123
  725POPI   GL210142  -0.077  12.475   6.278  0.2408  0.0076  0.2426
  725POPI   C1A10143   0.140  12.719   6.755  0.0705 -0.3787 -0.2705
  725POPI   D2A10144   0.130  12.975   7.120 -0.1685  0.0303  0.1439
  725POPI   C3A10145   0.140  13.018   7.521 -0.0757  0.0762  0.1862
  725POPI   C4A10146  -0.234  13.003   7.860  0.0449 -0.2385  0.1867
  725POPI   C1B10147  -0.473  12.256   6.293  0.3214  0.0216  0.0848
  725POPI   C2B10148  -0.701  12.080   6.551 -0.0031  0.0548  0.2396
  725POPI   C3B10149  -0.848  11.862   6.834  0.0810 -0.1302  0.0807
  725POPI   C4B10150  -1.084  11.492   7.151 -0.2001 -0.0719  0.1811
  726POPI    C110151  11.406  14.818   5.706  0.1667  0.2206  0.0834
  726POPI    C210152  11.046  14.669   5.798  0.2022  0.1284  0.0739
  726POPI    C310153  11.075  14.997   5.570  0.1231  0.1652  0.1162
  726POPI   PO410154  11.487  14.708   5.972 -0.1270 -0.2050  0.0350
  726POPI   GL110155  11.662  14.899   6.341 -0.1079 -0.1695 -0.1319
  726POPI   GL210156  11.413  14.854   6.441  0.0021  0.0849 -0.1207
  726POPI   C1A10157  12.013  14.852   6.713 -0.0044 -0.2236  0.0255
  726POPI   D2A10158  11.999  14.660   7.118  0.2962 -0.3180 -0.0295
  726POPI   C3A10159  11.984  14.158   7.186  0.2886  0.0148  0.0700
  726POPI   C4A10160  12.154  13.825   6.958  0.2874 -0.0945 -0.0797
  726POPI   C1B10161  11.481  14.827   6.799 -0.2457 -0.1188 -0.1835
  726POPI   C2B10162  11.446  14.512   7.070  0.0171  0.1275  0.2963
  726POPI   C3B10163  11.647  14.444   7.421 -0.0271  0.4473  0.0958
  726POPI   C4B10164  12.134  14.360   7.619 -0.1485  0.1514  0.0789
  727POPI    C110165   7.967  17.152   5.732  0.0179 -0.2243  0.0072
  727POPI    C210166   8.358  17.102   5.798  0.1094  0.3778 -0.0239
  727POPI    C310167   8.162  16.850   5.557  0.4417 -0.0145  0.1052
  727POPI   PO410168   7.887  17.199   6.032  0.1213  0.2932  0.4130
  727POPI   GL110169   7.763  17.256   6.460  0.1094  0.3478 -0.0128
  727POPI   GL210170   7.677  16.932   6.432  0.0954  0.0772 -0.0932
  727POPI   C1A10171   7.855  17.245   6.930 -0.3938  0.0504  0.0445
  727POPI   D2A10172   7.887  17.470   7.227  0.0390 -0.1706 -0.3414
  727POPI   C3A10173   8.168  17.262   7.561  0.1248  0.0709  0.0807
  727POPI   C4A10174   8.110  16.880   7.821  0.0687 -0.3377  0.0986
  727POPI   C1B10175   7.421  17.037   6.856 -0.0606  0.2256  0.3819
  727POPI   C2B10176   6.978  17.076   7.026 -0.0118 -0.1921  0.0828
  727POPI   C3B10177   6.794  16.988   7.437  0.2167  0.0562 -0.0410
  727POPI   C4B10178   6.453  17.111   7.558  0.2725 -0.3390  0.0575
  728POPI    C110179   3.259  13.342   5.613 -0.1289  0.0777 -0.0910
  728POPI    C210180   3.059  13.452   5.285 -0.1590  0.3146  0.0045
  728POPI    C310181   3.392  13.647   5.391 -0.0095  0.0769 -0.0214
  728POPI   PO410182   3.228  12.951   5.539  0.0419 -0.0604 -0.0034
  728POPI   GL110183   3.417  12.737   5.941  0.1829  0.3310 -0.0654
  728POPI   GL210184   3.479  13.074   6.014 -0.1179 -0.1420  0.0310
  728POPI   C1A10185   3.231  12.667   6.376 -0.2162  0.2078 -0.1242
  728POPI   D2A10186   2.945  12.483   6.556  0.2117  0.0508 -0.1586
  728POPI   C3A10187   3.070  12.215   6.902 -0.0736  0.1165 -0.2256
  728POPI   C4A10188   3.123  11.816   7.054 -0.1573 -0.1119  0.0122
  728POPI   C1B10189   3.501  13.411   6.186 -0.2625  0.1228  0.0882
  728POPI   C2B10190   3.574  13.590   6.531  0.4333  0.0468 -0.0368
  728POPI   C3B10191   3.568  13.341   6.870 -0.4422  0.4406 -0.1496
  728POPI   C4B10192   3.747  13.002   7.126  0.1442 -0.1499  0.1303
  729POPI    C110193   1.161   3.369   5.738 -0.1023  0.1552  0.0013
  729POPI    C210194   0.951   3.105   5.524 -0.0158  0.0630  0.0294
  729POPI    C310195   0.761   3.378   5.747 -0.1057 -0.0374  0.0766
  729POPI   PO410196   1.410   3.190   5.745 -0.0253  0.0553  0.0746
  729POPI   GL110197   1.548   3.110   6.033  0.0053  0.2641 -0.1175
  729POPI   GL210198   1.407   3.306   6.281 -0.1700 -0.1555  0.2875
  729POPI   C1A10199   1.726   2.894   6.329 -0.2346  0.1458  0.2646
  729POPI   D2A10200   2.234   2.958   6.304  0.0903 -0.1557 -0.1633
  729POPI   C3A10201   2.396   2.842   6.618  0.0636 -0.2005  0.0488
  729POPI   C4A10202   2.677   2.611   6.922 -0.1115 -0.0607  0.0049
  729POPI   C1B10203   1.242   3.189   6.570  0.0395  0.1622  0.1210
  729POPI   C2B10204   0.961   3.454   6.778  0.4035 -0.1443  0.0064
  729POPI   C3B10205   0.779   3.644   7.198 -0.1122  0.0340  0.1036
  729POPI   C4B10206   0.751   3.895   7.524  0.1147 -0.2064 -0.3706
  730POPI    C110207   6.930  17.282   5.993  0.1715 -0.3787  0.0983
  730POPI    C210208   6.672  17.245   5.690 -0.0585  0.0326  0.2343
  730POPI    C310209   7.061  17.302   5.616 -0.0517 -0.2602  0.0248
  730POPI   PO410210   6.900  17.390   6.198 -0.1122  0.0033  0.2214
  730POPI   GL110211   6.964  17.197   6.543  0.0672  0.1188 -0.0680
  730POPI   GL210212   7.063  16.961   6.401 -0.0834 -0.1425  0.1701
  730POPI   C1A10213   6.542  17.269   6.719  0.2561  0.2767 -0.2930
  730POPI   D2A10214   6.098  17.300   6.395 -0.3583 -0.0948  0.0196
  730POPI   C3A10215   5.621  17.175   6.587 -0.0394  0.1436  0.0599
  730POPI   C4A10216   5.152  17.161   6.408 -0.1040  0.1024  0.1199
  730POPI   C1B10217   7.109  16.665   6.769 -0.0073  0.2109 -0.4421
  730POPI   C2B10218   7.019  16.251   7.065  0.1769 -0.2893 -0.1146
  730POPI   C3B10219   7.015  15.977   7.447  0.1868  0.4006 -0.1238
  730POPI   C4B10220   7.312  15.618   7.612  0.0921  0.0209 -0.2698
  731POPI    C110221   1.649  17.483   5.521  0.1584 -0.1062  0.0935
  731POPI    C210222   1.435  17.147   5.551 -0.1139  0.0578  0.0280
  731POPI    C310223   1.463  17.335   5.199 -0.2055  0.2589  0.1265
  731POPI   PO410224   1.909  17.429   5.613 -0.2946  0.1795  0.1278
  731POPI   GL110225   1.884  17.094   5.903 -0.2606 -0.0818  0.1584
  731POPI   GL210226   1.992  16.861   5.764  0.0689 -0.3032  0.4939
  731POPI   C1A10227   1.661  16.913   6.130  0.2641 -0.1160 -0.0824
  731POPI   D2A10228   1.463  16.847   6.546  0.2466 -0.0120 -0.1533
  731POPI   C3A10229   1.217  17.051   6.731 -0.2603  0.0125 -0.0075
  731POPI   C4A10230   1.083  17.283   6.986 -0.5015 -0.1168 -0.0893
  731POPI   C1B10231   2.181  16.700   6.191 -0.0138  0.1974  0.2304
  731POPI   C2B10232   2.023  16.505   6.461 -0.0549  0.2555  0.0608
  731POPI   C3B10233   2.166  16.179   6.781 -0.1927  0.1099  0.0341
  731POPI   C4B10234   2.251  16.144   7.279  0.0319 -0.1321  0.0240
  732POPI    C110235   7.599  14.819   4.983 -0.0310  0.2115  0.0538
  732POPI    C210236   7.950  14.788   4.793 -0.0205 -0.0688  0.1146
  732POPI    C310237   7.615  14.854   4.585  0.0411 -0.0025  0.0361
  732POPI   PO410238   7.632  14.508   5.167  0.1876  0.1455 -0.1593
  732POPI   GL110239   7.781  14.617   5.682 -0.2683  0.1230  0.0178
  732POPI   GL210240   8.082  14.390   5.730  0.5417  0.1385 -0.1668
  732POPI   C1A10241   7.756  14.368   6.058 -0.1012  0.0221  0.1100
  732POPI   D2A10242   7.601  14.247   6.415 -0.0779 -0.0404 -0.0746
  732POPI   C3A10243   7.552  13.896   6.659 -0.0003  0.2529  0.0875
  732POPI   C4A10244   7.349  13.544   6.533  0.1819 -0.0753  0.0188
  732POPI   C1B10245   8.288  14.187   6.036 -0.0480  0.0766  0.4293
  732POPI   C2B10246   8.393  14.083   6.403  0.1854  0.0105  0.1283
  732POPI   C3B10247   8.564  14.024   6.777 -0.3029  0.1322  0.1704
  732POPI   C4B10248   8.695  14.092   7.145  0.1857 -0.0267 -0.1734
  733POPI    C110249   8.831  10.560   5.846 -0.0147  0.3320  0.0260
  733POPI    C210250   8.903  10.599   5.455  0.1285  0.0695  0.0241
  733POPI    C310251   8.762  10.254   5.599 -0.2064  0.2611  0.1652
  733POPI   PO410252   8.718  10.873   5.868 -0.1923 -0.1602  0.0600
  733POPI   GL110253   8.544  11.135   6.088 -0.0241  0.3701 -0.1567
  733POPI   GL210254   8.645  11.430   6.229  0.0334 -0.0871 -0.2164
  733POPI   C1A10255   8.536  10.939   6.477  0.0315 -0.0009 -0.2213
  733POPI   D2A10256   8.617  10.934   6.899  0.0640 -0.0033 -0.1083
  733POPI   C3A10257   8.861  10.704   6.992 -0.0208  0.3126 -0.0663
  733POPI   C4A10258   9.119  10.580   7.107  0.4034  0.2030  0.0210
  733POPI   C1B10259   8.692  11.393   6.729  0.0429 -0.3036  0.0114
  733POPI   C2B10260   8.494  11.398   7.155 -0.0029  0.1052  0.1514
  733POPI   C3B10261   8.493  11.292   7.607 -0.0585 -0.0483 -0.2358
  733POPI   C4B10262   8.686  11.047   7.985  0.0773 -0.0045  0.0739
  734POPI    C110263  12.291   2.825   5.722  0.1020  0.2858 -0.0300
  734POPI    C210264  12.227   3.102   5.441 -0.0094  0.1397 -0.1498
  734POPI    C310265  12.134   2.719   5.370  0.0191  0.0921  0.0637
  734POPI   PO410266  12.496   3.052   5.958 -0.0851  0.2605  0.0642
  734POPI   GL110267  12.636   3.025   6.387  0.3884 -0.3001  0.0162
  734POPI   GL210268  12.920   2.999   6.213 -0.2092 -0.1768 -0.3568
  734POPI   C1A10269  12.641   3.105   6.885  0.3967  0.0054 -0.1002
  734POPI   D2A10270  12.564   3.341   7.271  0.1636  0.1736  0.0588
  734POPI   C3A10271  12.361   3.092   7.587  0.0150 -0.1647 -0.0333
  734POPI   C4A10272  11.975   3.107   7.878 -0.1912 -0.0890  0.0424
  734POPI   C1B10273  13.152   2.928   6.683 -0.1317 -0.0274 -0.0893
  734POPI   C2B10274  13.101   3.011   7.098 -0.0103 -0.0650 -0.3499
  734POPI   C3B10275  13.130   2.624   7.359  0.2498 -0.0302 -0.2260
  734POPI   C4B10276  13.277   2.563   7.695  0.1223 -0.1783  0.0077
  735POPI    C110277  13.031  17.784   5.817  0.0343  0.1305 -0.0769
  735POPI    C210278  13.167  17.930   5.471  0.1479  0.0395 -0.0711
  735POPI    C310279  13.361  17.631   5.652  0.1209  0.1241  0.0998
  735POPI   PO410280  12.950  18.023   5.950 -0.1567  0.1652 -0.1301
  735POPI   GL110281  12.929  18.123   6.308  0.2513  0.1445  0.1472
  735POPI   GL210282  12.576  17.954   6.300 -0.1113  0.0063  0.1384
  735POPI   C1A10283  12.830  18.216   6.753 -0.1065 -0.2760 -0.0653
  735POPI   D2A10284  12.762  18.205   7.218 -0.0531  0.0833  0.2896
  735POPI   C3A10285  12.729  18.303   7.588 -0.0345  0.2977  0.1696
  735POPI   C4A10286  12.535  18.411   7.980 -0.0588  0.1018  0.1802
  735POPI   C1B10287  12.457  17.902   6.620 -0.3097 -0.0284 -0.2973
  735POPI   C2B10288  12.330  17.897   7.181 -0.0106  0.0864  0.0357
  735POPI   C3B10289  12.162  17.786   7.644  0.1099  0.1565  0.0360
  735POPI   C4B10290  12.142  17.999   7.898  0.2241 -0.0359  0.2265
  736POPI    C110291  14.362   2.046   5.577  0.2175 -0.1185 -0.1790
  736POPI    C210292  14.709   1.922   5.421  0.3427  0.1355 -0.1072
  736POPI    C310293  14.586   2.298   5.360  0.0322  0.0193 -0.2124
  736POPI   PO410294  14.397   1.944   5.866 -0.2815 -0.0457 -0.0141
  736POPI   GL110295  14.487   2.165   6.301  0.3588 -0.2413  0.2887
  736POPI   GL210296  14.648   2.456   6.430 -0.2694 -0.0737 -0.1495
  736POPI   C1A10297  14.583   1.990   6.749  0.1326  0.1809  0.0564
  736POPI   D2A10298  14.695   2.207   7.173 -0.0462  0.0357  0.2520
  736POPI   C3A10299  14.452   2.251   7.547  0.4693  0.0285  0.1347
  736POPI   C4A10300  14.160   2.566   7.862 -0.0245  0.0664 -0.0608
  736POPI   C1B10301  14.990   2.301   6.650  0.0309  0.2508  0.2939
  736POPI   C2B10302  15.352   2.554   6.856  0.2963 -0.0734  0.0496
  736POPI   C3B10303  15.413   2.666   7.380  0.1392  0.1359  0.1313
  736POPI   C4B10304  15.283   2.740   7.750  0.1684 -0.0479  0.1704
  737POPI    C110305  11.342   2.413   5.418  0.1840 -0.1310 -0.3121
  737POPI    C210306  11.727   2.381   5.521  0.1822  0.3444 -0.1290
  737POPI    C310307  11.621   2.616   5.215  0.0332  0.2367 -0.1613
  737POPI   PO410308  11.202   2.362   5.672 -0.2590  0.2002  0.2022
  737POPI   GL110309  11.026   2.352   6.059 -0.2248  0.2528 -0.0626
  737POPI   GL210310  10.769   2.612   6.146 -0.0956 -0.2651 -0.1586
  737POPI   C1A10311  11.254   2.226   6.425 -0.0698  0.0249  0.0584
  737POPI   D2A10312  11.291   1.905   6.692  0.0922  0.1349  0.2422
  737POPI   C3A10313  11.073   1.879   6.985  0.1211  0.0225  0.1406
  737POPI   C4A10314  10.958   2.097   7.350 -0.0279 -0.4448 -0.4094
  737POPI   C1B10315  10.761   2.952   6.355 -0.0478  0.2172 -0.0266
  737POPI   C2B10316  10.845   3.063   6.694  0.2206 -0.0472 -0.0098
  737POPI   C3B10317  10.699   3.091   7.005  0.0804 -0.1221  0.1561
  737POPI   C4B10318  10.646   3.312   7.324  0.1003 -0.1173 -0.0360
  738POPI    C110319  12.056   5.259   5.743  0.1765  0.1208  0.0243
  738POPI    C210320  11.760   5.298   5.478  0.0498  0.0874  0.1598
  738POPI    C310321  11.952   5.622   5.611  0.3076  0.0834 -0.1872
  738POPI   PO410322  11.849   5.051   5.948 -0.1394 -0.4142 -0.3041
  738POPI   GL110323  11.458   4.980   6.299  0.3130  0.0721  0.0005
  738POPI   GL210324  11.550   5.260   6.426 -0.1316 -0.0453 -0.1494
  738POPI   C1A10325  11.417   4.512   6.378  0.0130 -0.0908 -0.2181
  738POPI   D2A10326  11.742   4.202   6.428 -0.1618 -0.0815 -0.1486
  738POPI   C3A10327  12.155   4.321   6.439 -0.0648  0.0918 -0.3274
  738POPI   C4A10328  12.556   4.291   6.453  0.1002  0.1531  0.0419
  738POPI   C1B10329  11.594   5.145   6.756 -0.1809  0.1260 -0.0331
  738POPI   C2B10330  11.481   4.939   7.139  0.2236 -0.0491 -0.1389
  738POPI   C3B10331  11.347   4.798   7.579  0.1606  0.1366  0.0509
  738POPI   C4B10332  11.141   5.001   7.939 -0.3231 -0.1985 -0.0311
  739POPI    C110333   1.962   6.413   6.367  0.1089 -0.0834  0.0680
  739POPI    C210334   2.018   6.427   5.971  0.0788 -0.0756  0.0641
  739POPI    C310335   2.239   6.181   6.195  0.1279 -0.0461  0.0482
  739POPI   PO410336   1.801   6.646   6.359 -0.0241 -0.2547 -0.3149
  739POPI   GL110337   2.038   6.946   6.586 -0.2201 -0.0316 -0.0645
  739POPI   GL210338   2.006   6.837   6.884 -0.0143 -0.0868 -0.0944
  739POPI   C1A10339   1.776   7.269   6.804 -0.0114 -0.4125  0.0425
  739POPI   D2A10340   1.742   7.272   7.186 -0.0953  0.4050  0.2143
  739POPI   C3A10341   1.318   7.283   7.445 -0.1072 -0.0402  0.0319
  739POPI   C4A10342   1.125   7.120   7.819 -0.2216 -0.4998 -0.1037
  739POPI   C1B10343   2.001   6.808   7.354  0.0723 -0.0759 -0.2132
  739POPI   C2B10344   2.011   6.821   7.743 -0.0350  0.2055 -0.2864
  739POPI   C3B10345   2.014   7.147   8.139 -0.3220 -0.2319 -0.0125
  739POPI   C4B10346   1.660   7.347   8.362  0.0139  0.0573  0.3105
  740POPI    C110347   9.475   0.890   5.696 -0.0962 -0.2840  0.0002
  740POPI    C210348   9.361   1.197   5.465 -0.0308 -0.1228  0.1791
  740POPI    C310349   9.325   0.821   5.331 -0.1268 -0.0389 -0.0354
  740POPI   PO410350   9.408   0.941   5.918 -0.0519  0.0542 -0.0284
  740POPI   GL110351   9.157   0.929   6.326 -0.0944 -0.0447 -0.0876
  740POPI   GL210352   9.362   0.865   6.415  0.0437 -0.0516  0.3318
  740POPI   C1A10353   9.043   1.080   6.695 -0.3423 -0.3660  0.1693
  740POPI   D2A10354   8.734   1.248   6.918 -0.0009 -0.1041  0.2396
  740POPI   C3A10355   8.874   1.570   7.241 -0.0161  0.0453  0.3797
  740POPI   C4A10356   8.826   1.717   7.688  0.3114 -0.0649  0.1920
  740POPI   C1B10357   9.507   0.754   6.875 -0.2220 -0.0298 -0.0729
  740POPI   C2B10358   9.504   0.741   7.273  0.0388  0.1016  0.1366
  740POPI   C3B10359   9.672   0.789   7.689  0.1110  0.2633 -0.1938
  740POPI   C4B10360   9.846   0.850   8.110  0.0390  0.1807 -0.0526
  741POPI    C110361   5.989   1.683   5.761 -0.2245  0.1718  0.1258
  741POPI    C210362   5.867   2.054   5.674 -0.0341  0.2546  0.2062
  741POPI    C310363   6.227   1.995   5.838 -0.0393  0.0288  0.1396
  741POPI   PO410364   5.697   1.596   5.876 -0.1538  0.1852 -0.0141
  741POPI   GL110365   5.611   1.621   6.251  0.1060 -0.1553 -0.1205
  741POPI   GL210366   5.864   1.861   6.274  0.1025  0.0503  0.1043
  741POPI   C1A10367   5.821   1.393   6.605 -0.1396 -0.0378  0.0200
  741POPI   D2A10368   6.012   1.399   7.050 -0.5223  0.2389 -0.1109
  741POPI   C3A10369   5.706   1.265   7.352 -0.0398  0.1960  0.0623
  741POPI   C4A10370   5.696   1.008   7.695 -0.1952  0.2371  0.2957
  741POPI   C1B10371   6.232   1.735   6.274  0.1213 -0.0074  0.0419
  741POPI   C2B10372   6.589   1.882   6.410 -0.1434  0.2281 -0.1512
  741POPI   C3B10373   6.738   1.996   6.707 -0.0705 -0.1686 -0.0226
  741POPI   C4B10374   6.860   1.954   7.110  0.0424 -0.0544  0.3573
  742POPS   CNO10375   7.092   8.144   5.982 -0.0332 -0.2667 -0.0810
  742POPS   PO410376   7.348   7.959   6.122 -0.3211  0.1012 -0.0390
  742POPS   GL110377   7.313   8.270   6.505 -0.0073  0.0136  0.3085
  742POPS   GL210378   7.609   8.303   6.621  0.0001 -0.1341  0.5316
  742POPS   C1A10379   7.157   8.374   6.929  0.1237  0.0943  0.2488
  742POPS   D2A10380   7.042   8.334   7.346 -0.2272  0.0880 -0.0588
  742POPS   C3A10381   7.094   8.064   7.520  0.0210  0.1355  0.0694
  742POPS   C4A10382   7.148   7.661   7.631  0.1219 -0.2493  0.1480
  742POPS   C1B10383   7.627   8.267   7.101  0.0116  0.1004  0.1525
  742POPS   C2B10384   7.564   8.444   7.584  0.1252  0.1078 -0.1320
  742POPS   C3B10385   7.269   8.661   7.892 -0.0824  0.1030 -0.4139
  742POPS   C4B10386   6.874   9.008   8.073  0.1270 -0.0595 -0.1151
  743POPS   CNO10387   8.433   4.535   6.002 -0.0294 -0.2190  0.3353
  743POPS   PO410388   8.553   4.854   6.235  0.1908 -0.2442  0.1812
  743POPS   GL110389   8.408   5.047   6.467  0.1812 -0.0778  0.2834
  743POPS   GL210390   8.048   5.118   6.559 -0.3447 -0.1706  0.2041
  743POPS   C1A10391   8.342   5.484   6.764  0.4915  0.0448 -0.0574
  743POPS   D2A10392   8.158   5.480   7.170 -0.0328  0.0564 -0.2863
  743POPS   C3A10393   7.979   5.907   7.398  0.2364  0.3590  0.1519
  743POPS   C4A10394   7.751   6.321   7.379  0.3863  0.0268  0.0801
  743POPS   C1B10395   7.911   5.189   6.886 -0.1181  0.1020  0.0055
  743POPS   C2B10396   7.773   5.243   7.322  0.1296 -0.1469  0.3166
  743POPS   C3B10397   8.081   5.364   7.648 -0.1756 -0.1420 -0.1535
  743POPS   C4B10398   8.412   5.368   7.928  0.0928 -0.1202 -0.2483
  744POPS   CNO10399  12.339   5.943   5.508 -0.2445  0.2374  0.0146
  744POPS   PO410400  12.601   6.036   5.875 -0.2435 -0.1000 -0.1732
  744POPS   GL110401  12.632   5.975   6.377  0.0404 -0.0209  0.0500
  744POPS   GL210402  12.329   5.988   6.302 -0.0701 -0.0203 -0.0317
  744POPS   C1A10403  12.744   6.013   6.838 -0.1043 -0.3700  0.0282
  744POPS   D2A10404  13.039   6.043   7.237 -0.1716  0.0160  0.1028
  744POPS   C3A10405  12.900   6.240   7.597  0.0188 -0.1956  0.0149
  744POPS   C4A10406  12.790   6.564   7.871 -0.0474 -0.1883 -0.0781
  744POPS   C1B10407  12.487   5.633   6.619 -0.0405  0.0135 -0.0089
  744POPS   C2B10408  12.582   5.268   6.753  0.0247  0.2894  0.2155
  744POPS   C3B10409  12.849   5.038   6.578 -0.0150 -0.1888  0.1498
  744POPS   C4B10410  12.810   4.690   6.304 -0.1942 -0.1989  0.1021
  745POPS   CNO10411   3.574  14.625   5.050 -0.0758  0.0566  0.1326
  745POPS   PO410412   3.239  14.557   5.364 -0.0600  0.1890  0.1483
  745POPS   GL110413   3.496  14.281   5.829 -0.3819  0.1739 -0.2165
  745POPS   GL210414   3.861  14.232   5.890 -0.1277 -0.1522  0.1748
  745POPS   C1A10415   3.485  14.098   6.346  0.4685 -0.1043 -0.0342
  745POPS   D2A10416   3.607  14.034   6.755 -0.0124 -0.0718  0.0637
  745POPS   C3A10417   3.442  13.701   7.127  0.0612 -0.1022  0.1256
  745POPS   C4A10418   3.344  13.547   7.568  0.0462  0.3682 -0.0660
  745POPS   C1B10419   3.870  14.423   6.376  0.0593 -0.2202  0.0237
  745POPS   C2B10420   3.906  14.425   6.866  0.1545  0.1489 -0.0980
  745POPS   C3B10421   3.845  14.258   7.257  0.2695  0.0707 -0.0797
  745POPS   C4B10422   3.711  13.903   7.567  0.4019  0.0428 -0.2035
  746POPS   CNO10423   0.478   7.562   5.603 -0.2472  0.0134 -0.0529
  746POPS   PO410424   0.529   7.801   5.961  0.1986  0.0506 -0.1425
  746POPS   GL110425   0.581   7.551   6.351  0.1745 -0.2239  0.0449
  746POPS   GL210426   0.853   7.642   6.607 -0.0679  0.4453  0.1867
  746POPS   C1A10427   0.202   7.403   6.498 -0.0866 -0.2178 -0.2816
  746POPS   D2A10428  -0.036   7.372   6.835 -0.1057 -0.1361  0.2595
  746POPS   C3A10429  -0.020   7.548   7.213  0.1055 -0.0571  0.1814
  746POPS   C4A10430   0.104   7.304   7.659  0.0051 -0.1776 -0.2319
  746POPS   C1B10431   0.842   7.839   6.980 -0.1342  0.1177  0.2932
  746POPS   C2B10432   0.934   8.061   7.354 -0.2269 -0.0343 -0.1064
  746POPS   C3B10433   0.808   8.014   7.711  0.0963 -0.3570 -0.1976
  746POPS   C4B10434   0.686   7.638   7.892 -0.1940 -0.1247 -0.0080
  747POPS   CNO10435   8.327  15.347   5.606  0.1804  0.4672  0.0926
  747POPS   PO410436   7.911  15.432   5.452  0.0159  0.0704  0.0061
  747POPS   GL110437   7.817  15.113   5.784 -0.0260  0.2478 -0.1271
  747POPS   GL210438   7.524  15.164   5.996 -0.1467  0.0021 -0.3646
  747POPS   C1A10439   7.811  15.470   6.273 -0.2202 -0.0471  0.0850
  747POPS   D2A10440   7.733  15.573   6.773  0.0289  0.0203  0.3785
  747POPS   C3A10441   7.459  15.337   6.986 -0.1065  0.0226 -0.0654
  747POPS   C4A10442   7.194  15.233   7.313  0.2484  0.0115  0.0637
  747POPS   C1B10443   7.454  14.681   6.241  0.1647 -0.0451 -0.2810
  747POPS   C2B10444   7.285  14.645   6.601  0.1858 -0.2658 -0.0404
  747POPS   C3B10445   7.612  14.677   6.865  0.1083 -0.1267  0.1219
  747POPS   C4B10446   8.019  14.749   6.996 -0.0203  0.1214 -0.1644
  748POPS   CNO10447   0.674  16.257   5.412  0.1242  0.2208 -0.2714
  748POPS   PO410448   0.466  16.152   5.843 -0.3275  0.1211  0.0881
  748POPS   GL110449   0.653  15.969   6.135  0.0094 -0.0394 -0.1390
  748POPS   GL210450   0.888  16.177   6.309  0.2049  0.0479  0.0150
  748POPS   C1A10451   0.727  15.799   6.612  0.3603  0.1582  0.2600
  748POPS   D2A10452   0.868  15.740   7.000 -0.2702 -0.0022  0.0966
  748POPS   C3A10453   0.930  15.429   7.238  0.2772 -0.0529  0.1757
  748POPS   C4A10454   0.657  15.174   7.642  0.3169 -0.2487  0.0026
  748POPS   C1B10455   1.111  16.378   6.676 -0.0921  0.0104 -0.0141
  748POPS   C2B10456   1.293  16.625   7.016  0.0725 -0.1695 -0.2679
  748POPS   C3B10457   1.404  16.562   7.414 -0.0206  0.1208  0.1210
  748POPS   C4B10458   1.618  16.398   7.733 -0.1756 -0.2089 -0.0375
  749POPS   CNO10459   5.768   4.017   5.201  0.0972 -0.3853 -0.0048
  749POPS   PO410460   5.493   4.085   5.611 -0.0668 -0.2851  0.2937
  749POPS   GL110461   5.341   4.023   6.115  0.0421  0.2185  0.0347
  749POPS   GL210462   4.960   4.009   6.166 -0.1274  0.1353  0.0223
  749POPS   C1A10463   5.561   3.800   6.437 -0.2440 -0.1355  0.0402
  749POPS   D2A10464   5.736   3.520   6.753  0.1955  0.2654 -0.0323
  749POPS   C3A10465   6.142   3.634   6.926 -0.1106 -0.2054 -0.0625
  749POPS   C4A10466   6.327   3.337   7.266 -0.0531 -0.2869  0.0807
  749POPS   C1B10467   4.746   3.914   6.599 -0.0434  0.1079  0.0742
  749POPS   C2B10468   4.748   3.570   6.961 -0.1980  0.3402  0.0234
  749POPS   C3B10469   4.415   3.241   7.055 -0.0576 -0.2407 -0.3655
  749POPS   C4B10470   4.353   2.962   7.434  0.0246  0.0170  0.1236
  750POPS   CNO10471  15.972  13.765   6.123 -0.1801 -0.0071 -0.1064
  750POPS   PO410472  15.749  14.112   5.905  0.1310 -0.0030 -0.0051
  750POPS   GL110473  15.658  14.079   6.321  0.1899  0.2076  0.1741
  750POPS   GL210474  15.256  14.123   6.314 -0.0553 -0.2883 -0.2037
  750POPS   C1A10475  15.640  14.203   6.736  0.2559  0.2176 -0.1301
  750POPS   D2A10476  15.759  14.478   7.054 -0.0384  0.0028  0.0956
  750POPS   C3A10477  15.749  14.414   7.548 -0.0547  0.0123  0.2602
  750POPS   C4A10478  15.474  14.562   7.919 -0.0848 -0.0193 -0.0334
  750POPS   C1B10479  15.254  14.454   6.512 -0.0998  0.3258 -0.1312
  750POPS   C2B10480  15.293  14.505   6.965  0.0822  0.0062 -0.3530
  750POPS   C3B10481  15.255  14.563   7.428 -0.0122  0.1509  0.2237
  750POPS   C4B10482  15.011  14.440   7.774 -0.1476  0.0335  0.1692
  751POPS   CNO10483   0.734   6.626   5.543  0.1077  0.0334  0.1444
  751POPS   PO410484   1.053   6.590   5.823 -0.1681 -0.1058 -0.2392
  751POPS   GL110485   0.880   6.690   6.043 -0.1363  0.0749  0.0995
  751POPS   GL210486   0.547   6.760   5.964  0.3330 -0.0405 -0.1732
  751POPS   C1A10487   0.848   6.592   6.439 -0.0913  0.1436  0.1383
  751POPS   D2A10488   0.734   6.192   6.627  0.0475  0.1227  0.2535
  751POPS   C3A10489   0.497   6.371   6.952 -0.0506  0.0718 -0.1924
  751POPS   C4A10490  -0.014   6.534   7.078 -0.2827 -0.0053  0.2949
  751POPS   C1B10491   0.427   6.889   6.480 -0.1008 -0.1598 -0.0633
  751POPS   C2B10492   0.247   6.891   6.891  0.2666 -0.1847  0.0399
  751POPS   C3B10493  -0.176   7.005   7.121  0.0495 -0.2479 -0.1310
  751POPS   C4B10494  -0.408   6.816   7.463  0.2294 -0.2394  0.0925
  752POPS   CNO10495  13.750  17.248   5.694  0.1897 -0.2545 -0.1519
  752POPS   PO410496  13.629  17.465   6.093 -0.3424 -0.1618  0.0728
  752POPS   GL110497  13.429  17.473   6.426 -0.1582 -0.0491 -0.0937
  752POPS   GL210498  13.471  17.799   6.593 -0.0257 -0.0240  0.1020
  752POPS   C1A10499  13.200  17.248   6.618  0.1561 -0.1891  0.1871
  752POPS   D2A10500  12.958  17.246   7.054  0.0417  0.1516 -0.0184
  752POPS   C3A10501  13.018  17.292   7.471  0.2712 -0.2056  0.3849
  752POPS   C4A10502  13.073  17.594   7.815 -0.2373 -0.1556  0.1419
  752POPS   C1B10503  13.643  17.902   6.992 -0.2849  0.0251 -0.0279
  752POPS   C2B10504  13.601  18.101   7.340 -0.3908  0.2560 -0.2743
  752POPS   C3B10505  13.597  18.050   7.780  0.0664 -0.3240 -0.0297
  752POPS   C4B10506  13.849  18.250   8.140  0.1564  0.5956  0.1238
  753POPS   CNO10507   3.510   6.359   6.832 -0.0346 -0.1018 -0.2694
  753POPS   PO410508   3.103   6.330   6.583  0.0837 -0.1035 -0.1081
  753POPS   GL110509   2.992   6.448   6.877 -0.2672 -0.5581 -0.0146
  753POPS   GL210510   3.050   6.763   6.965 -0.4633 -0.1609 -0.2793
  753POPS   C1A10511   2.773   6.318   7.226  0.0769 -0.4054  0.2330
  753POPS   D2A10512   2.898   6.361   7.692 -0.1495  0.1913 -0.1153
  753POPS   C3A10513   2.715   6.118   8.015  0.1313 -0.0656 -0.0666
  753POPS   C4A10514   2.683   5.975   8.396  0.0902 -0.0778  0.3662
  753POPS   C1B10515   3.182   6.887   7.406 -0.2185 -0.1949  0.1205
  753POPS   C2B10516   3.406   6.811   7.740 -0.2180 -0.0556 -0.0218
  753POPS   C3B10517   3.599   6.919   8.113  0.1494  0.1490  0.1680
  753POPS   C4B10518   3.749   6.850   8.464 -0.1121 -0.3466  0.0067
  754POPS   CNO10519  12.126  17.248   5.377 -0.0551  0.0245 -0.2409
  754POPS   PO410520  12.315  17.250   5.679 -0.0805 -0.2319  0.1641
  754POPS   GL110521  12.416  17.217   6.155 -0.1421 -0.2664  0.1986
  754POPS   GL210522  12.439  16.918   6.346  0.0534 -0.1245  0.1225
  754POPS   C1A10523  12.504  17.420   6.510 -0.2240  0.2229 -0.0567
  754POPS   D2A10524  12.437  17.435   6.921 -0.2111 -0.0501  0.2313
  754POPS   C3A10525  12.531  17.471   7.312 -0.2235  0.2038 -0.2677
  754POPS   C4A10526  12.658  17.741   7.523  0.3781 -0.1294  0.0994
  754POPS   C1B10527  12.722  17.038   6.688  0.1818  0.2387  0.1293
  754POPS   C2B10528  12.798  16.764   6.769  0.1736 -0.2488 -0.2525
  754POPS   C3B10529  13.045  16.469   6.742  0.1299  0.1066  0.0412
  754POPS   C4B10530  13.363  16.231   6.549  0.0965  0.1593  0.0928
  755POPS   CNO10531   2.790   1.668   5.630 -0.1979 -0.3396 -0.1118
  755POPS   PO410532   3.062   1.870   5.973 -0.4430  0.3607  0.2300
  755POPS   GL110533   2.896   1.666   6.248 -0.2748 -0.0214  0.0040
  755POPS   GL210534   2.961   1.887   6.496  0.2131  0.0294  0.0802
  755POPS   C1A10535   2.768   1.382   6.560 -0.0145 -0.1649 -0.2242
  755POPS   D2A10536   2.739   1.437   6.992  0.1701  0.0614  0.1133
  755POPS   C3A10537   3.033   1.697   7.183 -0.1305 -0.3716  0.1388
  755POPS   C4A10538   3.529   1.677   7.318 -0.1455  0.0209 -0.0323
  755POPS   C1B10539   2.637   1.851   6.796 -0.0865 -0.1048 -0.1689
  755POPS   C2B10540   2.521   1.801   7.248  0.0783  0.0564 -0.0102
  755POPS   C3B10541   2.394   1.459   7.476  0.0220 -0.2569  0.1350
  755POPS   C4B10542   2.064   1.181   7.334  0.3204 -0.2756 -0.0981
  756POPS   CNO10543   3.999   1.071   5.383  0.0492  0.2168 -0.3411
  756POPS   PO410544   3.849   0.799   5.674  0.0785 -0.0619  0.1641
  756POPS   GL110545   3.877   0.724   6.094  0.0112  0.0822  0.2016
  756POPS   GL210546   3.668   0.395   6.099 -0.1656  0.1780 -0.1869
  756POPS   C1A10547   3.962   0.681   6.433 -0.3067  0.1740 -0.1878
  756POPS   D2A10548   4.173   0.711   6.831 -0.0143 -0.2400 -0.0713
  756POPS   C3A10549   4.582   0.991   6.835 -0.2101 -0.1867 -0.2821
  756POPS   C4A10550   4.989   1.085   6.858 -0.0312  0.1261 -0.1503
  756POPS   C1B10551   3.463   0.561   6.468  0.0671 -0.0194  0.2342
  756POPS   C2B10552   3.236   0.701   6.770  0.5014 -0.0217 -0.0563
  756POPS   C3B10553   3.330   0.550   7.180 -0.0681 -0.0487  0.4271
  756POPS   C4B10554   3.409   0.815   7.544 -0.3039  0.0769  0.2717
  757POPS   CNO10555   7.331   5.954   5.410  0.0654  0.2681 -0.1051
  757POPS   PO410556   7.460   6.042   5.753  0.1085 -0.0147  0.2931
  757POPS   GL110557   7.540   5.885   6.165  0.0173 -0.1850  0.1893
  757POPS   GL210558   7.697   6.217   6.338  0.0643 -0.0894  0.3556
  757POPS   C1A10559   7.391   5.889   6.542 -0.0680 -0.1966 -0.3340
  757POPS   D2A10560   7.412   6.085   6.946  0.2113  0.0509 -0.1732
  757POPS   C3A10561   7.324   6.484   7.199  0.1688  0.0221  0.0273
  757POPS   C4A10562   7.374   6.588   7.645  0.2047  0.0968  0.1274
  757POPS   C1B10563   7.356   6.437   6.564  0.0082 -0.0115 -0.0658
  757POPS   C2B10564   6.985   6.230   6.807  0.2180 -0.1388  0.0238
  757POPS   C3B10565   6.986   6.150   7.302 -0.2350 -0.1574  0.0932
  757POPS   C4B10566   6.766   5.836   7.569 -0.2926  0.2330  0.0174
  758POPS   CNO10567   5.231   7.083   5.853 -0.1032 -0.3159  0.0053
  758POPS   PO410568   5.620   7.103   6.029  0.0949  0.1488  0.0141
  758POPS   GL110569   5.376   7.094   6.361  0.0051 -0.3179 -0.1367
  758POPS   GL210570   5.123   7.294   6.352  0.1831 -0.0897  0.0938
  758POPS   C1A10571   5.202   7.033   6.760 -0.2017  0.3157  0.0774
  758POPS   D2A10572   5.105   6.846   7.233  0.2134  0.2915  0.1674
  758POPS   C3A10573   4.691   6.614   7.364 -0.3499  0.2906 -0.1976
  758POPS   C4A10574   4.644   6.658   7.889 -0.3615  0.1904  0.0464
  758POPS   C1B10575   5.111   7.520   6.791 -0.1571  0.2474  0.3531
  758POPS   C2B10576   5.137   7.710   7.166  0.2647  0.2074 -0.0499
  758POPS   C3B10577   5.205   7.883   7.605  0.0835 -0.0153  0.1040
  758POPS   C4B10578   5.395   7.680   8.031  0.1238  0.0650 -0.2533
  759POPS   CNO10579  15.362  12.013   5.675 -0.2051 -0.1722 -0.2401
  759POPS   PO410580  15.417  12.445   5.882  0.1661 -0.0398  0.3820
  759POPS   GL110581  15.243  12.203   6.249  0.1150  0.0858  0.1414
  759POPS   GL210582  14.977  12.017   6.308 -0.0683  0.0182  0.2340
  759POPS   C1A10583  15.611  12.027   6.466  0.1584  0.0261 -0.1420
  759POPS   D2A10584  15.965  12.063   6.764  0.0826  0.1062  0.0459
  759POPS   C3A10585  16.028  12.213   7.231  0.1642 -0.1234 -0.0593
  759POPS   C4A10586  15.929  12.169   7.597  0.1807 -0.0891  0.1735
  759POPS   C1B10587  15.157  11.798   6.594 -0.0673 -0.3187 -0.0320
  759POPS   C2B10588  15.095  11.915   7.041  0.1901  0.1452 -0.2824
  759POPS   C3B10589  15.099  12.348   7.237  0.1362 -0.0785 -0.0760
  759POPS   C4B10590  15.163  12.510   7.586 -0.2325  0.1806  0.1358
  760POPS   CNO10591   9.048   8.263   5.658 -0.0497  0.1698 -0.1147
  760POPS   PO410592   9.218   8.430   5.942 -0.0791 -0.1804  0.0942
  760POPS   GL110593   9.221   8.533   6.303 -0.1590  0.2436 -0.0058
  760POPS   GL210594   8.973   8.566   6.469 -0.1729 -0.0361  0.1081
  760POPS   C1A10595   9.422   8.494   6.667 -0.2086 -0.3390  0.0248
  760POPS   D2A10596   9.480   8.661   7.031  0.1655  0.0155  0.0153
  760POPS   C3A10597   9.387   8.608   7.406  0.0099  0.1010 -0.1036
  760POPS   C4A10598   9.578   8.705   7.824 -0.0265 -0.1496  0.0742
  760POPS   C1B10599   8.967   8.682   6.933  0.2362 -0.1802  0.0613
  760POPS   C2B10600   8.847   8.530   7.331 -0.3115  0.0063  0.3836
  760POPS   C3B10601   8.729   8.236   7.718  0.0192 -0.0624 -0.0780
  760POPS   C4B10602   8.735   8.094   8.147  0.0900  0.0956  0.0356
  761POPS   CNO10603  11.840  11.956   5.594  0.1000  0.2908  0.0145
  761POPS   PO410604  11.759  12.375   5.471  0.0069 -0.1032  0.0967
  761POPS   GL110605  11.530  12.264   5.830 -0.1100 -0.3540 -0.0545
  761POPS   GL210606  11.783  12.197   6.035  0.1522  0.0597  0.2487
  761POPS   C1A10607  11.328  12.356   6.321  0.0598 -0.2004 -0.3523
  761POPS   D2A10608  11.124  12.437   6.739  0.1616  0.2633 -0.0107
  761POPS   C3A10609  10.914  12.206   7.139 -0.1032 -0.1856 -0.2270
  761POPS   C4A10610  11.040  11.776   7.214  0.0080  0.0048 -0.3704
  761POPS   C1B10611  11.832  12.457   6.439  0.0537  0.0841 -0.0249
  761POPS   C2B10612  11.626  12.605   6.762  0.1110 -0.0292  0.1784
  761POPS   C3B10613  11.374  12.652   7.118  0.3767 -0.5305  0.3669
  761POPS   C4B10614  11.002  12.682   7.414 -0.2742 -0.0393  0.0499
  762POPS   CNO10615   6.018  15.107   5.460 -0.0138 -0.4063  0.0791
  762POPS   PO410616   5.737  14.619   5.422 -0.0933  0.3332 -0.0205
  762POPS   GL110617   6.170  14.606   5.608 -0.2381  0.0913  0.1815
  762POPS   GL210618   6.345  14.369   5.532 -0.0203 -0.0530  0.0067
  762POPS   C1A10619   6.294  14.758   6.078 -0.2259  0.1032 -0.3862
  762POPS   D2A10620   6.556  14.997   6.332  0.1071 -0.0281  0.0784
  762POPS   C3A10621   6.497  14.912   6.835  0.1562 -0.1088 -0.1281
  762POPS   C4A10622   6.692  14.783   7.168  0.1098 -0.1791 -0.0005
  762POPS   C1B10623   6.375  14.179   5.946  0.1226 -0.0239 -0.2183
  762POPS   C2B10624   6.079  13.863   6.053 -0.2565 -0.0592 -0.0288
  762POPS   C3B10625   5.987  13.486   6.305  0.0810 -0.0269 -0.3441
  762POPS   C4B10626   6.048  12.987   6.326  0.1662 -0.0034  0.2220
  763POPS   CNO10627   2.614   7.577   6.233  0.2672 -0.1106  0.1614
  763POPS   PO410628   2.567   7.973   5.986 -0.0301  0.0776 -0.0398
  763POPS   GL110629   2.827   8.108   6.321 -0.2309  0.0922 -0.2430
  763POPS   GL210630   2.590   8.318   6.604  0.2855 -0.0031  0.2716
  763POPS   C1A10631   2.994   7.974   6.682  0.3454 -0.0713 -0.1887
  763POPS   D2A10632   2.882   7.787   7.013  0.4039 -0.1906 -0.0270
  763POPS   C3A10633   2.931   7.864   7.441 -0.1280  0.0240  0.0907
  763POPS   C4A10634   2.923   8.042   7.806  0.1751 -0.1207 -0.2156
  763POPS   C1B10635   2.682   8.230   7.009  0.2050  0.1581 -0.0725
  763POPS   C2B10636   3.101   8.246   7.200  0.1426 -0.2661 -0.0113
  763POPS   C3B10637   3.311   8.331   7.596  0.1105  0.2656  0.0375
  763POPS   C4B10638   3.485   8.318   8.035  0.4279  0.2300  0.1929
  764POPS   CNO10639  12.738  16.253   5.682 -0.0020  0.0916 -0.1878
  764POPS   PO410640  12.791  16.479   6.008  0.2177  0.0906  0.1777
  764POPS   GL110641  12.656  16.375   6.395 -0.0453 -0.0091 -0.1843
  764POPS   GL210642  12.409  16.485   6.600 -0.2268  0.5958  0.1761
  764POPS   C1A10643  12.630  16.103   6.844  0.1747  0.0690 -0.2138
  764POPS   D2A10644  12.567  16.082   7.303 -0.0095 -0.1076 -0.1879
  764POPS   C3A10645  12.352  16.338   7.495  0.2311  0.4059 -0.1673
  764POPS   C4A10646  12.217  16.545   7.751 -0.3404  0.0635 -0.0883
  764POPS   C1B10647  12.121  16.290   6.853 -0.2505  0.0841 -0.1436
  764POPS   C2B10648  11.873  16.295   7.202 -0.1195 -0.0329 -0.0074
  764POPS   C3B10649  11.842  16.235   7.711 -0.0347 -0.2680 -0.1384
  764POPS   C4B10650  11.537  16.110   7.996 -0.0164  0.0862 -0.0049
  765POPS   CNO10651  18.039  10.896   5.408 -0.2362 -0.2463 -0.0449
  765POPS   PO410652  17.911  10.855   5.752  0.1673  0.1241 -0.4121
  765POPS   GL110653  18.001  10.880   6.197 -0.1819  0.1468  0.3360
  765POPS   GL210654  17.738  10.788   6.345  0.4365  0.1510  0.2397
  765POPS   C1A10655  18.129  10.653   6.588 -0.0810  0.1569 -0.5205
  765POPS   D2A10656  17.966  10.408   6.913  0.3396  0.1079 -0.1131
  765POPS   C3A10657  18.318  10.161   7.109  0.2163 -0.4671  0.3164
  765POPS   C4A10658  18.797  10.201   7.137  0.0123  0.2209  0.2455
  765POPS   C1B10659  17.634  10.837   6.749  0.1548  0.4517  0.1605
  765POPS   C2B10660  17.757  10.868   7.164  0.0600  0.4937 -0.1565
  765POPS   C3B10661  17.869  11.002   7.477 -0.3159  0.4496 -0.1002
  765POPS   C4B10662  18.282  11.083   7.753 -0.1167 -0.0540  0.4744
  766POPS   CNO10663   2.575   9.217   5.964 -0.3010 -0.1579  0.1221
  766POPS   PO410664   2.556   9.610   6.152 -0.4361  0.3745 -0.3194
  766POPS   GL110665   2.494   9.451   6.575 -0.0370 -0.0021  0.2694
  766POPS   GL210666   2.248   9.571   6.672 -0.0025 -0.3195 -0.2759
  766POPS   C1A10667   2.670   9.206   6.895  0.0122 -0.0380 -0.4820
  766POPS   D2A10668   2.828   9.253   7.335 -0.1445  0.3672  0.2136
  766POPS   C3A10669   3.240   9.510   7.565  0.0748 -0.0629 -0.0291
  766POPS   C4A10670   3.532   9.786   7.752 -0.1775  0.1370  0.1142
  766POPS   C1B10671   2.532   9.626   7.101  0.1938 -0.2154  0.4309
  766POPS   C2B10672   2.461   9.642   7.475  0.0854 -0.1653  0.0373
  766POPS   C3B10673   2.593   9.434   7.861  0.1718  0.2971  0.1276
  766POPS   C4B10674   2.934   9.023   7.786 -0.1111  0.2299 -0.1669
  767POPS   CNO10675  15.367   9.424   6.042  0.0531  0.1824 -0.0360
  767POPS   PO410676  14.913   9.515   5.980  0.1977 -0.2751  0.1069
  767POPS   GL110677  14.824   9.343   6.379  0.1375 -0.0426  0.0600
  767POPS   GL210678  14.804   8.909   6.304 -0.0227 -0.0383  0.3776
  767POPS   C1A10679  14.970   9.189   6.753 -0.0229 -0.0036  0.1754
  767POPS   D2A10680  14.894   8.946   7.079 -0.0068 -0.0036  0.1887
  767POPS   C3A10681  14.767   9.049   7.475  0.0691 -0.1510 -0.2474
  767POPS   C4A10682  14.863   8.958   7.892  0.0714 -0.2005  0.0497
  767POPS   C1B10683  14.834   8.685   6.633 -0.1715 -0.0564  0.1500
  767POPS   C2B10684  14.901   8.423   6.991 -0.0668  0.0708 -0.1531
  767POPS   C3B10685  14.691   8.335   7.426  0.1017  0.3899 -0.4119
  767POPS   C4B10686  14.502   8.046   7.751 -0.0966  0.1836  0.2178
  768POPS   CNO10687  10.948  14.314   5.361 -0.0984  0.1442 -0.2579
  768POPS   PO410688  11.188  13.947   5.357  0.0718  0.1598 -0.5342
  768POPS   GL110689  11.389  13.722   5.748  0.2075  0.2658  0.3022
  768POPS   GL210690  11.079  13.592   5.851  0.0491 -0.0347  0.1662
  768POPS   C1A10691  11.493  13.509   6.189  0.1370 -0.1127 -0.0925
  768POPS   D2A10692  11.762  13.425   6.534 -0.1256 -0.0965  0.1290
  768POPS   C3A10693  11.723  13.542   6.940 -0.0684  0.0272 -0.1108
  768POPS   C4A10694  11.805  13.648   7.301 -0.0240  0.0916  0.0047
  768POPS   C1B10695  11.005  13.278   6.161  0.0637 -0.0104 -0.2119
  768POPS   C2B10696  10.918  13.145   6.626 -0.2143 -0.1158  0.2645
  768POPS   C3B10697  11.050  13.102   7.043 -0.2631  0.0223  0.1344
  768POPS   C4B10698  11.026  13.287   7.493  0.0730  0.2298  0.1057
  769POPS   CNO10699  10.907   6.436   5.609  0.2014 -0.1141 -0.1192
  769POPS   PO410700  10.650   6.608   5.907 -0.2118  0.2414 -0.0952
  769POPS   GL110701  10.493   6.444   6.224  0.1268 -0.1194 -0.2548
  769POPS   GL210702  10.556   6.160   6.408  0.2960 -0.0357 -0.1064
  769POPS   C1A10703  10.503   6.649   6.590 -0.3157  0.0136 -0.0897
  769POPS   D2A10704  10.455   6.776   7.044 -0.2571  0.0267 -0.0824
  769POPS   C3A10705  10.813   6.940   7.254  0.4300 -0.0351 -0.1756
  769POPS   C4A10706  10.943   6.919   7.738  0.1345 -0.0693  0.1163
  769POPS   C1B10707  10.382   6.216   6.818  0.1291  0.1518  0.0522
  769POPS   C2B10708  10.251   6.297   7.191 -0.0545  0.0845 -0.1373
  769POPS   C3B10709  10.218   6.275   7.657  0.3285 -0.1630  0.2379
  769POPS   C4B10710  10.101   6.486   7.954  0.1189  0.0626 -0.1164
  770POPS   CNO10711   9.925   1.203   5.521 -0.1376 -0.1446 -0.3216
  770POPS   PO410712   9.707   1.363   5.834 -0.2637  0.0439 -0.0684
  770POPS   GL110713   9.581   1.374   6.195  0.1144  0.0742  0.1220
  770POPS   GL210714   9.285   1.460   6.383 -0.0805  0.2487 -0.1334
  770POPS   C1A10715   9.682   1.210   6.677 -0.0360 -0.2063  0.0966
  770POPS   D2A10716   9.435   1.290   6.962  0.2223  0.0149 -0.3305
  770POPS   C3A10717   9.163   1.068   7.161  0.1130 -0.1589  0.0651
  770POPS   C4A10718   8.882   0.821   7.282 -0.1254  0.2064  0.1625
  770POPS   C1B10719   9.612   1.714   6.602  0.1022 -0.1441  0.2038
  770POPS   C2B10720   9.715   1.792   7.041 -0.4306 -0.1839 -0.0088
  770POPS   C3B10721   9.873   1.680   7.420  0.2744  0.3256 -0.4459
  770POPS   C4B10722   9.921   1.779   7.867  0.0992  0.0491 -0.0583
  771POPS   CNO10723  16.388   4.682   5.704  0.0343  0.1256 -0.3291
  771POPS   PO410724  16.643   4.288   5.745  0.0666  0.0112 -0.4599
  771POPS   GL110725  16.438   4.193   6.153 -0.1563  0.2519  0.1566
  771POPS   GL210726  16.713   4.226   6.308 -0.0071 -0.2179 -0.1075
  771POPS   C1A10727  16.252   4.094   6.564 -0.0087  0.0595  0.1836
  771POPS   D2A10728  16.028   4.286   6.991 -0.0124  0.0457  0.0311
  771POPS   C3A10729  16.274   4.250   7.343  0.1506 -0.0508 -0.1645
  771POPS   C4A10730  16.342   3.862   7.640 -0.2679  0.0408  0.0633
  771POPS   C1B10731  16.634   4.444   6.673  0.3845 -0.0624 -0.0922
  771POPS   C2B10732  16.563   4.336   6.991  0.1910 -0.2320 -0.2154
  771POPS   C3B10733  16.799   4.083   7.251  0.0489  0.0190  0.0233
  771POPS   C4B10734  16.925   3.756   7.397  0.2148  0.3193 -0.1169
  772POPS   CNO10735   3.502  16.955   5.169 -0.2145  0.1164 -0.2413
  772POPS   PO410736   3.539  16.666   5.420 -0.1522 -0.2972 -0.1534
  772POPS   GL110737   3.462  16.701   5.778  0.2119 -0.0206 -0.0433
  772POPS   GL210738   3.513  16.525   5.975 -0.0757 -0.0099  0.0320
  772POPS   C1A10739   3.423  17.013   6.110  0.1862 -0.0289 -0.1143
  772POPS   D2A10740   3.448  16.866   6.522 -0.0218  0.1399  0.0304
  772POPS   C3A10741   3.124  16.615   6.745  0.2498  0.0414  0.2088
  772POPS   C4A10742   3.081  16.683   7.113 -0.4496 -0.2236  0.1434
  772POPS   C1B10743   3.280  16.459   6.239  0.0864  0.0555 -0.2896
  772POPS   C2B10744   3.070  16.165   6.490  0.1198  0.2284  0.0806
  772POPS   C3B10745   3.012  15.833   6.895  0.3358  0.3607  0.0449
  772POPS   C4B10746   2.937  15.550   7.201  0.1445 -0.0959  0.0096
  773POPS   CNO10747   7.999   0.781   5.664 -0.0373 -0.2177  0.0416
  773POPS   PO410748   7.927   0.902   6.085  0.1330  0.3277  0.2810
  773POPS   GL110749   7.659   0.913   6.432  0.0805 -0.3071 -0.3004
  773POPS   GL210750   7.717   0.581   6.608  0.1685  0.1298 -0.0992
  773POPS   C1A10751   7.460   1.106   6.787 -0.0086  0.2204 -0.0482
  773POPS   D2A10752   7.248   0.970   7.043 -0.0747  0.0311  0.1047
  773POPS   C3A10753   7.325   1.168   7.396 -0.1100  0.0810 -0.0253
  773POPS   C4A10754   7.388   1.267   7.796 -0.0034  0.0111 -0.0870
  773POPS   C1B10755   7.607   0.594   6.958 -0.0761  0.0042 -0.3202
  773POPS   C2B10756   7.535   0.577   7.478  0.0096 -0.1339  0.1455
  773POPS   C3B10757   7.413   0.765   7.961  0.1085  0.0963 -0.0774
  773POPS   C4B10758   7.547   1.079   8.260  0.0034  0.1358  0.0524
  774POPS   CNO10759   5.390  16.327   5.435  0.2237 -0.0713  0.1052
  774POPS   PO410760   4.979  16.056   5.661  0.2098  0.1332  0.0842
  774POPS   GL110761   4.731  15.961   6.056 -0.0938 -0.1710  0.0023
  774POPS   GL210762   4.413  15.935   6.073 -0.0120  0.0626 -0.0046
  774POPS   C1A10763   4.758  15.940   6.536  0.2042  0.1994 -0.0542
  774POPS   D2A10764   4.624  15.986   6.915  0.2966  0.0266 -0.1583
  774POPS   C3A10765   4.411  15.615   7.199 -0.3393 -0.1601 -0.0349
  774POPS   C4A10766   4.641  15.535   7.593 -0.0080  0.1052 -0.3522
  774POPS   C1B10767   4.152  16.069   6.363  0.4467  0.1285 -0.0304
  774POPS   C2B10768   4.088  16.076   6.926 -0.0491 -0.3787  0.1813
  774POPS   C3B10769   3.950  16.294   7.240  0.1876 -0.0262  0.1792
  774POPS   C4B10770   3.860  16.654   7.507  0.2249  0.1263 -0.2117
  775POPS   CNO10771  10.178   4.671   5.495  0.0817 -0.0073 -0.5213
  775POPS   PO410772  10.172   4.631   5.897 -0.0190 -0.1337 -0.1208
  775POPS   GL110773  10.405   4.881   6.103 -0.0140  0.1032 -0.2556
  775POPS   GL210774  10.392   4.747   6.410 -0.1295 -0.0487  0.1017
  775POPS   C1A10775  10.630   5.178   6.469 -0.1976 -0.1418 -0.0154
  775POPS   D2A10776  10.597   5.384   6.754  0.3065 -0.0702  0.2843
  775POPS   C3A10777  10.536   5.311   7.180 -0.0224 -0.0437 -0.0091
  775POPS   C4A10778  10.527   5.199   7.654  0.0582 -0.0646 -0.2862
  775POPS   C1B10779  10.416   4.878   6.837 -0.3335  0.0758  0.0351
  775POPS   C2B10780  10.305   4.921   7.304 -0.0642  0.1258  0.0886
  775POPS   C3B10781  10.247   4.819   7.783 -0.0709 -0.2229  0.0810
  775POPS   C4B10782  10.287   4.507   8.051  0.1766 -0.3739  0.1483
  776POPS   CNO10783  14.032   4.120   6.257 -0.2802  0.1864  0.1902
  776POPS   PO410784  14.324   3.816   6.259  0.0467 -0.4149  0.0959
  776POPS   GL110785  14.488   3.723   6.618 -0.1429 -0.2624  0.1604
  776POPS   GL210786  14.331   3.403   6.674  0.2141  0.0629  0.0031
  776POPS   C1A10787  14.858   3.818   6.910  0.1181  0.0908  0.2047
  776POPS   D2A10788  15.197   4.056   6.933 -0.1176 -0.1151 -0.1678
  776POPS   C3A10789  15.351   3.999   7.342 -0.1901 -0.5818 -0.0154
  776POPS   C4A10790  15.459   4.128   7.739 -0.2680 -0.2742 -0.0037
  776POPS   C1B10791  14.112   3.603   7.062 -0.0855 -0.1139 -0.1553
  776POPS   C2B10792  14.421   3.823   7.293 -0.0449 -0.0661  0.3171
  776POPS   C3B10793  14.145   4.015   7.660 -0.1177 -0.0121 -0.0433
  776POPS   C4B10794  14.155   4.382   7.818  0.2282 -0.2182  0.2201
  777POPS   CNO10795  16.892  10.184   5.659  0.0849 -0.0709  0.2589
  777POPS   PO410796  17.129  10.485   5.833 -0.4429 -0.0560  0.0158
  777POPS   GL110797  17.223  10.436   6.319 -0.0258  0.0791  0.0769
  777POPS   GL210798  17.221  10.733   6.458 -0.0459 -0.1028 -0.2498
  777POPS   C1A10799  17.452  10.386   6.748  0.0718  0.0995  0.0873
  777POPS   D2A10800  17.399  10.436   7.134 -0.0291  0.0056  0.1115
  777POPS   C3A10801  17.532  10.539   7.499 -0.0673  0.1816 -0.1044
  777POPS   C4A10802  17.797  10.640   7.846 -0.0368 -0.0592 -0.0429
  777POPS   C1B10803  17.217  11.093   6.484 -0.2449  0.0899 -0.0463
  777POPS   C2B10804  17.496  11.306   6.749 -0.2161  0.1177 -0.0034
  777POPS   C3B10805  17.763  11.389   7.118 -0.1732  0.2147  0.2680
  777POPS   C4B10806  17.991  11.476   7.465 -0.1973 -0.1468  0.0329
  778POPS   CNO10807  16.898  16.217   5.760 -0.1247  0.0062  0.0405
  778POPS   PO410808  16.968  16.598   5.803  0.2155  0.0894  0.2254
  778POPS   GL110809  17.045  16.694   6.247 -0.0536  0.0919  0.0635
  778POPS   GL210810  16.907  16.962   6.342 -0.0973 -0.1582 -0.0905
  778POPS   C1A10811  17.096  16.483   6.701 -0.0311 -0.2209  0.0086
  778POPS   D2A10812  17.238  16.453   7.035 -0.2141 -0.0672 -0.0007
  778POPS   C3A10813  17.073  16.576   7.489 -0.0686  0.1299  0.0387
  778POPS   C4A10814  17.068  16.756   7.915  0.1586 -0.0664  0.2683
  778POPS   C1B10815  17.019  16.976   6.803 -0.1095 -0.0525 -0.1601
  778POPS   C2B10816  16.818  16.875   7.204 -0.0388  0.1076 -0.0709
  778POPS   C3B10817  16.678  17.018   7.601  0.1095  0.2329  0.1353
  778POPS   C4B10818  16.916  17.230   7.925 -0.0695  0.0196 -0.0252
  779POPS   CNO10819  14.828   9.800   5.560 -0.1935 -0.2184  0.2359
  779POPS   PO410820  14.820  10.195   5.692  0.1093 -0.2658 -0.0842
  779POPS   GL110821  14.722  10.003   6.077 -0.1022  0.1019  0.1119
  779POPS   GL210822  14.881   9.950   6.268 -0.1773  0.0681 -0.2024
  779POPS   C1A10823  14.402   9.704   6.402 -0.0431 -0.0190 -0.0260
  779POPS   D2A10824  14.295   9.462   6.705  0.0381 -0.0061 -0.0755
  779POPS   C3A10825  13.981   9.147   6.630 -0.0260  0.1058  0.1083
  779POPS   C4A10826  14.018   8.939   6.879 -0.0809  0.1095 -0.0533
  779POPS   C1B10827  15.231   9.633   6.522  0.1242  0.0747  0.0996
  779POPS   C2B10828  15.517   9.683   6.899  0.0949  0.2055 -0.0659
  779POPS   C3B10829  15.649   9.411   7.179 -0.1749 -0.1439  0.0153
  779POPS   C4B10830  15.722   9.382   7.632 -0.1225 -0.3243  0.3060
  780POPS   CNO10831  12.475   6.598   5.253 -0.0662  0.0519  0.3636
  780POPS   PO410832  12.419   6.525   5.726 -0.0811  0.2887 -0.0275
  780POPS   GL110833  12.462   6.452   6.106 -0.0308 -0.1659 -0.2590
  780POPS   GL210834  12.369   6.769   6.239  0.2117 -0.1902 -0.1173
  780POPS   C1A10835  12.532   6.477   6.547  0.0925 -0.3396 -0.3284
  780POPS   D2A10836  12.521   6.440   7.023 -0.0241  0.0026  0.1197
  780POPS   C3A10837  12.816   6.585   7.242 -0.1515 -0.1494  0.0960
  780POPS   C4A10838  12.828   7.022   7.454  0.0250 -0.1510  0.2718
  780POPS   C1B10839  12.156   6.759   6.661 -0.0599 -0.1413 -0.1355
  780POPS   C2B10840  12.001   6.584   7.113  0.0129 -0.2032 -0.2109
  780POPS   C3B10841  11.934   6.361   7.418 -0.1232  0.0791  0.0888
  780POPS   C4B10842  12.079   6.141   7.785 -0.0429  0.0232 -0.1039
  781POPS   CNO10843   9.109   8.871   5.781  0.2012 -0.1521  0.0646
  781POPS   PO410844   8.787   8.677   5.982  0.1451 -0.0200  0.0170
  781POPS   GL110845   8.798   9.100   6.202  0.2051 -0.0005 -0.1350
  781POPS   GL210846   8.734   9.023   6.583 -0.1547 -0.0281  0.2902
  781POPS   C1A10847   8.735   9.496   6.326  0.1506  0.4567  0.3151
  781POPS   D2A10848   8.932   9.848   6.560 -0.2707 -0.0608 -0.3493
  781POPS   C3A10849   9.332  10.016   6.484  0.0116  0.0258  0.0020
  781POPS   C4A10850   9.747  10.304   6.453  0.0946 -0.2966 -0.4194
  781POPS   C1B10851   8.783   9.278   6.868  0.0393  0.0208 -0.0298
  781POPS   C2B10852   8.550   9.373   7.151 -0.0998 -0.2234 -0.0884
  781POPS   C3B10853   8.372   9.702   7.476  0.0162 -0.0383 -0.0064
  781POPS   C4B10854   8.034   9.762   7.855  0.0518  0.1685  0.1222
  782POPS   CNO10855  14.937  11.736   5.872  0.2775  0.2276  0.2355
  782POPS   PO410856  14.602  11.912   5.930  0.1322 -0.1697 -0.0365
  782POPS   GL110857  14.357  11.901   6.221 -0.0822 -0.1455  0.0815
  782POPS   GL210858  14.104  12.226   6.243  0.0300  0.2080  0.3572
  782POPS   C1A10859  14.328  11.774   6.603 -0.0223 -0.1486 -0.1417
  782POPS   D2A10860  14.258  11.710   7.021  0.0412  0.2043  0.2421
  782POPS   C3A10861  14.611  11.689   7.300 -0.0557 -0.0377 -0.0543
  782POPS   C4A10862  14.693  11.557   7.638  0.1178 -0.2219 -0.1753
  782POPS   C1B10863  14.075  12.227   6.675 -0.0138 -0.3179  0.1644
  782POPS   C2B10864  13.998  12.176   7.017 -0.0102  0.2683 -0.3208
  782POPS   C3B10865  13.935  12.192   7.553 -0.0213  0.1330 -0.0572
  782POPS   C4B10866  13.828  11.887   7.833  0.0974 -0.1883  0.1397
  783POPS   CNO10867   7.330  13.462   5.079  0.1151 -0.0055  0.1904
  783POPS   PO410868   7.092  13.355   5.441  0.0620 -0.1444 -0.0396
  783POPS   GL110869   6.822  13.223   5.721  0.2071  0.0229 -0.1269
  783POPS   GL210870   6.708  12.971   5.588 -0.0227 -0.1455 -0.0530
  783POPS   C1A10871   6.919  13.165   6.108  0.0097  0.0838  0.0902
  783POPS   D2A10872   6.899  13.283   6.643 -0.1697  0.1084  0.1424
  783POPS   C3A10873   6.789  13.023   6.985 -0.0063  0.2551 -0.2622
  783POPS   C4A10874   6.587  12.682   7.119  0.0619 -0.1729  0.0712
  783POPS   C1B10875   6.578  12.860   6.016 -0.0913 -0.0377  0.0025
  783POPS   C2B10876   6.545  13.004   6.439 -0.0377 -0.0547  0.1526
  783POPS   C3B10877   6.323  12.907   6.802 -0.0471  0.2130 -0.2037
  783POPS   C4B10878   5.841  12.896   6.757  0.0629 -0.1463 -0.4694
  784POPS   CNO10879  14.835   7.901   5.631  0.2178  0.1906  0.3477
  784POPS   PO410880  14.586   8.135   5.806 -0.0202 -0.2932 -0.1224
  784POPS   GL110881  14.662   8.112   6.229  0.1287  0.0207  0.0760
  784POPS   GL210882  14.583   8.415   6.277 -0.0201  0.2759  0.2198
  784POPS   C1A10883  14.804   8.118   6.625 -0.1837 -0.3609 -0.0966
  784POPS   D2A10884  14.506   8.022   6.965  0.0001 -0.2092  0.3418
  784POPS   C3A10885  14.273   8.124   7.337 -0.1068  0.1528  0.0423
  784POPS   C4A10886  14.064   7.892   7.807  0.1641 -0.0920  0.2481
  784POPS   C1B10887  14.344   8.731   6.397  0.1191  0.0732  0.1460
  784POPS   C2B10888  14.498   9.005   6.749 -0.1146  0.2234  0.0880
  784POPS   C3B10889  14.473   9.321   7.128  0.2781  0.1251  0.0725
  784POPS   C4B10890  14.328   9.737   7.259  0.0564  0.2454 -0.1682
  785POPS   CNO10891  10.761   9.048   6.057 -0.0658  0.1024  0.1353
  785POPS   PO410892  11.069   9.154   5.661  0.0512  0.0926  0.3394
  785POPS   GL110893  11.236   8.892   6.096 -0.3103  0.0116  0.1471
  785POPS   GL210894  11.435   8.920   6.263 -0.1081 -0.1429  0.0903
  785POPS   C1A10895  10.977   8.872   6.405  0.0310  0.0874 -0.3205
  785POPS   D2A10896  10.717   8.683   6.778 -0.3495 -0.0698 -0.2469
  785POPS   C3A10897  10.811   8.728   7.213 -0.4832  0.2847 -0.1543
  785POPS   C4A10898  10.612   8.374   7.556 -0.1320 -0.1841 -0.2272
  785POPS   C1B10899  11.428   8.669   6.607 -0.0200 -0.1457 -0.1089
  785POPS   C2B10900  11.712   8.599   7.011  0.0341 -0.0919 -0.3563
  785POPS   C3B10901  11.906   8.844   7.284 -0.1863 -0.0626 -0.1032
  785POPS   C4B10902  11.923   8.964   7.831 -0.1183 -0.1080 -0.0411
  786POPS   CNO10903   7.950  14.032   5.291 -0.2558 -0.0113 -0.2300
  786POPS   PO410904   8.317  13.999   5.228  0.0494  0.0464 -0.2563
  786POPS   GL110905   8.320  13.959   5.633 -0.2517  0.1897 -0.0991
  786POPS   GL210906   7.971  13.819   5.819  0.5586 -0.1762  0.0966
  786POPS   C1A10907   8.491  13.722   5.975 -0.2043 -0.0621  0.2397
  786POPS   D2A10908   8.370  13.586   6.347  0.0854  0.0042 -0.0842
  786POPS   C3A10909   8.279  13.161   6.477  0.4414  0.0401  0.0844
  786POPS   C4A10910   8.179  13.186   6.914  0.1542  0.0324  0.1033
  786POPS   C1B10911   7.927  13.916   6.278  0.2741 -0.0190  0.0039
  786POPS   C2B10912   8.078  13.756   6.691 -0.1644 -0.1596  0.2144
  786POPS   C3B10913   8.284  13.777   7.099 -0.3829  0.1690  0.2861
  786POPS   C4B10914   8.347  13.432   7.466  0.1183  0.0512  0.3197
  787POPS   CNO10915  17.363   0.625   5.506 -0.1589  0.1445  0.0063
  787POPS   PO410916  17.326   0.330   5.868  0.1202 -0.0268 -0.1378
  787POPS   GL110917  17.341   0.059   6.213  0.0529  0.0835 -0.0713
  787POPS   GL210918  17.309  -0.278   6.267  0.0328 -0.1673 -0.5504
  787POPS   C1A10919  17.094   0.102   6.609  0.0245 -0.1835  0.3168
  787POPS   D2A10920  16.953   0.090   7.026  0.3992  0.0828 -0.0889
  787POPS   C3A10921  16.604   0.340   7.078  0.0539  0.0158  0.0091
  787POPS   C4A10922  16.565   0.531   6.695 -0.1968 -0.1269  0.1998
  787POPS   C1B10923  17.298  -0.375   6.741 -0.1200  0.2668  0.0093
  787POPS   C2B10924  17.187  -0.316   7.181  0.2884  0.0154  0.3920
  787POPS   C3B10925  17.208   0.124   7.443  0.0508  0.0703 -0.0409
  787POPS   C4B10926  17.554   0.402   7.699  0.2379  0.1179  0.0978
  788POPS   CNO10927   5.919   6.873   5.648  0.0086 -0.1566  0.1812
  788POPS   PO410928   5.955   6.736   6.022  0.0732  0.1614  0.1523
  788POPS   GL110929   5.874   6.792   6.430 -0.3518 -0.0107  0.1562
  788POPS   GL210930   5.884   7.107   6.417 -0.1534  0.1956  0.1665
  788POPS   C1A10931   6.043   6.754   6.842  0.1330  0.1119  0.1124
  788POPS   D2A10932   5.924   6.884   7.163  0.0574 -0.0410  0.0810
  788POPS   C3A10933   5.925   7.160   7.479  0.0593 -0.0657 -0.2384
  788POPS   C4A10934   5.949   7.578   7.739  0.0101 -0.0774 -0.1036
  788POPS   C1B10935   5.664   7.191   6.741  0.2261  0.0277  0.0949
  788POPS   C2B10936   5.469   7.222   7.159 -0.1691 -0.0362  0.1519
  788POPS   C3B10937   5.234   7.377   7.552 -0.1828 -0.0486  0.1651
  788POPS   C4B10938   4.927   7.497   7.887  0.1046 -0.1829  0.1146
  789POPS   CNO10939   0.886  14.685   5.442  0.0616 -0.0967  0.0233
  789POPS   PO410940   0.633  14.449   5.700  0.3406  0.2509  0.0342
  789POPS   GL110941   0.787  14.363   6.161  0.2143 -0.0314 -0.1551
  789POPS   GL210942   1.077  14.468   6.266  0.1865 -0.0293  0.3654
  789POPS   C1A10943   0.789  14.201   6.573 -0.0887 -0.4257 -0.0842
  789POPS   D2A10944   0.843  14.142   6.953  0.0990 -0.2526  0.3767
  789POPS   C3A10945   0.739  14.094   7.293  0.0131 -0.0106 -0.1055
  789POPS   C4A10946   0.500  13.880   7.586  0.1192  0.1558  0.1028
  789POPS   C1B10947   0.753  14.714   6.518  0.3312  0.0962  0.1277
  789POPS   C2B10948   0.649  14.636   6.957 -0.3205  0.0210 -0.0741
  789POPS   C3B10949   0.914  14.583   7.365  0.0798  0.0076  0.3125
  789POPS   C4B10950   0.930  14.637   7.811  0.0010 -0.1133 -0.0862
  790POPS   CNO10951  16.117  16.362   5.611  0.1468 -0.1257  0.4893
  790POPS   PO410952  15.866  16.407   5.973  0.1319 -0.3095 -0.1737
  790POPS   GL110953  15.799  16.580   6.475  0.0534 -0.0422  0.1423
  790POPS   GL210954  16.044  16.420   6.676  0.0044  0.0543 -0.4274
  790POPS   C1A10955  15.502  16.391   6.717 -0.0128  0.2324  0.0114
  790POPS   D2A10956  15.118  16.291   6.869 -0.1047  0.0507 -0.1064
  790POPS   C3A10957  14.985  16.149   7.310  0.0930  0.1596  0.0386
  790POPS   C4A10958  14.761  15.883   7.575  0.2086  0.0582 -0.1558
  790POPS   C1B10959  15.848  16.366   7.096 -0.0987 -0.0252 -0.2638
  790POPS   C2B10960  15.699  16.479   7.506 -0.2038  0.0856  0.0467
  790POPS   C3B10961  15.545  16.568   7.969 -0.0904 -0.0752  0.1631
  790POPS   C4B10962  15.567  16.877   8.356  0.0607  0.1536  0.1907
  791POPS   CNO10963   9.861   7.876   5.919 -0.2216 -0.0975 -0.2444
  791POPS   PO410964   9.610   7.529   6.005 -0.2117 -0.2485  0.0627
  791POPS   GL110965   9.365   7.438   6.387  0.1575 -0.0644  0.0315
  791POPS   GL210966   9.521   7.665   6.516 -0.0248  0.0653  0.2710
  791POPS   C1A10967   9.360   7.238   6.768 -0.1136  0.1603 -0.0657
  791POPS   D2A10968   9.545   7.051   7.184 -0.1907 -0.1988 -0.0027
  791POPS   C3A10969   9.510   7.068   7.660  0.1215 -0.1937  0.1383
  791POPS   C4A10970   9.597   7.304   7.877 -0.2329 -0.4676  0.0975
  791POPS   C1B10971   9.430   7.696   6.970 -0.1405 -0.0664  0.2131
  791POPS   C2B10972   9.807   7.579   7.317 -0.1263 -0.0400 -0.1495
  791POPS   C3B10973  10.043   7.357   7.591  0.0046 -0.2045 -0.0277
  791POPS   C4B10974  10.101   7.370   8.065  0.0394 -0.0559 -0.0139
  792POPS   CNO10975  18.213   3.134   6.008 -0.2482  0.0584  0.1982
  792POPS   PO410976  18.227   3.592   6.165  0.0655 -0.1344  0.0555
  792POPS   GL110977  18.031   3.529   6.515 -0.0816  0.1651 -0.3130
  792POPS   GL210978  17.819   3.202   6.363  0.3765 -0.0592 -0.2167
  792POPS   C1A10979  17.822   3.635   6.883 -0.0342 -0.1704 -0.2501
  792POPS   D2A10980  17.933   3.703   7.220 -0.1493 -0.0252  0.3556
  792POPS   C3A10981  17.864   3.530   7.554  0.2657 -0.1417 -0.1427
  792POPS   C4A10982  17.900   3.547   7.990  0.0658  0.1309  0.1330
  792POPS   C1B10983  17.871   3.125   6.768  0.1182 -0.1971 -0.0424
  792POPS   C2B10984  18.132   3.220   7.163  0.3312 -0.1657 -0.1153
  792POPS   C3B10985  18.328   3.478   7.408 -0.3354 -0.2733  0.0907
  792POPS   C4B10986  18.624   3.732   7.430  0.0104 -0.0543  0.0942
  793POPS   CNO10987  17.196   8.915   6.084  0.0826 -0.0789 -0.1185
  793POPS   PO410988  16.941   8.461   5.960  0.1461  0.0906 -0.0578
  793POPS   GL110989  17.086   8.508   6.368  0.3231  0.1344  0.0532
  793POPS   GL210990  17.381   8.445   6.349  0.1436  0.1881  0.0139
  793POPS   C1A10991  17.285   8.660   6.779 -0.2719  0.2011  0.2517
  793POPS   D2A10992  17.275   8.799   7.233 -0.1283 -0.1666  0.1245
  793POPS   C3A10993  17.341   8.573   7.644  0.1888  0.0230  0.1152
  793POPS   C4A10994  17.472   8.190   7.468  0.1177 -0.0265  0.0047
  793POPS   C1B10995  17.577   8.108   6.579 -0.1297  0.0024 -0.1906
  793POPS   C2B10996  17.519   7.779   6.831 -0.1277  0.2649  0.1847
  793POPS   C3B10997  17.360   7.668   7.178  0.2047  0.0771  0.1420
  793POPS   C4B10998  17.347   7.736   7.597 -0.0240 -0.1076  0.1788
  794POPS   CNO10999  15.643   5.708   5.653 -0.2622  0.2306 -0.2430
  794POPS   PO411000  15.891   5.484   5.579  0.2052 -0.1430 -0.1297
  794POPS   GL111001  15.832   5.299   5.983 -0.0186 -0.1744  0.1248
  794POPS   GL211002  15.518   5.185   6.135 -0.0194 -0.0443 -0.3325
  794POPS   C1A11003  15.859   4.975   6.408 -0.0176 -0.0693 -0.2221
  794POPS   D2A11004  15.700   5.076   6.762 -0.2897 -0.1423 -0.0061
  794POPS   C3A11005  15.927   5.114   7.173 -0.0514 -0.0371 -0.1283
  794POPS   C4A11006  16.352   5.240   7.331 -0.2924  0.2431 -0.1759
  794POPS   C1B11007  15.439   5.524   6.435  0.1411  0.1853  0.2682
  794POPS   C2B11008  15.510   5.939   6.590 -0.1988 -0.0611  0.0064
  794POPS   C3B11009  15.250   6.309   6.704  0.3722 -0.0148 -0.0827
  794POPS   C4B11010  15.307   6.702   6.383  0.0260 -0.2349  0.0323
  795POPS   CNO11011  15.768   7.363   5.748 -0.1188 -0.1822  0.1106
  795POPS   PO411012  15.461   7.097   5.805 -0.0204 -0.0125 -0.1871
  795POPS   GL111013  15.620   7.109   6.200 -0.0469  0.1423  0.0733
  795POPS   GL211014  15.997   7.141   6.143  0.0476  0.0858 -0.0274
  795POPS   C1A11015  15.795   7.064   6.539 -0.1894  0.1235 -0.1611
  795POPS   D2A11016  15.915   7.022   7.009 -0.0968 -0.0018 -0.1384
  795POPS   C3A11017  15.755   7.222   7.417  0.0930  0.1924  0.1299
  795POPS   C4A11018  16.011   7.354   7.829 -0.0471  0.2633 -0.0131
  795POPS   C1B11019  16.221   7.299   6.615 -0.1186 -0.3006  0.1074
  795POPS   C2B11020  16.406   7.464   6.919 -0.1147 -0.1912 -0.1274
  795POPS   C3B11021  16.447   7.892   7.236 -0.0213 -0.2110  0.1094
  795POPS   C4B11022  16.448   8.228   7.536 -0.0991  0.1806  0.1833
  796POPS   CNO11023  13.015  15.728   5.648 -0.0467 -0.3302  0.2072
  796POPS   PO411024  12.913  15.346   5.887  0.3038 -0.3568  0.2127
  796POPS   GL111025  12.708  15.307   6.282 -0.0189  0.0134 -0.0516
  796POPS   GL211026  13.155  15.286   6.397  0.2020 -0.2295 -0.2754
  796POPS   C1A11027  12.519  15.160   6.590  0.2004  0.1436  0.3312
  796POPS   D2A11028  12.350  15.224   6.972  0.1121 -0.0171 -0.2148
  796POPS   C3A11029  12.370  15.030   7.311  0.0108 -0.1959 -0.1855
  796POPS   C4A11030  12.084  14.853   7.540  0.0920 -0.3604 -0.2153
  796POPS   C1B11031  13.054  15.467   6.610  0.0718 -0.0095  0.0608
  796POPS   C2B11032  13.149  15.513   7.065  0.0167  0.0635  0.0276
  796POPS   C3B11033  12.950  15.747   7.378 -0.2982 -0.3168 -0.0954
  796POPS   C4B11034  13.167  16.061   7.642 -0.3374 -0.0172 -0.1534
  797POPS   CNO11035  15.125  17.643   6.443 -0.0452  0.0771 -0.2428
  797POPS   PO411036  15.348  17.264   6.297  0.1177  0.0068  0.3590
  797POPS   GL111037  15.515  17.260   6.632 -0.0316  0.0404 -0.2493
  797POPS   GL211038  15.814  17.259   6.698  0.6580  0.2866 -0.1174
  797POPS   C1A11039  15.373  17.254   7.105 -0.1858 -0.1655 -0.2194
  797POPS   D2A11040  15.334  17.161   7.524  0.1004 -0.1898  0.1482
  797POPS   C3A11041  15.645  17.118   7.888 -0.0883 -0.1929  0.3706
  797POPS   C4A11042  15.963  17.236   8.134  0.0437 -0.0526  0.0306
  797POPS   C1B11043  16.159  17.424   7.015  0.2757  0.2891 -0.0226
  797POPS   C2B11044  16.153  17.717   7.285  0.1797 -0.1695  0.2300
  797POPS   C3B11045  16.352  17.880   7.602  0.0701  0.0504 -0.2075
  797POPS   C4B11046  16.285  18.122   7.878  0.0837 -0.1027  0.0111
  798POPS   CNO11047   4.901   2.234   5.535 -0.1629  0.2397 -0.0779
  798POPS   PO411048   4.561   2.124   5.812 -0.4987  0.1345  0.1359
  798POPS   GL111049   4.696   2.084   6.262 -0.1757 -0.0713  0.1650
  798POPS   GL211050   5.131   1.836   6.388 -0.3290  0.0255 -0.0457
  798POPS   C1A11051   4.740   2.019   6.665 -0.0532  0.1884 -0.1840
  798POPS   D2A11052   4.740   2.114   7.145 -0.0590  0.1292 -0.0530
  798POPS   C3A11053   4.432   2.069   7.413 -0.2582 -0.1997  0.0201
  798POPS   C4A11054   4.276   2.083   7.824 -0.2464 -0.1222  0.0432
  798POPS   C1B11055   5.463   1.721   6.712  0.2824  0.0130  0.4231
  798POPS   C2B11056   5.624   1.700   7.039 -0.0599  0.0204 -0.1290
  798POPS   C3B11057   5.901   1.735   7.415  0.0735 -0.0553  0.2880
  798POPS   C4B11058   6.198   1.834   7.739  0.4364  0.1663  0.2022
  799POPS   CNO11059  10.383  14.597   6.054  0.0709 -0.3086 -0.0079
  799POPS   PO411060  10.564  14.312   5.868  0.2945 -0.0974 -0.1963
  799POPS   GL111061  10.571  14.179   6.229  0.3357  0.0505  0.1153
  799POPS   GL211062  10.729  13.796   6.106  0.1154 -0.2106 -0.1181
  799POPS   C1A11063  10.776  14.026   6.694  0.4083 -0.1322 -0.0956
  799POPS   D2A11064  11.076  14.026   6.996  0.1196  0.1059 -0.2470
  799POPS   C3A11065  10.882  13.966   7.418 -0.1156 -0.1594 -0.1290
  799POPS   C4A11066  10.618  13.581   7.526  0.0433  0.2233  0.1073
  799POPS   C1B11067  11.049  13.766   6.382 -0.0888 -0.0416 -0.0427
  799POPS   C2B11068  11.257  13.615   6.776 -0.2685  0.0944 -0.0759
  799POPS   C3B11069  11.247  13.587   7.163  0.1485 -0.2068  0.0484
  799POPS   C4B11070  11.489  13.557   7.660  0.3286 -0.2933 -0.0419
  800POPS   CNO11071   3.271   3.598   6.142  0.0600 -0.1128 -0.1405
  800POPS   PO411072   3.667   3.534   5.971  0.0578 -0.1951  0.0545
  800POPS   GL111073   3.782   3.377   6.400  0.0351 -0.2637 -0.1104
  800POPS   GL211074   4.146   3.373   6.249 -0.0154  0.1727 -0.1457
  800POPS   C1A11075   3.978   3.200   6.770  0.1290  0.0775 -0.0586
  800POPS   D2A11076   3.900   3.009   7.195 -0.1514  0.2512 -0.1901
  800POPS   C3A11077   3.468   2.911   7.156 -0.0734 -0.0879  0.0148
  800POPS   C4A11078   3.099   3.014   7.165  0.1435 -0.0378 -0.1990
  800POPS   C1B11079   4.498   3.418   6.426  0.1242  0.0010  0.1087
  800POPS   C2B11080   4.978   3.498   6.520 -0.1031 -0.2611 -0.0486
  800POPS   C3B11081   5.138   3.825   6.834 -0.0396  0.1110  0.0833
  800POPS   C4B11082   4.916   4.009   7.148  0.3621  0.3736 -0.0102
  801POPS   CNO11083  14.189   7.336   5.557 -0.1041  0.0175 -0.0409
  801POPS   PO411084  14.349   7.632   5.764  0.2266 -0.2355 -0.0042
  801POPS   GL111085  14.282   7.526   6.197  0.0969 -0.0089  0.4810
  801POPS   GL211086  14.449   7.677   6.443 -0.0374 -0.0433 -0.0999
  801POPS   C1A11087  13.939   7.737   6.460 -0.3095 -0.2487 -0.4875
  801POPS   D2A11088  13.480   7.654   6.458  0.3319 -0.2309  0.0984
  801POPS   C3A11089  13.272   7.522   6.815 -0.3085 -0.3014  0.1162
  801POPS   C4A11090  13.050   7.664   7.153  0.0882  0.0274  0.2988
  801POPS   C1B11091  14.758   7.586   6.767 -0.0787 -0.1007  0.2496
  801POPS   C2B11092  15.152   7.544   6.978  0.0987  0.1461  0.1181
  801POPS   C3B11093  15.339   7.695   7.304  0.1648 -0.1784 -0.2109
  801POPS   C4B11094  15.734   7.707   7.554  0.1816  0.0761  0.2202
  802POPS   CNO11095   9.641  15.828   5.620  0.3510 -0.0468  0.1298
  802POPS   PO411096  10.064  15.933   5.804 -0.0798 -0.0217 -0.0067
  802POPS   GL111097  10.027  15.851   6.183  0.2793 -0.0659 -0.0781
  802POPS   GL211098   9.908  16.126   6.326  0.1863 -0.0254  0.0418
  802POPS   C1A11099  10.191  15.444   6.403 -0.3756  0.0930 -0.4169
  802POPS   D2A11100  10.185  15.174   6.583  0.1682 -0.2208 -0.2245
  802POPS   C3A11101   9.704  15.082   6.408  0.0770 -0.2043  0.0114
  802POPS   C4A11102   9.294  15.379   6.389 -0.0608 -0.0910  0.0775
  802POPS   C1B11103   9.734  15.677   6.560  0.1546 -0.2694  0.0608
  802POPS   C2B11104   9.522  15.274   6.827  0.4043 -0.0020  0.1873
  802POPS   C3B11105   9.278  14.963   6.773  0.0237  0.0032 -0.1285
  802POPS   C4B11106   8.928  14.929   6.466  0.0332 -0.0464  0.2831
  803POPS   CNO11107   0.578   5.297   6.183  0.0535  0.2131  0.1881
  803POPS   PO411108   0.199   5.025   5.971 -0.0225 -0.1281 -0.2796
  803POPS   GL111109   0.064   5.205   6.391  0.4078 -0.2026  0.3341
  803POPS   GL211110   0.206   5.466   6.477 -0.0990  0.0852 -0.3085
  803POPS   C1A11111  -0.285   5.157   6.667  0.0638  0.1978  0.0306
  803POPS   D2A11112  -0.532   5.235   7.027 -0.0525 -0.3428  0.1244
  803POPS   C3A11113  -0.716   5.517   6.762  0.1125  0.1903 -0.0747
  803POPS   C4A11114  -1.130   5.512   6.467 -0.2269  0.2594 -0.0111
  803POPS   C1B11115   0.162   5.526   6.856 -0.2514  0.2267 -0.3751
  803POPS   C2B11116   0.231   5.191   7.152 -0.0302 -0.0003 -0.0323
  803POPS   C3B11117  -0.130   5.004   7.347 -0.1649 -0.0428 -0.0142
  803POPS   C4B11118  -0.390   4.898   7.681  0.1931 -0.2960 -0.0769
  804POPS   CNO11119   7.372   0.066   5.561 -0.1411 -0.1173 -0.2821
  804POPS   PO411120   7.285   0.405   5.877  0.1936  0.1058 -0.2552
  804POPS   GL111121   7.249   0.441   6.301  0.1246 -0.1305  0.2116
  804POPS   GL211122   7.378   0.217   6.420 -0.0407  0.1039  0.4105
  804POPS   C1A11123   7.187   0.620   6.652 -0.0169  0.2068  0.0166
  804POPS   D2A11124   7.153   0.459   7.025 -0.0121 -0.2069 -0.0963
  804POPS   C3A11125   6.999   0.672   7.346 -0.1580 -0.4082 -0.2595
  804POPS   C4A11126   6.719   0.535   7.658  0.1500  0.0948  0.0006
  804POPS   C1B11127   7.006   0.128   6.553 -0.1971  0.2266 -0.1389
  804POPS   C2B11128   6.704   0.243   7.001  0.1939 -0.2102  0.1008
  804POPS   C3B11129   6.826   0.112   7.433 -0.0891 -0.0729 -0.0523
  804POPS   C4B11130   6.831  -0.020   7.763 -0.1391  0.0413  0.1774
  805POPS   CNO11131   7.329  12.758   5.029 -0.1079  0.1634 -0.1772
  805POPS   PO411132   7.341  12.386   5.414  0.0457 -0.5189  0.1094
  805POPS   GL111133   7.051  12.332   5.850  0.0403 -0.0780 -0.1502
  805POPS   GL211134   6.993  12.608   5.884 -0.3658 -0.2271  0.0913
  805POPS   C1A11135   6.967  12.276   6.312  0.1080 -0.3499 -0.2539
  805POPS   D2A11136   6.990  12.228   6.694  0.1114  0.0903 -0.1683
  805POPS   C3A11137   6.970  12.221   7.062 -0.0850  0.0073  0.1374
  805POPS   C4A11138   6.849  12.435   7.456 -0.1666 -0.0704  0.2050
  805POPS   C1B11139   7.157  12.736   6.262 -0.0991 -0.0225  0.2153
  805POPS   C2B11140   7.029  12.717   6.699 -0.2865  0.0558 -0.0534
  805POPS   C3B11141   7.175  12.786   7.199 -0.0597  0.4534  0.1071
  805POPS   C4B11142   7.204  12.813   7.654 -0.0685 -0.0406  0.1999
  806POPS   CNO11143   9.726  12.123   5.155  0.1275 -0.0396  0.3397
  806POPS   PO411144   9.791  11.948   5.499 -0.1318 -0.0397 -0.1819
  806POPS   GL111145   9.699  11.903   5.915  0.2070 -0.2040  0.1166
  806POPS   GL211146   9.833  11.689   6.134 -0.1975  0.2268  0.1772
  806POPS   C1A11147   9.389  12.140   6.121 -0.2824 -0.3261  0.0578
  806POPS   D2A11148   9.030  12.456   6.152 -0.0734  0.0930  0.1849
  806POPS   C3A11149   9.077  12.862   6.334  0.0764  0.0128  0.0512
  806POPS   C4A11150   9.173  12.913   6.764 -0.3167 -0.1366 -0.2735
  806POPS   C1B11151  10.024  11.497   6.528 -0.0438 -0.0136 -0.2646
  806POPS   C2B11152  10.330  11.337   6.813  0.0344  0.0576 -0.1469
  806POPS   C3B11153  10.759  11.403   6.876  0.0320 -0.1175  0.0238
  806POPS   C4B11154  11.021  11.084   7.076 -0.0092  0.2947  0.0882
  807POPS   CNO11155  11.107   7.905   5.993 -0.0817 -0.0582  0.0825
  807POPS   PO411156  11.508   7.640   5.877  0.3188 -0.0546 -0.0433
  807POPS   GL111157  11.766   7.543   6.184 -0.0168 -0.4339 -0.0597
  807POPS   GL211158  11.425   7.301   6.333  0.0140 -0.2548  0.0491
  807POPS   C1A11159  11.880   7.448   6.590  0.2463 -0.1165 -0.1730
  807POPS   D2A11160  11.612   7.481   7.038  0.0751 -0.2242  0.0070
  807POPS   C3A11161  11.908   7.402   7.335  0.0900 -0.2413 -0.1394
  807POPS   C4A11162  11.945   7.265   7.719 -0.2458  0.1383  0.0263
  807POPS   C1B11163  11.322   7.469   6.676 -0.2805 -0.2075  0.4088
  807POPS   C2B11164  11.210   7.212   7.068  0.2303 -0.1876  0.1546
  807POPS   C3B11165  11.372   7.336   7.451 -0.1676  0.0404 -0.3315
  807POPS   C4B11166  11.434   7.282   7.937 -0.0591 -0.0679 -0.2285
  808POPS   CNO11167   6.894   3.230   6.406  0.4888 -0.1541 -0.1658
  808POPS   PO411168   7.110   3.634   6.414 -0.1032  0.1150  0.2492
  808POPS   GL111169   7.143   3.586   6.836  0.4303  0.1748 -0.1416
  808POPS   GL211170   7.205   3.828   7.009 -0.0565 -0.1669 -0.0554
  808POPS   C1A11171   7.219   3.351   7.173  0.0475  0.0029 -0.1877
  808POPS   D2A11172   7.223   3.080   7.680 -0.0478 -0.1872  0.3223
  808POPS   C3A11173   7.613   3.027   7.895 -0.1004  0.0955 -0.2327
  808POPS   C4A11174   7.910   3.139   8.089 -0.0280 -0.2199  0.0650
  808POPS   C1B11175   7.393   3.725   7.414 -0.1149  0.1159  0.0727
  808POPS   C2B11176   7.451   3.585   7.819 -0.2242  0.1532 -0.0775
  808POPS   C3B11177   7.806   3.635   8.152  0.1522  0.2865 -0.3194
  808POPS   C4B11178   8.044   3.768   8.516  0.3049 -0.1760 -0.1188
  809POPS   CNO11179   9.257   6.425   5.593  0.2005  0.1327  0.0240
  809POPS   PO411180   9.338   6.540   6.032  0.0098 -0.0360  0.1707
  809POPS   GL111181   9.517   6.707   6.483  0.2027  0.0391 -0.1051
  809POPS   GL211182   9.597   6.375   6.487 -0.0408  0.1933  0.1460
  809POPS   C1A11183   9.268   6.737   6.939 -0.3110 -0.1194 -0.2107
  809POPS   D2A11184   9.341   6.425   7.305  0.0870 -0.3908 -0.1864
  809POPS   C3A11185   9.154   6.423   7.730 -0.2625  0.3779 -0.3197
  809POPS   C4A11186   8.948   6.638   8.050  0.4621 -0.0654  0.1429
  809POPS   C1B11187   9.391   6.272   6.740  0.1126 -0.0311 -0.3285
  809POPS   C2B11188   9.341   5.992   6.986  0.1895 -0.2108 -0.1576
  809POPS   C3B11189   9.141   5.963   7.331 -0.1367  0.0985  0.0137
  809POPS   C4B11190   8.889   5.945   7.577 -0.3451 -0.1430 -0.0534
  810POPS   CNO11191   9.092   2.126   5.724 -0.0349 -0.1991 -0.2454
  810POPS   PO411192   8.876   1.825   5.970  0.0494 -0.0699 -0.0015
  810POPS   GL111193   9.127   1.990   6.277 -0.1160 -0.1484  0.1827
  810POPS   GL211194   8.937   1.778   6.593 -0.1234 -0.0263  0.3166
  810POPS   C1A11195   9.105   2.254   6.607 -0.0715 -0.1751  0.2736
  810POPS   D2A11196   9.010   2.434   6.964  0.0864  0.1394  0.1736
  810POPS   C3A11197   9.174   2.119   7.183 -0.0753  0.0493 -0.2788
  810POPS   C4A11198   9.597   2.094   7.524  0.0743  0.0673  0.0891
  810POPS   C1B11199   9.214   1.710   6.958  0.2418  0.2725 -0.0187
  810POPS   C2B11200   9.360   1.667   7.400  0.0560 -0.2253  0.2563
  810POPS   C3B11201   9.457   1.620   7.848 -0.0004 -0.0374 -0.0671
  810POPS   C4B11202   9.713   1.272   7.873 -0.0266 -0.0844  0.0820
  811POPS   CNO11203  17.610  17.837   5.400 -0.1390 -0.0287  0.0923
  811POPS   PO411204  17.628  17.828   5.811 -0.2212  0.4220 -0.0255
  811POPS   GL111205  17.892  17.758   6.240 -0.2345 -0.1876 -0.0813
  811POPS   GL211206  18.110  17.933   6.311 -0.2662 -0.0905 -0.2486
  811POPS   C1A11207  17.729  18.086   6.574 -0.0388  0.0703  0.0500
  811POPS   D2A11208  17.736  18.546   6.551  0.4305  0.1858  0.0206
  811POPS   C3A11209  17.431  18.828   6.708 -0.2576 -0.3896 -0.0049
  811POPS   C4A11210  17.053  18.849   6.996 -0.1105 -0.3204  0.0120
  811POPS   C1B11211  18.081  17.885   6.881 -0.1137 -0.1955 -0.0393
  811POPS   C2B11212  18.105  17.741   7.258 -0.2521  0.2407  0.0430
  811POPS   C3B11213  18.073  17.879   7.631  0.1049 -0.0618 -0.0113
  811POPS   C4B11214  18.072  18.091   7.980  0.0687  0.1636  0.1239
  812YOPS   CNO11215   4.450  17.079   5.185  0.1171  0.3321 -0.1495
  812YOPS   PO411216   4.329  17.286   5.570  0.0431  0.4728 -0.2290
  812YOPS   GL111217   4.462  17.214   5.969 -0.2448  0.1340 -0.0631
  812YOPS   GL211218   4.385  17.459   6.256 -0.0497 -0.3056 -0.2172
  812YOPS   C1A11219   4.298  16.978   6.332  0.3172  0.2658  0.1395
  812YOPS   D2A11220   4.264  16.917   6.707 -0.3948 -0.1666 -0.0015
  812YOPS   C3A11221   4.236  16.783   7.177  0.1869 -0.2612  0.0046
  812YOPS   C4A11222   4.433  17.095   7.507  0.1032 -0.0816  0.0241
  812YOPS   C1B11223   4.300  17.484   6.796 -0.0396  0.0711  0.0402
  812YOPS   C2B11224   4.130  17.428   7.162  0.4059  0.3029 -0.0600
  812YOPS   D3B11225   4.004  17.582   7.471 -0.3685  0.3631  0.3273
  812YOPS   C4B11226   4.108  17.852   7.679 -0.0936  0.4018 -0.4010
  813YOPS   CNO11227   0.021   0.817   5.809  0.2094  0.2224  0.1240
  813YOPS   PO411228   0.356   0.841   5.826 -0.2398  0.0724 -0.2761
  813YOPS   GL111229   0.397   0.885   6.192 -0.0741 -0.2330 -0.1318
  813YOPS   GL211230   0.671   0.644   6.250 -0.1646  0.0161 -0.0503
  813YOPS   C1A11231   0.570   1.023   6.577 -0.5030 -0.0363 -0.1420
  813YOPS   D2A11232   0.467   1.180   6.934  0.3758  0.2618 -0.0789
  813YOPS   C3A11233   0.647   1.318   7.378 -0.1096 -0.1348 -0.2989
  813YOPS   C4A11234   0.785   1.220   7.751  0.1230  0.1914  0.1260
  813YOPS   C1B11235   0.344   0.528   6.620 -0.2216 -0.1368  0.1876
  813YOPS   C2B11236   0.142   0.328   6.944  0.0129  0.1305  0.0457
  813YOPS   D3B11237   0.192   0.341   7.426 -0.0080 -0.2078  0.0269
  813YOPS   C4B11238   0.227   0.732   7.644 -0.0534 -0.3136 -0.1638
  814YOPS   CNO11239   3.512   8.590   5.572 -0.3519 -0.0163 -0.1730
  814YOPS   PO411240   3.538   9.054   5.856 -0.1009  0.1546 -0.2128
  814YOPS   GL111241   3.255   8.922   6.323 -0.0854 -0.0336 -0.3116
  814YOPS   GL211242   3.041   8.859   6.116 -0.2497  0.2681 -0.3381
  814YOPS   C1A11243   3.120   9.051   6.872  0.1047 -0.0188  0.0856
  814YOPS   D2A11244   3.341   9.179   7.179  0.1352  0.0217 -0.2090
  814YOPS   C3A11245   3.656   9.318   7.541  0.1319 -0.2686  0.1010
  814YOPS   C4A11246   3.878   9.018   7.872  0.0186  0.4214  0.2525
  814YOPS   C1B11247   2.809   8.737   6.562 -0.0383 -0.0116  0.1254
  814YOPS   C2B11248   3.100   8.578   6.860  0.0641 -0.1947 -0.1464
  814YOPS   D3B11249   3.476   8.556   7.077 -0.0090 -0.2967 -0.1626
  814YOPS   C4B11250   4.009   8.528   6.978  0.0646 -0.0855  0.1279
  815YOPS   CNO11251  11.993  15.962   5.642  0.2864  0.1062  0.0847
  815YOPS   PO411252  11.980  15.934   6.052 -0.0778  0.0035 -0.1060
  815YOPS   GL111253  11.913  15.467   6.177  0.0407 -0.1290 -0.2750
  815YOPS   GL211254  11.540  15.334   6.213  0.0527  0.0414  0.5772
  815YOPS   C1A11255  12.027  15.312   6.595  0.0643 -0.3997  0.2658
  815YOPS   D2A11256  11.842  15.229   6.952  0.1665  0.0800  0.0345
  815YOPS   C3A11257  11.879  15.349   7.409  0.1404 -0.0711  0.4075
  815YOPS   C4A11258  11.821  15.247   7.828  0.1356  0.1565 -0.0359
  815YOPS   C1B11259  11.479  15.326   6.658 -0.1469  0.3239 -0.0203
  815YOPS   C2B11260  11.453  15.480   7.091 -0.3072  0.0076  0.0944
  815YOPS   D3B11261  11.605  15.801   7.444 -0.0678 -0.3101 -0.1919
  815YOPS   C4B11262  11.418  16.221   7.427 -0.0601 -0.1788  0.0588
  816YOPS   CNO11263   7.791   7.319   5.385  0.0986  0.1795  0.0596
  816YOPS   PO411264   7.727   6.931   5.567  0.0764 -0.0211  0.2114
  816YOPS   GL111265   7.789   7.134   6.056 -0.1324  0.2603 -0.1996
  816YOPS   GL211266   8.005   7.434   6.149 -0.0265 -0.0796  0.1829
  816YOPS   C1A11267   7.497   7.182   6.545  0.1898 -0.1326  0.3135
  816YOPS   D2A11268   7.314   6.956   6.856  0.1294  0.0904  0.1124
  816YOPS   C3A11269   7.310   7.039   7.296 -0.2939  0.1251  0.4728
  816YOPS   C4A11270   7.002   7.271   7.378  0.1213 -0.2578  0.0530
  816YOPS   C1B11271   7.971   7.129   6.632 -0.1627 -0.2227  0.1170
  816YOPS   C2B11272   7.764   7.186   6.971  0.0875  0.0929 -0.2600
  816YOPS   D3B11273   7.759   7.024   7.459  0.1653 -0.0693 -0.0595
  816YOPS   C4B11274   7.946   6.797   7.811 -0.1113 -0.1059 -0.2184
  817YOPS   CNO11275   4.583   3.604   5.479  0.1646  0.0371  0.0129
  817YOPS   PO411276   4.451   4.032   5.756  0.0696 -0.0613  0.2058
  817YOPS   GL111277   4.376   4.305   6.034 -0.0126 -0.0158 -0.0700
  817YOPS   GL211278   3.982   4.375   6.135 -0.1334  0.2242 -0.0283
  817YOPS   C1A11279   4.370   4.318   6.479 -0.2095 -0.1690  0.1137
  817YOPS   D2A11280   4.208   4.327   6.900 -0.2002 -0.1385 -0.2796
  817YOPS   C3A11281   3.865   4.356   7.356 -0.3878 -0.0814 -0.0726
  817YOPS   C4A11282   3.638   4.722   7.293 -0.0905  0.0584  0.3619
  817YOPS   C1B11283   3.863   4.321   6.492 -0.2099  0.0340  0.0195
  817YOPS   C2B11284   3.780   4.130   6.880  0.0741  0.4266  0.1147
  817YOPS   D3B11285   3.763   3.855   7.261  0.0119  0.0146 -0.2517
  817YOPS   C4B11286   3.948   3.458   7.351 -0.0539 -0.0997 -0.2009
  818YOPS   CNO11287   3.308   2.639   5.540  0.0464  0.0399 -0.2356
  818YOPS   PO411288   3.090   2.690   5.929 -0.0983 -0.0064  0.1427
  818YOPS   GL111289   3.350   2.610   6.366 -0.1951  0.0052 -0.0617
  818YOPS   GL211290   3.280   2.294   6.359  0.2606 -0.0586 -0.1942
  818YOPS   C1A11291   3.169   2.735   6.767  0.1054 -0.2765  0.3690
  818YOPS   D2A11292   3.159   2.549   7.170  0.7191 -0.1536 -0.2102
  818YOPS   C3A11293   2.947   2.669   7.598  0.1536  0.0815 -0.2100
  818YOPS   C4A11294   2.979   3.141   7.679 -0.1286  0.1828 -0.1348
  818YOPS   C1B11295   3.115   2.236   6.806 -0.1909 -0.1751  0.2514
  818YOPS   C2B11296   2.870   2.172   7.100 -0.1449 -0.0366  0.3534
  818YOPS   D3B11297   2.743   2.202   7.481  0.2819  0.1344  0.2839
  818YOPS   C4B11298   2.956   2.175   7.820 -0.0555  0.0887  0.0607
  819YOPS   CNO11299   4.386   0.307   5.564  0.1484  0.0917 -0.2498
  819YOPS   PO411300   4.183   0.247   5.906 -0.1430  0.0333  0.2100
  819YOPS   GL111301   4.401   0.347   6.229 -0.0758  0.0524 -0.3732
  819YOPS   GL211302   4.424   0.603   6.162 -0.0698  0.1496 -0.3344
  819YOPS   C1A11303   4.334   0.292   6.659  0.0794 -0.3104 -0.1155
  819YOPS   D2A11304   4.263   0.349   7.154 -0.1279  0.1342 -0.1273
  819YOPS   C3A11305   4.190   0.415   7.552  0.1367  0.0170 -0.0622
  819YOPS   C4A11306   3.975   0.770   7.671 -0.0271 -0.2364 -0.0523
  819YOPS   C1B11307   4.590   0.860   6.367 -0.0122  0.2396  0.1723
  819YOPS   C2B11308   5.049   0.881   6.357  0.0010 -0.1483 -0.0859
  819YOPS   D3B11309   5.328   1.171   6.485 -0.0232 -0.0035  0.2010
  819YOPS   C4B11310   5.505   1.174   6.949 -0.1145  0.0051  0.3666
  820YOPS   CNO11311  11.715  12.978   5.450 -0.0873 -0.3266  0.2370
  820YOPS   PO411312  11.339  13.210   5.547 -0.2286 -0.1885 -0.0690
  820YOPS   GL111313  11.514  13.101   5.928 -0.2742  0.2166  0.2788
  820YOPS   GL211314  11.367  12.855   6.211  0.1177  0.2683  0.1688
  820YOPS   C1A11315  11.812  13.141   6.147 -0.3557 -0.1074 -0.2121
  820YOPS   D2A11316  11.896  12.973   6.508  0.1763  0.0449 -0.0010
  820YOPS   C3A11317  12.015  12.784   6.937 -0.0697  0.0073 -0.0699
  820YOPS   C4A11318  11.972  13.144   7.234  0.0421 -0.0056 -0.1594
  820YOPS   C1B11319  11.370  13.086   6.577  0.2254  0.1470  0.1736
  820YOPS   C2B11320  11.552  13.094   6.992  0.3379  0.1169  0.0173
  820YOPS   D3B11321  11.478  13.149   7.360  0.0410  0.1677 -0.2367
  820YOPS   C4B11322  11.556  13.064   7.717  0.2363  0.2766 -0.1783
  821YOPS   CNO11323   9.559   9.633   5.656 -0.0280 -0.1005  0.0169
  821YOPS   PO411324   9.799   9.733   6.119 -0.2000  0.0463  0.0320
  821YOPS   GL111325   9.822   9.688   6.574  0.0130  0.3019  0.0297
  821YOPS   GL211326  10.148   9.977   6.583  0.1618  0.2175  0.0059
  821YOPS   C1A11327   9.826   9.592   6.960 -0.0155  0.1290  0.1567
  821YOPS   D2A11328   9.875   9.585   7.357  0.1343  0.2173 -0.0602
  821YOPS   C3A11329  10.052   9.343   7.703 -0.1799 -0.2923  0.0646
  821YOPS   C4A11330  10.419   9.499   7.946  0.3664 -0.2563  0.0491
  821YOPS   C1B11331  10.059  10.006   7.000 -0.1155 -0.2220  0.2189
  821YOPS   C2B11332   9.837  10.089   7.334  0.1053 -0.0944  0.0017
  821YOPS   D3B11333   9.584  10.281   7.655 -0.0615  0.2189  0.0750
  821YOPS   C4B11334   9.680  10.424   8.031  0.0877 -0.1656  0.2539
  822YOPS   CNO11335  15.554   8.234   5.623  0.2193 -0.0950 -0.3066
  822YOPS   PO411336  15.099   8.341   5.548  0.0470  0.1876  0.4307
  822YOPS   GL111337  15.091   8.186   6.014  0.0796  0.2082  0.1205
  822YOPS   GL211338  15.098   7.929   6.111 -0.2209  0.0999  0.0341
  822YOPS   C1A11339  15.205   8.418   6.326 -0.0879 -0.2325  0.0663
  822YOPS   D2A11340  15.387   8.655   6.681  0.1701  0.2469  0.1688
  822YOPS   C3A11341  15.351   8.469   7.187 -0.1338 -0.1605 -0.4407
  822YOPS   C4A11342  15.739   8.765   7.511  0.0550  0.0700 -0.3046
  822YOPS   C1B11343  15.190   7.818   6.581  0.0729 -0.0767 -0.0820
  822YOPS   C2B11344  15.173   8.010   6.989 -0.1606 -0.3111  0.0732
  822YOPS   D3B11345  15.159   8.114   7.469 -0.2301  0.0727 -0.2989
  822YOPS   C4B11346  15.092   8.527   7.631 -0.0322 -0.0923 -0.0860
  823YOPS   CNO11347  13.429  15.364   5.828  0.2643 -0.1692  0.0184
  823YOPS   PO411348  13.692  15.332   6.092  0.0274  0.0126  0.0313
  823YOPS   GL111349  13.701  15.208   6.405  0.2873 -0.0646 -0.0239
  823YOPS   GL211350  13.882  14.960   6.555  0.2703 -0.0378  0.0741
  823YOPS   C1A11351  13.770  15.402   6.814  0.1647 -0.2776 -0.2516
  823YOPS   D2A11352  13.777  15.437   7.211  0.0001 -0.0713 -0.1755
  823YOPS   C3A11353  13.831  15.587   7.555  0.0347  0.1083  0.0658
  823YOPS   C4A11354  14.275  15.725   7.687 -0.0347 -0.1338 -0.2777
  823YOPS   C1B11355  13.898  14.935   6.963 -0.1120 -0.0393 -0.0229
  823YOPS   C2B11356  14.148  14.677   7.163 -0.1991  0.4030 -0.1434
  823YOPS   D3B11357  14.091  14.699   7.622  0.0087  0.1189  0.1956
  823YOPS   C4B11358  13.877  14.734   7.992 -0.0920  0.2792 -0.0946
  824YOPS   CNO11359   1.080   8.233   6.854  0.0609  0.1954  0.0345
  824YOPS   PO411360   0.943   8.454   6.498  0.0513 -0.1204 -0.2524
  824YOPS   GL111361   1.136   8.725   6.804 -0.0582 -0.0377 -0.1085
  824YOPS   GL211362   0.957   8.792   6.986  0.1369 -0.1390  0.2095
  824YOPS   C1A11363   1.418   8.775   7.135 -0.2359  0.3424 -0.1267
  824YOPS   D2A11364   1.401   8.826   7.606 -0.1672 -0.3843 -0.2447
  824YOPS   C3A11365   1.526   9.074   7.933  0.1490 -0.3163  0.1738
  824YOPS   C4A11366   1.540   9.398   8.111  0.1174  0.2869 -0.2917
  824YOPS   C1B11367   1.046   8.534   7.362 -0.2273  0.3307 -0.1918
  824YOPS   C2B11368   0.928   8.492   7.811  0.0856 -0.0221 -0.0854
  824YOPS   D3B11369   0.906   8.400   8.292 -0.0060  0.5042 -0.1417
  824YOPS   C4B11370   1.221   8.341   8.544  0.2410 -0.0798 -0.0466
  825YOPS   CNO11371   2.517   7.106   6.298 -0.1278 -0.0192 -0.2837
  825YOPS   PO411372   2.503   6.666   6.047 -0.0768 -0.0846  0.0661
  825YOPS   GL111373   2.480   6.533   6.552 -0.0075 -0.0139  0.0248
  825YOPS   GL211374   2.479   6.250   6.570  0.3019 -0.2784  0.3460
  825YOPS   C1A11375   2.390   6.427   7.017 -0.0070  0.1338 -0.0881
  825YOPS   D2A11376   2.365   6.403   7.502  0.2727  0.0399 -0.0834
  825YOPS   C3A11377   2.408   6.577   7.982  0.2652  0.4039 -0.2737
  825YOPS   C4A11378   2.841   6.568   8.187 -0.2698 -0.0768  0.0158
  825YOPS   C1B11379   2.644   5.959   6.905  0.0487 -0.2758 -0.1077
  825YOPS   C2B11380   2.530   5.862   7.298  0.2728  0.1605 -0.0024
  825YOPS   D3B11381   2.443   5.569   7.572  0.1719 -0.0139 -0.0159
  825YOPS   C4B11382   1.974   5.431   7.691  0.0827 -0.2847  0.1062
  826YOPS   CNO11383  10.016  11.129   5.141  0.0048  0.1357  0.3302
  826YOPS   PO411384  10.044  11.089   5.567 -0.2491 -0.1306  0.1580
  826YOPS   GL111385   9.724  11.144   5.962  0.1573  0.3517 -0.3618
  826YOPS   GL211386   9.927  10.953   6.116 -0.3013 -0.0293 -0.0280
  826YOPS   C1A11387   9.570  11.258   6.361 -0.1084  0.3376 -0.0504
  826YOPS   D2A11388   9.562  11.528   6.835 -0.2542  0.1358 -0.1785
  826YOPS   C3A11389   9.493  11.752   7.291  0.0100  0.0757 -0.0764
  826YOPS   C4A11390   9.102  12.003   7.366  0.0247 -0.1782  0.1557
  826YOPS   C1B11391  10.151  10.883   6.525  0.2456 -0.1333  0.0514
  826YOPS   C2B11392  10.160  10.854   6.996 -0.2514 -0.0698 -0.2760
  826YOPS   D3B11393   9.980  10.914   7.337  0.1022 -0.1328  0.1548
  826YOPS   C4B11394   9.968  10.860   7.813  0.0147 -0.3294  0.0887
  827YOPS   CNO11395   7.010  11.933   5.589  0.0593  0.0856  0.0290
  827YOPS   PO411396   7.059  11.535   5.304  0.1281  0.0630  0.2033
  827YOPS   GL111397   6.851  11.419   5.538  0.1303 -0.0291  0.1099
  827YOPS   GL211398   6.615  11.634   5.647  0.2004 -0.1326  0.0824
  827YOPS   C1A11399   6.871  11.390   6.031  0.0751  0.1298 -0.1378
  827YOPS   D2A11400   6.722  11.593   6.414  0.0002  0.1214  0.1729
  827YOPS   C3A11401   6.611  12.004   6.523  0.0711  0.0401  0.1628
  827YOPS   C4A11402   6.553  12.473   6.620 -0.1852  0.2634 -0.0365
  827YOPS   C1B11403   6.350  11.793   5.988 -0.0283 -0.2585 -0.1983
  827YOPS   C2B11404   6.121  11.815   6.428 -0.1959  0.1455 -0.1144
  827YOPS   D3B11405   6.268  11.794   6.836 -0.0287  0.1176 -0.0142
  827YOPS   C4B11406   6.514  12.050   7.096 -0.2163 -0.0584  0.1138
  828YOPS   CNO11407  14.195   5.766   5.713 -0.4911  0.3259 -0.2444
  828YOPS   PO411408  13.751   5.834   5.602 -0.0295  0.0696 -0.1580
  828YOPS   GL111409  13.728   5.812   6.031 -0.1264 -0.1677 -0.1547
  828YOPS   GL211410  13.508   5.600   6.114 -0.1031 -0.0944 -0.0332
  828YOPS   C1A11411  13.905   5.601   6.455 -0.0581  0.2784  0.0528
  828YOPS   D2A11412  14.030   5.732   6.913 -0.4894 -0.0296 -0.0620
  828YOPS   C3A11413  13.907   5.956   7.251  0.2042  0.0349 -0.2276
  828YOPS   C4A11414  14.246   6.278   7.543 -0.1144  0.1965 -0.2648
  828YOPS   C1B11415  13.357   5.326   6.441 -0.1099  0.0048  0.0458
  828YOPS   C2B11416  13.602   5.369   6.902  0.0343 -0.0372  0.1895
  828YOPS   D3B11417  13.889   5.351   7.189 -0.0044  0.2742  0.3903
  828YOPS   C4B11418  13.867   5.551   7.482 -0.0677 -0.0392  0.1039
  829YOPS   CNO11419   4.924  12.240   5.190 -0.0448  0.1409 -0.0244
  829YOPS   PO411420   5.318  12.109   5.334  0.0389  0.1622 -0.0494
  829YOPS   GL111421   5.233  12.165   5.703 -0.1626 -0.1392  0.0505
  829YOPS   GL211422   5.426  12.021   5.885  0.0915  0.1497  0.2786
  829YOPS   C1A11423   5.034  12.250   6.039 -0.0011  0.1799 -0.0202
  829YOPS   D2A11424   4.911  12.425   6.357 -0.1225  0.0754  0.0123
  829YOPS   C3A11425   4.972  12.636   6.663  0.2315 -0.5371 -0.1469
  829YOPS   C4A11426   5.223  12.525   6.940  0.0705  0.1507 -0.1257
  829YOPS   C1B11427   5.485  12.476   5.995  0.2226 -0.1500  0.1338
  829YOPS   C2B11428   5.192  12.727   5.934 -0.0883  0.2446  0.0895
  829YOPS   D3B11429   5.299  13.189   5.785  0.1242 -0.0215 -0.0899
  829YOPS   C4B11430   5.729  13.056   5.937 -0.2211  0.1971  0.0586
  830YOPS   CNO11431   0.246   1.794   5.716 -0.0204 -0.0357 -0.1340
  830YOPS   PO411432   0.536   1.937   6.033 -0.0491 -0.0485 -0.0273
  830YOPS   GL111433   0.426   2.018   6.394  0.2920  0.0327 -0.0178
  830YOPS   GL211434   0.576   2.228   6.538  0.2397 -0.2448  0.2314
  830YOPS   C1A11435   0.173   1.893   6.870  0.0992  0.2213  0.3940
  830YOPS   D2A11436   0.212   1.646   7.247  0.4813 -0.1043 -0.1040
  830YOPS   C3A11437   0.153   1.228   7.399 -0.0074  0.5734 -0.0743
  830YOPS   C4A11438  -0.128   1.172   7.681  0.1868 -0.0169 -0.0981
  830YOPS   C1B11439   0.942   2.337   6.727 -0.1379 -0.1427  0.0036
  830YOPS   C2B11440   1.210   2.314   7.119 -0.1203 -0.2548  0.2327
  830YOPS   D3B11441   1.175   2.601   7.537 -0.4858 -0.3277  0.1400
  830YOPS   C4B11442   1.400   3.040   7.772  0.4243 -0.3621 -0.1095
  831YOPS   CNO11443   1.880  14.786   5.900 -0.1911  0.1692  0.1093
  831YOPS   PO411444   1.485  14.730   5.889 -0.0263 -0.0563 -0.1513
  831YOPS   GL111445   1.526  14.877   6.255  0.1263  0.1017  0.2113
  831YOPS   GL211446   1.242  14.882   6.454 -0.1144 -0.3477  0.1558
  831YOPS   C1A11447   1.616  14.859   6.715  0.3142 -0.0713  0.0289
  831YOPS   D2A11448   1.594  14.836   7.171 -0.0908  0.0008  0.2096
  831YOPS   C3A11449   1.415  14.673   7.526  0.0472  0.0365  0.0156
  831YOPS   C4A11450   1.579  14.698   7.837  0.0412  0.1652  0.2293
  831YOPS   C1B11451   1.210  14.495   6.788  0.2245 -0.1131 -0.1340
  831YOPS   C2B11452   1.265  14.340   7.170 -0.1320  0.1711  0.0954
  831YOPS   D3B11453   1.360  14.137   7.522 -0.2580 -0.0825 -0.2028
  831YOPS   C4B11454   1.430  13.724   7.515 -0.1111  0.1710 -0.0768
  832YOPS   CNO11455  18.018  16.956   5.811  0.0447  0.3348  0.1247
  832YOPS   PO411456  18.397  16.836   5.763 -0.0504 -0.1117  0.2390
  832YOPS   GL111457  18.512  16.627   6.090 -0.0141  0.1772  0.1619
  832YOPS   GL211458  18.841  16.517   6.189  0.3117  0.1969 -0.1895
  832YOPS   C1A11459  18.453  16.595   6.483  0.0360  0.0999  0.1526
  832YOPS   D2A11460  18.593  16.627   6.855  0.1669  0.0122  0.1151
  832YOPS   C3A11461  18.808  16.547   7.182  0.0300  0.0513  0.1569
  832YOPS   C4A11462  19.123  16.268   7.099  0.2235  0.0790 -0.2579
  832YOPS   C1B11463  18.981  16.521   6.576  0.3016 -0.6109  0.0066
  832YOPS   C2B11464  19.107  16.858   6.878  0.1360  0.1098 -0.3467
  832YOPS   D3B11465  19.323  16.932   7.333 -0.1256  0.1629 -0.1168
  832YOPS   C4B11466  19.509  16.914   7.768 -0.1477 -0.0173 -0.2188
  833YOPS   CNO11467   4.128  15.415   5.324 -0.2938 -0.1686 -0.0990
  833YOPS   PO411468   4.276  15.086   5.492  0.2425  0.0893  0.0001
  833YOPS   GL111469   4.430  14.924   5.898 -0.1363 -0.2132 -0.1670
  833YOPS   GL211470   4.476  15.212   6.174 -0.0251  0.0439  0.3416
  833YOPS   C1A11471   4.318  14.717   6.269  0.3600  0.0818 -0.1708
  833YOPS   D2A11472   4.394  14.443   6.696 -0.0598 -0.1011  0.0619
  833YOPS   C3A11473   4.343  14.163   7.054  0.0373 -0.0482 -0.2214
  833YOPS   C4A11474   4.263  14.329   7.498 -0.0307  0.0170 -0.2022
  833YOPS   C1B11475   4.780  15.488   6.221  0.0064 -0.0507  0.1150
  833YOPS   C2B11476   4.810  15.485   6.698  0.5326 -0.0851  0.2289
  833YOPS   D3B11477   4.904  15.514   7.060  0.1129  0.1225 -0.0965
  833YOPS   C4B11478   4.970  15.033   7.129  0.0767  0.1658  0.0312
  834YOPS   CNO11479   9.758  13.992   5.506  0.0273 -0.1045  0.2496
  834YOPS   PO411480  10.199  13.827   5.469 -0.1835  0.0232  0.3025
  834YOPS   GL111481  10.110  13.787   5.845 -0.1497 -0.0998 -0.0009
  834YOPS   GL211482  10.066  14.086   5.920 -0.0738  0.1704  0.0281
  834YOPS   C1A11483  10.259  13.779   6.313 -0.0397  0.0469 -0.2117
  834YOPS   D2A11484  10.250  13.822   6.808 -0.1793 -0.1238  0.0828
  834YOPS   C3A11485  10.398  13.927   7.192  0.1286  0.2213 -0.1541
  834YOPS   C4A11486  10.079  13.770   7.574 -0.0726 -0.2618  0.3275
  834YOPS   C1B11487  10.102  14.195   6.442 -0.1578 -0.1062  0.1430
  834YOPS   C2B11488  10.082  14.313   6.866 -0.0098  0.2747 -0.1230
  834YOPS   D3B11489  10.194  14.533   7.225  0.4273  0.0505  0.3280
  834YOPS   C4B11490   9.861  14.518   7.595  0.0585 -0.1800 -0.0607
  835YOPS   CNO11491   3.462   7.499   5.868 -0.2938  0.2128 -0.1373
  835YOPS   PO411492   3.577   7.950   5.852  0.2065  0.0115  0.1473
  835YOPS   GL111493   3.688   7.746   6.251 -0.4642 -0.0451 -0.0260
  835YOPS   GL211494   3.436   7.967   6.334 -0.0483 -0.0243 -0.1570
  835YOPS   C1A11495   3.806   7.594   6.715 -0.0736 -0.0647  0.3022
  835YOPS   D2A11496   3.872   7.678   7.138  0.0593  0.0223  0.2133
  835YOPS   C3A11497   3.800   7.697   7.503 -0.1029 -0.1454  0.0152
  835YOPS   C4A11498   3.886   8.017   7.723  0.2761  0.3289 -0.1012
  835YOPS   C1B11499   3.286   8.311   6.454  0.1461  0.0644  0.3346
  835YOPS   C2B11500   3.570   8.560   6.589 -0.1791  0.1498  0.1459
  835YOPS   D3B11501   3.671   8.912   6.726  0.1523 -0.1374  0.0747
  835YOPS   C4B11502   3.761   8.965   7.186  0.1982  0.0920  0.3308
  836YOPS   CNO11503   6.332   6.323   6.029 -0.0580  0.1754 -0.2386
  836YOPS   PO411504   6.718   6.420   5.877 -0.1191 -0.2481  0.0880
  836YOPS   GL111505   6.706   6.568   6.253 -0.0991  0.0193  0.2705
  836YOPS   GL211506   6.542   6.816   6.198 -0.1121 -0.0536  0.0457
  836YOPS   C1A11507   6.872   6.759   6.628 -0.3579  0.1630 -0.0540
  836YOPS   D2A11508   6.966   6.774   7.098  0.1743  0.3045  0.1906
  836YOPS   C3A11509   6.751   6.784   7.478 -0.0415  0.0872  0.2243
  836YOPS   C4A11510   6.367   6.969   7.676 -0.2687 -0.2133  0.2829
  836YOPS   C1B11511   6.354   6.964   6.584 -0.3895 -0.0354  0.0311
  836YOPS   C2B11512   6.110   7.341   6.880 -0.0776 -0.2436  0.0268
  836YOPS   D3B11513   5.837   7.633   6.958 -0.0498  0.0086  0.0214
  836YOPS   C4B11514   5.595   7.623   7.393  0.0183 -0.2224 -0.4616
  837YOPS   CNO11515  13.454   5.001   5.480 -0.2567  0.1023  0.0210
  837YOPS   PO411516  13.499   4.639   5.663 -0.1958 -0.0519  0.0642
  837YOPS   GL111517  13.329   4.677   5.992  0.1263 -0.2498  0.0886
  837YOPS   GL211518  13.162   4.391   6.119  0.0533  0.2037 -0.0833
  837YOPS   C1A11519  13.296   4.844   6.394  0.2768  0.0191 -0.1409
  837YOPS   D2A11520  13.271   4.952   6.840  0.0971  0.1834 -0.2031
  837YOPS   C3A11521  13.479   5.064   7.271  0.2542  0.0946  0.1436
  837YOPS   C4A11522  13.331   4.921   7.764  0.0015  0.0263 -0.0640
  837YOPS   C1B11523  13.152   4.360   6.476 -0.0652  0.2162  0.2705
  837YOPS   C2B11524  12.857   4.589   6.767 -0.1617  0.0365 -0.3576
  837YOPS   D3B11525  12.740   4.889   7.127  0.3312 -0.0139  0.3033
  837YOPS   C4B11526  12.947   5.045   7.449 -0.0271 -0.0017 -0.0645
  838YOPS   CNO11527   0.815   8.931   6.423 -0.2494 -0.0898  0.1220
  838YOPS   PO411528   1.069   9.254   6.433  0.1815  0.3778 -0.3593
  838YOPS   GL111529   1.035   9.291   6.763  0.1533 -0.2619  0.2366
  838YOPS   GL211530   0.655   9.403   6.728 -0.1251  0.2430  0.0459
  838YOPS   C1A11531   1.196   9.267   7.154 -0.1471  0.0251  0.1199
  838YOPS   D2A11532   1.280   9.338   7.613  0.1101 -0.0754 -0.1452
  838YOPS   C3A11533   1.103   9.540   7.917 -0.2582  0.2455 -0.0545
  838YOPS   C4A11534   1.289   9.910   8.202 -0.0254 -0.1277  0.0311
  838YOPS   C1B11535   0.687   9.299   7.138  0.1002 -0.1407  0.1000
  838YOPS   C2B11536   0.941   9.019   7.470  0.0357 -0.0799  0.3089
  838YOPS   D3B11537   1.019   8.956   7.906 -0.1490 -0.2006 -0.2697
  838YOPS   C4B11538   1.001   9.248   8.274 -0.2930 -0.1375 -0.2681
  839YOPS   CNO11539   3.616  11.197   5.114 -0.3930  0.0847 -0.2281
  839YOPS   PO411540   3.791  11.466   5.465  0.0252 -0.0348 -0.4506
  839YOPS   GL111541   3.819  11.488   5.927  0.0877 -0.1821  0.1518
  839YOPS   GL211542   3.695  11.138   6.016  0.0291  0.0779 -0.0596
  839YOPS   C1A11543   3.940  11.540   6.457  0.2249 -0.0962  0.6042
  839YOPS   D2A11544   3.821  11.405   6.910  0.0713  0.2968 -0.0930
  839YOPS   C3A11545   3.538  11.569   7.167  0.2302  0.0994 -0.4161
  839YOPS   C4A11546   3.689  11.587   7.537  0.2104  0.0625 -0.1043
  839YOPS   C1B11547   3.745  10.986   6.584 -0.3069  0.0210 -0.2669
  839YOPS   C2B11548   3.848  10.890   7.136  0.2552  0.2316  0.0953
  839YOPS   D3B11549   3.784  11.098   7.510 -0.2503 -0.2461  0.0795
  839YOPS   C4B11550   4.080  10.956   7.806 -0.1329  0.1449  0.2333
  840YOPS   CNO11551  11.877   7.300   5.724  0.0365  0.2204  0.2408
  840YOPS   PO411552  11.587   7.100   5.918  0.1656  0.2499  0.2450
  840YOPS   GL111553  11.622   6.825   6.301 -0.2121 -0.1493  0.0755
  840YOPS   GL211554  11.496   6.491   6.357 -0.5435  0.4306  0.1199
  840YOPS   C1A11555  11.695   7.021   6.726 -0.1435  0.0558 -0.2890
  840YOPS   D2A11556  12.086   7.107   6.980 -0.3355  0.4018 -0.0240
  840YOPS   C3A11557  12.312   6.984   7.336 -0.1767  0.2306 -0.1613
  840YOPS   C4A11558  12.387   6.545   7.589  0.0282 -0.0472  0.1364
  840YOPS   C1B11559  11.597   6.491   6.741  0.0291 -0.1579  0.0752
  840YOPS   C2B11560  11.675   6.178   7.062 -0.2113 -0.1139  0.0593
  840YOPS   D3B11561  11.670   5.903   7.471 -0.3231 -0.0646 -0.1302
  840YOPS   C4B11562  12.021   5.610   7.419  0.0855 -0.2732 -0.0536
  841YOPS   CNO11563   9.497  18.260   5.899  0.0857 -0.5126  0.3032
  841YOPS   PO411564   9.825  18.314   6.042 -0.0061 -0.1482 -0.3173
  841YOPS   GL111565   9.943  18.212   6.367 -0.2385  0.0429  0.1913
  841YOPS   GL211566  10.176  18.513   6.422  0.1743  0.2106 -0.0189
  841YOPS   C1A11567  10.109  18.268   6.847  0.0303  0.0155 -0.2475
  841YOPS   D2A11568  10.287  18.430   7.208 -0.0552  0.1651  0.1379
  841YOPS   C3A11569  10.382  18.537   7.703  0.0840  0.0064  0.0825
  841YOPS   C4A11570  10.622  18.326   8.107  0.0849  0.0948 -0.0623
  841YOPS   C1B11571  10.339  18.733   6.824 -0.2290 -0.1562 -0.0795
  841YOPS   C2B11572  10.392  18.905   7.191 -0.1208 -0.2745  0.3010
  841YOPS   D3B11573  10.166  18.924   7.533  0.1556 -0.0408 -0.4027
  841YOPS   C4B11574  10.103  19.293   7.705  0.0436  0.0193 -0.0008
  842POPE   NH311575  13.163   0.174   6.102  0.2484 -0.1000  0.4556
  842POPE   PO411576  12.871   0.470   6.068  0.0692 -0.1334 -0.0954
  842POPE   GL111577  12.525   0.385   6.249 -0.0929  0.1669 -0.3171
  842POPE   GL211578  12.434   0.128   6.536 -0.1444  0.0338 -0.0183
  842POPE   C1A11579  12.079   0.450   6.353  0.1014  0.0665 -0.0824
  842POPE   D2A11580  11.963   0.720   6.595 -0.1757 -0.0256 -0.4817
  842POPE   C3A11581  12.287   1.067   6.753 -0.0637  0.0252  0.0861
  842POPE   C4A11582  12.723   1.102   6.915  0.1057 -0.0330  0.2419
  842POPE   C1B11583  12.474   0.235   6.979 -0.0236 -0.3619  0.2208
  842POPE   C2B11584  12.351   0.152   7.383 -0.0459  0.0463 -0.2419
  842POPE   C3B11585  12.045   0.139   7.681  0.0775 -0.1786  0.2719
  842POPE   C4B11586  11.711   0.355   7.949 -0.2144  0.1374 -0.1265
  843POPE   NH311587  11.104  16.078   6.350  0.3429  0.1361  0.0731
  843POPE   PO411588  11.177  16.551   6.287  0.0770  0.0705 -0.0155
  843POPE   GL111589  11.289  16.506   6.711 -0.2087 -0.0947  0.1801
  843POPE   GL211590  11.536  16.236   6.717  0.0679  0.1389  0.0857
  843POPE   C1A11591  11.442  16.605   7.057 -0.1488  0.0257  0.1122
  843POPE   D2A11592  11.705  16.836   7.338  0.0510  0.0253  0.0091
  843POPE   C3A11593  12.136  16.724   7.262 -0.0088 -0.0849 -0.1334
  843POPE   C4A11594  12.502  16.494   7.080  0.0109  0.0315 -0.1809
  843POPE   C1B11595  11.354  15.933   6.981  0.0712 -0.0953  0.2421
  843POPE   C2B11596  11.123  15.852   7.320  0.3457 -0.1245 -0.2182
  843POPE   C3B11597  11.146  15.921   7.783  0.0148 -0.0189 -0.1184
  843POPE   C4B11598  11.078  15.809   8.177 -0.0772  0.1952 -0.0586
  844POPE   NH311599   7.587  17.490   5.650  0.0520  0.2093 -0.2722
  844POPE   PO411600   7.492  17.040   5.671 -0.0307 -0.0846  0.2822
  844POPE   GL111601   7.303  16.795   5.810  0.0273 -0.1359 -0.0285
  844POPE   GL211602   7.054  16.821   5.943  0.0877 -0.1063  0.0805
  844POPE   C1A11603   7.416  16.567   6.217  0.1968 -0.0590 -0.0944
  844POPE   D2A11604   7.316  16.209   6.413  0.1789 -0.0956 -0.3369
  844POPE   C3A11605   7.422  16.278   6.822  0.2182  0.0276  0.0992
  844POPE   C4A11606   7.770  16.085   6.963  0.0490 -0.1211 -0.3194
  844POPE   C1B11607   6.915  16.477   6.261  0.1121 -0.1798  0.0456
  844POPE   C2B11608   6.797  16.265   6.618  0.1105 -0.3132  0.1004
  844POPE   C3B11609   6.537  16.120   6.956  0.3788 -0.0707 -0.1604
  844POPE   C4B11610   6.482  15.767   7.326 -0.1170 -0.1926 -0.1379
  845POPE   NH311611   9.244  10.046   5.625 -0.0976 -0.1435  0.2664
  845POPE   PO411612   9.280  10.391   5.857  0.2458  0.3283  0.0019
  845POPE   GL111613   9.205  10.532   6.221 -0.1425  0.1069  0.3576
  845POPE   GL211614   9.385  10.781   6.176 -0.1545  0.3732  0.1105
  845POPE   C1A11615   9.313  10.476   6.681  0.0367  0.0052  0.0426
  845POPE   D2A11616   8.931  10.175   6.898  0.1940  0.2070  0.1225
  845POPE   C3A11617   8.949   9.720   7.073  0.1914 -0.0720  0.2261
  845POPE   C4A11618   9.290   9.435   7.274  0.1682 -0.1618 -0.2674
  845POPE   C1B11619   9.632  10.798   6.612  0.3955 -0.0705  0.2620
  845POPE   C2B11620   9.751  11.042   6.865 -0.1538  0.0114 -0.1488
  845POPE   C3B11621   9.960  11.397   7.090 -0.0428 -0.0991 -0.0610
  845POPE   C4B11622   9.944  11.835   6.961 -0.2149 -0.1311  0.0777
  846POPE   NH311623   1.674  14.032   5.851  0.0457  0.1325 -0.2522
  846POPE   PO411624   1.371  13.710   5.919  0.0884 -0.2059  0.4443
  846POPE   GL111625   1.723  13.713   6.310 -0.0762  0.1742 -0.1140
  846POPE   GL211626   2.020  13.954   6.260  0.0357 -0.0648 -0.0614
  846POPE   C1A11627   1.795  13.758   6.739 -0.2816  0.2776  0.0968
  846POPE   D2A11628   1.693  13.694   7.112 -0.2225 -0.2255  0.1938
  846POPE   C3A11629   2.006  13.872   7.391  0.0633 -0.3478 -0.4893
  846POPE   C4A11630   2.358  13.649   7.510 -0.2215 -0.0557  0.2346
  846POPE   C1B11631   2.230  13.819   6.556  0.3311 -0.0001 -0.1339
  846POPE   C2B11632   2.266  13.644   7.019  0.0298 -0.1443  0.0939
  846POPE   C3B11633   2.013  13.278   7.159  0.2362  0.0041  0.1064
  846POPE   C4B11634   2.085  12.952   7.376  0.0918 -0.2347  0.1204
  847POPE   NH311635  11.340  16.974   6.066  0.3299 -0.0139  0.0059
  847POPE   PO411636  11.022  17.302   6.074 -0.0448 -0.2288  0.1812
  847POPE   GL111637  11.068  17.065   6.457 -0.0939  0.1052  0.0911
  847POPE   GL211638  11.328  16.993   6.588  0.0929  0.1011 -0.0032
  847POPE   C1A11639  10.840  16.941   6.827 -0.5399 -0.1192  0.2350
  847POPE   D2A11640  11.017  16.880   7.061 -0.0311 -0.3065  0.0676
  847POPE   C3A11641  11.137  16.678   7.440 -0.1031  0.1651 -0.0495
  847POPE   C4A11642  11.355  16.576   7.796 -0.0710  0.0532  0.1370
  847POPE   C1B11643  11.604  17.078   6.879  0.3860 -0.0194 -0.0335
  847POPE   C2B11644  11.862  17.204   7.026 -0.3006 -0.1957  0.0581
  847POPE   C3B11645  12.068  17.225   7.308 -0.0325 -0.1368  0.1684
  847POPE   C4B11646  12.160  17.266   7.701  0.1503 -0.2385  0.1206
  848POPE   NH311647   1.927   4.811   5.760 -0.1266 -0.0826  0.2296
  848POPE   PO411648   1.490   4.759   5.921 -0.0950 -0.0698  0.2280
  848POPE   GL111649   1.209   4.716   6.289  0.0940  0.0081 -0.0545
  848POPE   GL211650   1.291   4.377   6.273  0.1609 -0.0821  0.0396
  848POPE   C1A11651   0.988   4.819   6.734 -0.0174 -0.1672 -0.1637
  848POPE   D2A11652   1.013   4.596   7.123  0.0094  0.1791  0.0622
  848POPE   C3A11653   1.195   4.710   7.575  0.1597 -0.1620  0.0388
  848POPE   C4A11654   1.309   4.553   7.984  0.0283  0.1142 -0.2067
  848POPE   C1B11655   1.239   4.367   6.687 -0.0042 -0.2667 -0.0465
  848POPE   C2B11656   1.462   4.383   7.015 -0.1699  0.1119  0.1068
  848POPE   C3B11657   1.652   4.445   7.415 -0.3870  0.0155  0.1567
  848POPE   C4B11658   1.756   4.525   7.806 -0.1248  0.0269  0.3583
  849POPE   NH311659   7.744  12.692   5.402  0.1500 -0.1611 -0.3228
  849POPE   PO411660   8.145  12.541   5.407 -0.2107 -0.2303  0.1426
  849POPE   GL111661   8.115  12.560   5.837  0.0585 -0.1486 -0.0036
  849POPE   GL211662   7.858  12.387   5.813  0.2480 -0.0192  0.3215
  849POPE   C1A11663   7.955  12.772   6.161 -0.0843  0.1976  0.0941
  849POPE   D2A11664   7.576  13.037   6.261  0.2161 -0.0947 -0.2023
  849POPE   C3A11665   7.417  13.053   6.639  0.0243  0.0455  0.1607
  849POPE   C4A11666   7.242  13.240   7.016  0.0361 -0.0648  0.2444
  849POPE   C1B11667   7.583  12.280   6.142 -0.0323 -0.1651 -0.2812
  849POPE   C2B11668   7.493  12.502   6.554  0.2349 -0.0204 -0.0253
  849POPE   C3B11669   7.444  12.393   6.907  0.2053  0.0100 -0.1019
  849POPE   C4B11670   7.621  12.567   7.309 -0.0449 -0.1822  0.3217
  850POPE   NH311671  16.295  12.466   5.712 -0.2199  0.0277 -0.0156
  850POPE   PO411672  16.211  11.965   5.813 -0.0711 -0.5232  0.1452
  850POPE   GL111673  16.231  12.032   6.287  0.1122 -0.2303  0.1827
  850POPE   GL211674  16.478  12.228   6.130  0.2370 -0.2994  0.0644
  850POPE   C1A11675  16.480  12.060   6.611 -0.1554 -0.1909 -0.3767
  850POPE   D2A11676  16.544  12.144   6.998 -0.2599 -0.0519 -0.3376
  850POPE   C3A11677  16.616  11.885   7.336  0.1863 -0.0558  0.3086
  850POPE   C4A11678  16.900  11.756   7.559  0.2589 -0.1211  0.3206
  850POPE   C1B11679  16.884  12.151   6.267 -0.0337  0.2747  0.2889
  850POPE   C2B11680  17.076  12.140   6.643  0.2408  0.0028  0.1660
  850POPE   C3B11681  17.061  12.068   7.078  0.1777  0.2126 -0.0738
  850POPE   C4B11682  17.081  12.198   7.614  0.0673  0.1324  0.0737
  851POPE   NH311683  17.043   3.393   5.937 -0.0292 -0.2001  0.0430
  851POPE   PO411684  16.853   2.959   6.054  0.0738 -0.2711 -0.0283
  851POPE   GL111685  16.736   2.850   6.468  0.0122  0.0368 -0.2320
  851POPE   GL211686  16.813   2.516   6.443 -0.0140 -0.1869  0.0421
  851POPE   C1A11687  16.764   2.912   6.880  0.2443  0.1071  0.1245
  851POPE   D2A11688  16.768   2.927   7.173  0.2692  0.2559 -0.0587
  851POPE   C3A11689  17.035   2.736   7.438 -0.1404 -0.1011  0.1529
  851POPE   C4A11690  17.071   2.420   7.793 -0.0815 -0.0144  0.0863
  851POPE   C1B11691  16.958   2.394   6.785 -0.2027 -0.0831  0.1614
  851POPE   C2B11692  17.156   2.342   7.192 -0.3201  0.1391  0.1325
  851POPE   C3B11693  17.282   1.949   7.371  0.3841 -0.0074  0.2072
  851POPE   C4B11694  17.139   1.920   7.796  0.1270 -0.1638  0.2421
  852POPE   NH311695  17.850   1.990   6.017  0.0289 -0.0078  0.0062
  852POPE   PO411696  18.208   1.691   6.157 -0.3089 -0.1365 -0.1542
  852POPE   GL111697  18.148   2.011   6.492  0.0599  0.1292 -0.0131
  852POPE   GL211698  18.329   2.331   6.516 -0.1364  0.0723  0.0395
  852POPE   C1A11699  18.069   2.121   6.954  0.0844  0.0781 -0.1386
  852POPE   D2A11700  18.248   2.135   7.333  0.0858 -0.1625  0.0110
  852POPE   C3A11701  18.666   2.007   7.582  0.0182 -0.1584  0.0308
  852POPE   C4A11702  18.795   1.731   7.721  0.0382  0.2614  0.3279
  852POPE   C1B11703  18.561   2.400   6.918  0.0820  0.1389  0.0532
  852POPE   C2B11704  18.598   2.487   7.349 -0.1134  0.2240  0.1675
  852POPE   C3B11705  18.548   2.512   7.715 -0.0733 -0.1055 -0.3616
  852POPE   C4B11706  18.386   2.655   8.039  0.0983  0.1410  0.0658
  853POPE   NH311707  16.595  11.192   5.743  0.3003  0.0533 -0.1773
  853POPE   PO411708  16.227  11.012   5.704  0.0511 -0.0023  0.1123
  853POPE   GL111709  16.089  10.985   6.118 -0.2663  0.1604 -0.1444
  853POPE   GL211710  16.381  10.866   6.198 -0.1382 -0.1729 -0.0076
  853POPE   C1A11711  15.833  11.060   6.504  0.1070  0.1690  0.1817
  853POPE   D2A11712  15.440  10.893   6.538 -0.1319  0.1022 -0.0927
  853POPE   C3A11713  15.417  10.611   6.891 -0.0116 -0.0341  0.1487
  853POPE   C4A11714  15.624  10.607   7.175  0.1466 -0.1758  0.3202
  853POPE   C1B11715  16.299  10.991   6.701 -0.0386 -0.0783 -0.0703
  853POPE   C2B11716  16.344  11.173   7.045 -0.2399  0.0383 -0.0156
  853POPE   C3B11717  16.430  11.385   7.405 -0.2001  0.1413 -0.1303
  853POPE   C4B11718  16.169  11.711   7.503  0.1321  0.2578  0.2778
  854POPE   NH311719  15.902  16.994   6.203  0.1264  0.0395 -0.0567
  854POPE   PO411720  16.247  16.744   6.300  0.0389 -0.0967 -0.4163
  854POPE   GL111721  16.540  16.591   6.569  0.1109  0.0779  0.1210
  854POPE   GL211722  16.684  16.273   6.513 -0.2495  0.1251  0.1044
  854POPE   C1A11723  16.699  16.445   6.994  0.2915  0.0485 -0.0370
  854POPE   D2A11724  16.805  16.149   7.335 -0.2113  0.0566 -0.2675
  854POPE   C3A11725  16.781  16.232   7.730  0.1736  0.3618 -0.1894
  854POPE   C4A11726  16.664  16.501   8.075  0.2261  0.1453 -0.0342
  854POPE   C1B11727  16.935  15.986   6.828  0.0500 -0.1312  0.3874
  854POPE   C2B11728  17.096  15.777   7.194  0.1886  0.2602 -0.0838
  854POPE   C3B11729  16.946  15.708   7.627  0.2977  0.1630 -0.0982
  854POPE   C4B11730  17.077  15.422   8.011  0.2676 -0.2328 -0.0676
  855POPE   NH311731   5.403   9.532   5.914 -0.0752 -0.0376  0.1975
  855POPE   PO411732   4.962   9.452   5.724  0.0083  0.0738 -0.0182
  855POPE   GL111733   4.901   9.484   6.140 -0.0630  0.0549 -0.1016
  855POPE   GL211734   5.140   9.674   6.393  0.1840 -0.2665  0.1338
  855POPE   C1A11735   4.893   9.282   6.601  0.0345  0.3279  0.2276
  855POPE   D2A11736   4.831   9.112   6.943  0.0663 -0.1471  0.1486
  855POPE   C3A11737   4.593   9.262   7.282  0.2192 -0.1806  0.2559
  855POPE   C4A11738   4.590   9.612   7.399  0.2380 -0.4537 -0.2066
  855POPE   C1B11739   5.601   9.792   6.680 -0.1446 -0.1374 -0.0262
  855POPE   C2B11740   5.769  10.011   6.966 -0.0190  0.2307 -0.1718
  855POPE   C3B11741   5.642   9.960   7.447  0.4461 -0.0911 -0.1743
  855POPE   C4B11742   5.408  10.317   7.568  0.3857  0.0366  0.3287
  856POPE   NH311743   6.359   0.842   5.387 -0.2141  0.3182  0.1829
  856POPE   PO411744   6.543   0.479   5.619 -0.4665  0.2824 -0.4269
  856POPE   GL111745   6.404   0.466   6.085  0.1975 -0.1931 -0.3519
  856POPE   GL211746   6.324   0.151   6.291  0.2218  0.0325 -0.0819
  856POPE   C1A11747   6.630   0.440   6.542 -0.3179  0.2317  0.1104
  856POPE   D2A11748   6.764   0.697   6.924  0.0468  0.0964 -0.0429
  856POPE   C3A11749   6.423   0.691   7.229 -0.6465  0.4390  0.2445
  856POPE   C4A11750   6.295   0.850   7.543  0.2647  0.0677 -0.0684
  856POPE   C1B11751   6.562  -0.041   6.626 -0.2793  0.0378  0.0532
  856POPE   C2B11752   6.468  -0.181   7.058 -0.1930 -0.0246 -0.0520
  856POPE   C3B11753   6.298   0.033   7.532 -0.1123  0.0657 -0.0271
  856POPE   C4B11754   6.285  -0.110   7.980 -0.0328  0.3740 -0.0600
  857POPE   NH311755  16.248  14.227   5.889  0.0812 -0.3463  0.2045
  857POPE   PO411756  16.511  13.875   6.096 -0.0549 -0.0449  0.0992
  857POPE   GL111757  16.370  14.015   6.431 -0.2355 -0.1275 -0.2141
  857POPE   GL211758  16.103  14.279   6.376 -0.0402 -0.1519 -0.0249
  857POPE   C1A11759  16.137  14.150   6.860 -0.0590 -0.1684 -0.0729
  857POPE   D2A11760  16.068  14.004   7.304 -0.1988 -0.0454 -0.2496
  857POPE   C3A11761  16.169  14.289   7.716  0.0443  0.1201  0.0697
  857POPE   C4A11762  16.425  14.267   8.102  0.1690  0.2203 -0.3033
  857POPE   C1B11763  15.996  14.637   6.524  0.2842  0.3481 -0.0742
  857POPE   C2B11764  16.038  15.012   6.772  0.2587  0.2749  0.2240
  857POPE   C3B11765  16.405  14.979   7.083 -0.2625 -0.0714  0.2984
  857POPE   C4B11766  16.831  14.760   7.038  0.1532  0.1700  0.0992
  858POPE   NH311767   2.788   0.415   5.564  0.1351  0.0680  0.2360
  858POPE   PO411768   3.080   0.747   5.537 -0.1032 -0.0189 -0.0459
  858POPE   GL111769   3.084   0.514   5.965  0.2650 -0.3454  0.0918
  858POPE   GL211770   3.199   0.266   5.953 -0.1420 -0.1364 -0.0805
  858POPE   C1A11771   2.909   0.512   6.418  0.0951  0.0869 -0.0187
  858POPE   D2A11772   2.709   0.480   6.821 -0.1793  0.2269  0.0267
  858POPE   C3A11773   2.852   0.472   7.217 -0.1877  0.0154 -0.0276
  858POPE   C4A11774   3.146   0.375   7.587  0.1905  0.1119  0.0340
  858POPE   C1B11775   3.257   0.170   6.335  0.1086 -0.1563  0.0661
  858POPE   C2B11776   3.204   0.109   6.766  0.1483  0.1736  0.0097
  858POPE   C3B11777   2.813   0.003   7.065 -0.1401 -0.2815 -0.2933
  858POPE   C4B11778   2.724  -0.358   7.252  0.0551 -0.2181 -0.4394
  859POPE   NH311779   0.588   5.712   5.733  0.2595  0.0037  0.1460
  859POPE   PO411780   1.000   5.569   5.898  0.0978  0.3279  0.2295
  859POPE   GL111781   1.014   5.481   6.272 -0.1883  0.0788 -0.1185
  859POPE   GL211782   1.000   5.215   6.399 -0.3341  0.0996 -0.1902
  859POPE   C1A11783   0.726   5.610   6.659 -0.4013  0.2302 -0.0615
  859POPE   D2A11784   0.582   5.873   6.957  0.2430 -0.3128 -0.2639
  859POPE   C3A11785   0.539   5.844   7.409 -0.0539  0.0955 -0.1586
  859POPE   C4A11786   0.562   5.925   7.779  0.3057 -0.2089 -0.0035
  859POPE   C1B11787   1.114   5.329   6.813 -0.1532 -0.1270  0.1402
  859POPE   C2B11788   1.181   5.106   7.184  0.3517 -0.0928  0.0950
  859POPE   C3B11789   0.957   5.137   7.517  0.0049  0.0721 -0.0506
  859POPE   C4B11790   0.827   5.502   7.792 -0.0104  0.1408 -0.1082
  860POPE   NH311791   6.626   5.055   5.887  0.0857 -0.0646 -0.0344
  860POPE   PO411792   6.545   5.414   5.965 -0.0828 -0.0878  0.1821
  860POPE   GL111793   6.569   5.672   6.325  0.0104  0.1235  0.1891
  860POPE   GL211794   6.692   6.048   6.246  0.0749 -0.0848 -0.1126
  860POPE   C1A11795   6.412   5.672   6.684 -0.3440 -0.3398 -0.1698
  860POPE   D2A11796   6.382   5.855   7.055  0.0285  0.0615  0.2174
  860POPE   C3A11797   6.176   5.849   7.472  0.1996  0.0738  0.1480
  860POPE   C4A11798   6.260   5.863   7.949 -0.0090  0.0739  0.1638
  860POPE   C1B11799   6.473   6.303   6.585  0.2538 -0.2006 -0.0938
  860POPE   C2B11800   6.520   6.577   6.887 -0.0285 -0.0951  0.0418
  860POPE   C3B11801   6.414   6.941   7.119 -0.0263 -0.0004  0.0045
  860POPE   C4B11802   6.370   7.355   7.347 -0.2834  0.0151 -0.1758
  861POPE   NH311803   7.183  18.187   5.999 -0.2968  0.1812  0.0037
  861POPE   PO411804   7.590  18.144   6.011 -0.1350  0.0375 -0.1641
  861POPE   GL111805   7.465  17.997   6.349  0.1635  0.3739 -0.0109
  861POPE   GL211806   7.738  17.784   6.499 -0.3306 -0.1813 -0.2370
  861POPE   C1A11807   7.303  18.055   6.667  0.0155  0.0811 -0.0180
  861POPE   D2A11808   7.032  18.177   7.060  0.0731 -0.0959 -0.1781
  861POPE   C3A11809   6.821  17.921   7.317 -0.1566 -0.1500 -0.2399
  861POPE   C4A11810   6.508  17.866   7.536 -0.1894 -0.0612  0.2229
  861POPE   C1B11811   7.964  17.798   6.829  0.1760 -0.0360 -0.2232
  861POPE   C2B11812   8.340  17.743   7.133  0.1554  0.2245 -0.0484
  861POPE   C3B11813   8.655  17.488   7.428 -0.2126  0.2780  0.1290
  861POPE   C4B11814   8.582  17.402   7.920  0.1515 -0.0268 -0.0744
  862POPE   NH311815  10.589   7.946   5.460  0.0750 -0.0246 -0.0375
  862POPE   PO411816  10.910   8.163   5.675 -0.0324 -0.1682 -0.1331
  862POPE   GL111817  10.795   8.268   6.081  0.0539 -0.1431  0.2436
  862POPE   GL211818  10.658   8.591   6.140  0.1227  0.2352  0.1651
  862POPE   C1A11819  10.999   8.320   6.454 -0.1739 -0.0476 -0.1941
  862POPE   D2A11820  11.187   8.369   6.917  0.3182  0.3208 -0.1609
  862POPE   C3A11821  11.143   8.336   7.336  0.2050 -0.0768  0.0931
  862POPE   C4A11822  11.051   8.218   7.736 -0.3274 -0.0758  0.1622
  862POPE   C1B11823  10.409   8.460   6.480 -0.0262  0.0272 -0.2450
  862POPE   C2B11824  10.651   8.118   6.782  0.2708 -0.0810  0.1122
  862POPE   C3B11825  10.790   8.069   7.206 -0.0234  0.2115  0.0880
  862POPE   C4B11826  10.722   7.905   7.625  0.0497  0.2020 -0.0972
  863POPE   NH311827   0.608  15.049   5.611 -0.1410 -0.1948 -0.1566
  863POPE   PO411828   0.786  15.392   5.869  0.1272  0.1195 -0.1920
  863POPE   GL111829   0.732  15.458   6.235 -0.0275  0.0467 -0.0624
  863POPE   GL211830   0.432  15.508   6.372  0.2058 -0.4381 -0.0874
  863POPE   C1A11831   0.978  15.348   6.569 -0.1380  0.2120  0.1087
  863POPE   D2A11832   1.001  15.057   6.845  0.0587  0.3348  0.3061
  863POPE   C3A11833   1.159  14.989   7.229  0.1226  0.0121 -0.1360
  863POPE   C4A11834   1.283  15.169   7.629  0.1228  0.1434  0.0560
  863POPE   C1B11835   0.517  15.321   6.758  0.2032  0.1798  0.0642
  863POPE   C2B11836   0.586  15.108   7.137  0.1177  0.2650 -0.0108
  863POPE   C3B11837   0.435  14.772   7.384  0.1030  0.1983 -0.0302
  863POPE   C4B11838   0.477  14.346   7.616  0.0486 -0.2509 -0.0728
  864POPE   NH311839   6.686  16.684   5.577 -0.1323  0.0534 -0.0602
  864POPE   PO411840   6.257  16.578   5.485 -0.1247 -0.1388 -0.1573
  864POPE   GL111841   6.232  16.556   5.938 -0.0070  0.1652  0.1056
  864POPE   GL211842   6.410  16.388   6.012 -0.1485 -0.2081 -0.2743
  864POPE   C1A11843   5.956  16.663   6.341 -0.3814  0.2372 -0.3710
  864POPE   D2A11844   6.002  16.737   6.842 -0.0272 -0.2477  0.4013
  864POPE   C3A11845   5.690  16.760   7.216  0.0138 -0.1151 -0.2079
  864POPE   C4A11846   5.656  16.697   7.663 -0.0808  0.2493  0.2039
  864POPE   C1B11847   6.190  16.210   6.410  0.0372  0.1902  0.0162
  864POPE   C2B11848   6.064  16.253   6.826 -0.3942  0.3414 -0.2775
  864POPE   C3B11849   6.160  16.423   7.247 -0.1649 -0.4182 -0.3576
  864POPE   C4B11850   6.203  16.607   7.562  0.0600 -0.0001 -0.0229
  865POPE   NH311851  14.489  17.253   5.949 -0.2549  0.1995  0.2035
  865POPE   PO411852  14.179  17.437   6.064  0.0615  0.1255  0.1177
  865POPE   GL111853  14.031  17.322   6.478 -0.0543  0.1520 -0.0727
  865POPE   GL211854  14.236  17.067   6.601  0.1537 -0.0869  0.4630
  865POPE   C1A11855  13.753  17.415   6.830  0.0576  0.1668  0.0495
  865POPE   D2A11856  13.402  17.355   7.173  0.1618  0.2042 -0.0298
  865POPE   C3A11857  13.500  17.101   7.450  0.4375 -0.0557  0.1614
  865POPE   C4A11858  13.744  16.867   7.810 -0.0336  0.0731  0.2091
  865POPE   C1B11859  14.181  17.212   6.971 -0.3772 -0.2046 -0.0168
  865POPE   C2B11860  13.936  17.304   7.326 -0.3889 -0.1072 -0.1616
  865POPE   C3B11861  13.965  17.283   7.757  0.1850 -0.1007  0.0917
  865POPE   C4B11862  14.179  16.960   8.036  0.1275  0.2075  0.3124
  866POPE   NH311863  12.114   6.146   5.891  0.0625  0.0624  0.1182
  866POPE   PO411864  11.719   6.128   5.989 -0.0661 -0.1035 -0.3780
  866POPE   GL111865  11.615   6.023   6.351 -0.0646  0.2966  0.0156
  866POPE   GL211866  11.401   5.720   6.333 -0.1346  0.0265  0.0688
  866POPE   C1A11867  11.295   6.032   6.669  0.0328 -0.0209 -0.2961
  866POPE   D2A11868  11.093   5.950   7.120 -0.1141  0.1673  0.0170
  866POPE   C3A11869  11.223   6.012   7.395 -0.2460  0.0484 -0.1701
  866POPE   C4A11870  11.324   5.836   7.792  0.0806  0.0453  0.1466
  866POPE   C1B11871  11.643   5.660   6.708 -0.1061  0.0490  0.2524
  866POPE   C2B11872  11.675   5.546   7.097  0.3891  0.1380  0.3868
  866POPE   C3B11873  11.634   5.310   7.451  0.2533  0.1462  0.0464
  866POPE   C4B11874  11.433   5.318   7.782 -0.1258 -0.0126  0.0585
  867POPE   NH311875  13.030   2.477   5.989 -0.1604 -0.1372 -0.1211
  867POPE   PO411876  12.561   2.506   6.042  0.1256 -0.0638 -0.1821
  867POPE   GL111877  12.344   2.234   6.308  0.0796 -0.1525  0.2587
  867POPE   GL211878  12.299   2.312   6.507  0.0056 -0.0140  0.0466
  867POPE   C1A11879  12.228   1.871   6.583 -0.1523  0.0718 -0.2336
  867POPE   D2A11880  12.048   1.485   6.587 -0.2652 -0.0334  0.0026
  867POPE   C3A11881  12.124   1.260   6.322  0.1875 -0.1975 -0.1149
  867POPE   C4A11882  12.043   0.827   6.060  0.0610  0.0915 -0.0596
  867POPE   C1B11883  12.109   2.332   6.922  0.0818  0.1234  0.1604
  867POPE   C2B11884  11.828   2.560   7.049 -0.2788  0.1753  0.0115
  867POPE   C3B11885  11.433   2.480   7.410  0.2750  0.1206 -0.2511
  867POPE   C4B11886  11.352   2.082   7.676  0.0438  0.0029 -0.1224
  868POPE   NH311887  14.226   1.642   6.279  0.1529 -0.1515 -0.0921
  868POPE   PO411888  13.824   1.640   6.217 -0.1862  0.0830 -0.0512
  868POPE   GL111889  13.879   1.272   6.637  0.1484  0.1766 -0.5139
  868POPE   GL211890  13.608   1.450   6.793 -0.0997 -0.1053  0.0264
  868POPE   C1A11891  13.989   1.355   7.068 -0.1562 -0.1056  0.0244
  868POPE   D2A11892  14.059   1.368   7.467  0.1217  0.2163 -0.1127
  868POPE   C3A11893  14.203   1.748   7.549 -0.1830  0.2687 -0.3507
  868POPE   C4A11894  14.140   1.929   7.979 -0.1348 -0.0370 -0.3986
  868POPE   C1B11895  13.559   1.370   7.325  0.1105  0.2628  0.1863
  868POPE   C2B11896  13.672   1.285   7.776  0.0489  0.2654  0.0335
  868POPE   C3B11897  14.051   1.362   8.084 -0.2810 -0.0867 -0.0455
  868POPE   C4B11898  14.345   1.057   8.111 -0.0760  0.1843  0.0188
  869POPE   NH311899   7.532   8.464   6.114 -0.1614 -0.0099 -0.3798
  869POPE   PO411900   7.930   8.452   6.212  0.1964 -0.2731 -0.0023
  869POPE   GL111901   8.089   8.585   6.698  0.1731 -0.1973 -0.4441
  869POPE   GL211902   8.434   8.664   6.643  0.1793 -0.0491  0.7206
  869POPE   C1A11903   8.016   8.531   7.107 -0.2277 -0.1309  0.3446
  869POPE   D2A11904   7.983   8.702   7.508  0.0809  0.1387 -0.2685
  869POPE   C3A11905   8.287   8.856   7.831  0.1188 -0.1267  0.3630
  869POPE   C4A11906   8.609   8.615   8.013  0.1044 -0.0288  0.0067
  869POPE   C1B11907   8.364   8.971   6.954 -0.2433  0.1951  0.0598
  869POPE   C2B11908   8.568   8.907   7.258  0.0563 -0.0045 -0.1349
  869POPE   C3B11909   8.637   9.189   7.613  0.0143 -0.0281 -0.1456
  869POPE   C4B11910   8.637   9.568   7.938 -0.2624  0.1267  0.2696
  870POPE   NH311911  17.442  16.812   5.830  0.2133  0.3031  0.3871
  870POPE   PO411912  17.166  17.143   5.954  0.1353 -0.1320 -0.1317
  870POPE   GL111913  17.261  17.406   6.346  0.1453  0.0077 -0.2959
  870POPE   GL211914  17.070  17.459   6.574 -0.1672 -0.1136  0.1130
  870POPE   C1A11915  17.560  17.582   6.575 -0.0479  0.2368  0.1304
  870POPE   D2A11916  17.652  17.600   7.011 -0.2057  0.1903 -0.1072
  870POPE   C3A11917  17.669  18.060   7.257 -0.0736 -0.1970  0.2848
  870POPE   C4A11918  17.878  18.329   7.518  0.5467  0.4876 -0.1362
  870POPE   C1B11919  17.104  17.471   7.090  0.2168 -0.4118  0.0243
  870POPE   C2B11920  17.359  17.555   7.390  0.3041  0.3225 -0.0133
  870POPE   C3B11921  17.634  17.568   7.525 -0.1520  0.2220  0.0620
  870POPE   C4B11922  17.967  17.413   7.861  0.0895  0.5139 -0.1246
  871POPE   NH311923   6.947   6.935   5.813 -0.1006  0.1810  0.2187
  871POPE   PO411924   6.769   7.306   5.915  0.2952  0.1094  0.0311
  871POPE   GL111925   6.683   7.278   6.423  0.0925  0.1279  0.1016
  871POPE   GL211926   6.358   7.450   6.457  0.0465 -0.0050  0.3174
  871POPE   C1A11927   6.761   7.312   6.963  0.0339  0.0687 -0.0383
  871POPE   D2A11928   6.783   7.673   7.228 -0.2815 -0.2481  0.1861
  871POPE   C3A11929   6.591   7.678   7.631  0.1331 -0.0467  0.0256
  871POPE   C4A11930   6.375   7.440   7.896 -0.0852  0.0305  0.0848
  871POPE   C1B11931   6.521   7.708   6.750 -0.0341  0.2049  0.0634
  871POPE   C2B11932   6.300   7.790   7.157  0.0929  0.0063  0.0134
  871POPE   C3B11933   6.048   7.982   7.469  0.0948 -0.2824  0.2384
  871POPE   C4B11934   5.717   8.063   7.719 -0.0292  0.3848  0.1156
  872YOPE   NH311935   7.602   9.671   5.910 -0.3512 -0.1326 -0.1922
  872YOPE   PO411936   7.351  10.032   5.868 -0.2764  0.0977 -0.1391
  872YOPE   GL111937   7.389  10.165   6.254  0.0632 -0.0845  0.2136
  872YOPE   GL211938   7.506   9.925   6.419 -0.1772 -0.0867  0.0905
  872YOPE   C1A11939   7.564  10.297   6.685  0.2243 -0.0750  0.1357
  872YOPE   D2A11940   7.715  10.288   7.104 -0.1006 -0.1606  0.0636
  872YOPE   C3A11941   7.821   9.897   7.199 -0.3304 -0.4039 -0.2320
  872YOPE   C4A11942   8.025   9.499   7.157  0.0424  0.1644  0.2501
  872YOPE   C1B11943   7.361   9.883   6.796  0.0813  0.1604  0.3623
  872YOPE   C2B11944   6.933   9.649   6.890  0.0997  0.0635  0.3303
  872YOPE   D3B11945   6.514   9.450   6.674  0.0684 -0.1981 -0.2102
  872YOPE   C4B11946   6.290   9.219   6.348  0.0496 -0.2912  0.4252
  873YOPE   NH311947  16.227  10.518   5.424 -0.1315  0.1122  0.0456
  873YOPE   PO411948  16.176  10.477   5.856 -0.0832 -0.0102  0.0910
  873YOPE   GL111949  16.251  10.296   6.245  0.0111 -0.0234 -0.3424
  873YOPE   GL211950  16.061  10.048   6.303 -0.0556  0.4104  0.0359
  873YOPE   C1A11951  16.345  10.373   6.641 -0.1626 -0.2206 -0.0108
  873YOPE   D2A11952  16.249  10.266   7.123 -0.0590 -0.2128  0.0289
  873YOPE   C3A11953  16.163  10.674   7.322 -0.3945  0.1101  0.0584
  873YOPE   C4A11954  16.330  10.937   7.583 -0.2504  0.0037  0.0828
  873YOPE   C1B11955  15.954  10.014   6.744  0.1438  0.0604 -0.2175
  873YOPE   C2B11956  15.760  10.159   7.051  0.1175  0.0552 -0.2276
  873YOPE   D3B11957  15.846  10.329   7.521  0.2268 -0.2049 -0.2493
  873YOPE   C4B11958  15.935  10.621   7.763 -0.1742  0.1489 -0.3803
  874YOPE   NH311959  10.711   6.100   5.945  0.0251 -0.1649 -0.0495
  874YOPE   PO411960  10.995   5.716   5.945 -0.0880 -0.0853  0.1055
  874YOPE   GL111961  10.921   5.836   6.344  0.2371 -0.5545  0.1372
  874YOPE   GL211962  10.584   5.702   6.277 -0.0617  0.0041  0.0933
  874YOPE   C1A11963  10.727   5.840   6.809  0.2368 -0.0004  0.2185
  874YOPE   D2A11964  10.625   5.831   7.232  0.1937 -0.3824  0.1668
  874YOPE   C3A11965  10.770   6.029   7.585  0.1370  0.1252  0.2897
  874YOPE   C4A11966  10.856   6.036   7.995  0.1236  0.0910 -0.2679
  874YOPE   C1B11967  10.291   5.654   6.551  0.0878 -0.1702  0.0450
  874YOPE   C2B11968  10.219   5.730   6.906  0.2029 -0.0486 -0.1295
  874YOPE   D3B11969  10.103   5.795   7.377 -0.0372 -0.0129 -0.2171
  874YOPE   C4B11970  10.417   5.682   7.704  0.1432  0.2143  0.0295
  875YOPE   NH311971  16.356  13.439   5.937 -0.0233  0.1158  0.4698
  875YOPE   PO411972  15.905  13.243   5.925  0.0168  0.3194  0.1532
  875YOPE   GL111973  15.941  13.211   6.295  0.2215  0.2648  0.0505
  875YOPE   GL211974  15.645  13.245   6.484  0.2415  0.2291 -0.0256
  875YOPE   C1A11975  16.103  13.030   6.730 -0.0406  0.0036  0.0506
  875YOPE   D2A11976  16.028  12.986   7.095  0.1460  0.1913 -0.1634
  875YOPE   C3A11977  16.063  13.281   7.227  0.5338 -0.0673  0.1032
  875YOPE   C4A11978  16.055  13.519   7.427 -0.3827  0.0581  0.0145
  875YOPE   C1B11979  15.635  13.161   6.937 -0.1012 -0.4209  0.0699
  875YOPE   C2B11980  15.607  13.105   7.363  0.1473 -0.0257  0.3331
  875YOPE   D3B11981  15.985  12.990   7.680  0.0674  0.0517 -0.1576
  875YOPE   C4B11982  16.055  13.331   7.872 -0.1493 -0.2980 -0.0637
  876YOPE   NH311983   7.946   6.151   5.911  0.3389 -0.4339 -0.0079
  876YOPE   PO411984   8.421   6.257   5.734  0.0164 -0.0660 -0.3567
  876YOPE   GL111985   8.360   6.296   6.173 -0.0942 -0.0894 -0.0736
  876YOPE   GL211986   8.432   6.045   6.202  0.3236 -0.1870  0.1491
  876YOPE   C1A11987   8.250   6.417   6.510  0.0400 -0.2621  0.0599
  876YOPE   D2A11988   8.339   6.814   6.819 -0.1532 -0.1818 -0.1851
  876YOPE   C3A11989   8.222   7.130   7.089  0.1711  0.0383 -0.1315
  876YOPE   C4A11990   8.136   7.458   7.320 -0.2879 -0.2144 -0.1416
  876YOPE   C1B11991   8.399   5.968   6.726  0.1023 -0.0479 -0.0533
  876YOPE   C2B11992   8.346   5.996   7.117 -0.1825  0.2650 -0.0498
  876YOPE   D3B11993   8.419   6.193   7.491 -0.0029 -0.0402  0.1437
  876YOPE   C4B11994   8.627   6.292   7.907 -0.2283 -0.1205  0.2162
  877YOPE   NH311995   9.049   6.105   6.115 -0.0869 -0.1006  0.0597
  877YOPE   PO411996   8.809   5.694   5.988 -0.0495 -0.0347 -0.0048
  877YOPE   GL111997   8.806   5.671   6.395  0.0237  0.1830 -0.1133
  877YOPE   GL211998   8.920   5.949   6.554 -0.0809  0.1034  0.3719
  877YOPE   C1A11999   8.907   5.340   6.761  0.2578  0.0802  0.1074
  877YOPE   D2A12000   9.181   5.483   7.024 -0.2841 -0.3347 -0.0699
  877YOPE   C3A12001   9.075   5.410   7.423  0.0316  0.2047  0.1717
  877YOPE   C4A12002   8.991   5.403   7.789  0.0674 -0.0527  0.0696
  877YOPE   C1B12003   8.893   5.841   6.894 -0.1934 -0.0674  0.1256
  877YOPE   C2B12004   8.719   5.572   7.177 -0.0097  0.0654 -0.1141
  877YOPE   D3B12005   8.469   5.720   7.570 -0.1780  0.0772  0.0152
  877YOPE   C4B12006   8.195   5.810   7.887 -0.0298 -0.1696  0.0884
  878YOPE   NH312007  13.496  10.955   5.749  0.1172  0.2988  0.0913
  878YOPE   PO412008  13.866  11.268   5.897  0.4751 -0.1154 -0.0608
  878YOPE   GL112009  13.803  11.608   6.215  0.4212  0.0743 -0.1987
  878YOPE   GL212010  13.642  11.892   6.141 -0.1991 -0.1054 -0.0167
  878YOPE   C1A12011  13.837  11.774   6.645 -0.0752 -0.3846 -0.0491
  878YOPE   D2A12012  13.540  12.109   6.821  0.3113 -0.0591 -0.1326
  878YOPE   C3A12013  13.469  12.149   7.252 -0.1653  0.0258  0.1504
  878YOPE   C4A12014  13.418  12.305   7.596 -0.0893  0.3940  0.0755
  878YOPE   C1B12015  13.370  11.828   6.406  0.0150 -0.1814 -0.1079
  878YOPE   C2B12016  13.150  11.734   6.758  0.1191 -0.2747 -0.0174
  878YOPE   D3B12017  13.168  11.768   7.132  0.1989 -0.3060  0.0911
  878YOPE   C4B12018  13.313  11.723   7.516 -0.0334  0.0059  0.0048
  879YOPE   NH312019   5.392   7.546   5.982  0.1703  0.2916 -0.0793
  879YOPE   PO412020   5.795   7.677   5.851  0.2221  0.1796 -0.0475
  879YOPE   GL112021   5.826   7.606   6.329 -0.0766 -0.0454 -0.0756
  879YOPE   GL212022   5.532   7.601   6.526 -0.0541 -0.1982 -0.1405
  879YOPE   C1A12023   6.092   7.858   6.626  0.1895  0.2417  0.1712
  879YOPE   D2A12024   6.208   8.170   6.695 -0.2103  0.0644  0.1861
  879YOPE   C3A12025   6.061   8.342   7.108 -0.0252 -0.1232 -0.2637
  879YOPE   C4A12026   5.888   8.584   7.503 -0.0026 -0.2122 -0.1907
  879YOPE   C1B12027   5.437   7.887   6.809  0.0178 -0.1803 -0.0523
  879YOPE   C2B12028   5.472   8.105   7.162 -0.1254  0.1072 -0.2374
  879YOPE   D3B12029   5.392   8.391   7.473 -0.1731  0.0038 -0.2143
  879YOPE   C4B12030   5.387   8.395   7.889 -0.0427  0.3815  0.1310
  880YOPE   NH312031   8.112  11.953   5.642 -0.1815 -0.1506  0.2418
  880YOPE   PO412032   7.843  11.668   5.567  0.1399  0.0616  0.0427
  880YOPE   GL112033   7.808  11.808   6.055 -0.2592 -0.0833 -0.0933
  880YOPE   GL212034   8.048  12.018   6.132 -0.1072  0.2530  0.0343
  880YOPE   C1A12035   7.883  11.904   6.546 -0.0782 -0.1541  0.2095
  880YOPE   D2A12036   7.903  12.303   6.797  0.1093  0.3122  0.0684
  880YOPE   C3A12037   8.135  12.601   7.104  0.3007 -0.1320  0.0011
  880YOPE   C4A12038   8.077  13.012   7.425 -0.1726  0.4333  0.0696
  880YOPE   C1B12039   8.154  12.403   6.371  0.0957 -0.1212  0.0461
  880YOPE   C2B12040   7.966  12.826   6.688  0.1582  0.2739 -0.2748
  880YOPE   D3B12041   7.769  12.913   6.986  0.0748 -0.0171 -0.2214
  880YOPE   C4B12042   7.556  13.118   7.405  0.3224 -0.0212 -0.4165
  881YOPE   NH312043   6.033   4.578   5.942  0.0664  0.2555  0.0050
  881YOPE   PO412044   6.243   4.875   6.133  0.2312 -0.1400  0.2746
  881YOPE   GL112045   6.172   4.594   6.508 -0.1185 -0.1906  0.0677
  881YOPE   GL212046   6.452   4.659   6.738  0.1703 -0.1398 -0.1757
  881YOPE   C1A12047   5.815   4.761   6.887 -0.0665  0.1678 -0.0253
  881YOPE   D2A12048   5.681   4.680   7.243 -0.2093 -0.1968 -0.0939
  881YOPE   C3A12049   5.621   4.904   7.572 -0.1060  0.1664  0.0335
  881YOPE   C4A12050   5.785   5.152   7.892  0.0492 -0.0385 -0.0416
  881YOPE   C1B12051   6.229   4.640   7.150 -0.4341 -0.1715  0.0242
  881YOPE   C2B12052   6.112   4.889   7.592  0.2452  0.2394  0.0600
  881YOPE   D3B12053   6.146   4.830   8.076 -0.1064  0.1263 -0.0172
  881YOPE   C4B12054   5.786   4.761   8.316  0.0207  0.0791  0.1686
  882YOPE   NH312055   5.295   4.949   6.012 -0.1323  0.4519  0.3021
  882YOPE   PO412056   5.534   4.569   5.820  0.1523  0.1579  0.0104
  882YOPE   GL112057   5.691   4.674   6.284  0.1948 -0.0814  0.0060
  882YOPE   GL212058   5.771   5.037   6.232 -0.0245 -0.0650  0.1219
  882YOPE   C1A12059   5.480   4.522   6.641 -0.0127  0.2257 -0.1318
  882YOPE   D2A12060   5.245   4.578   7.046 -0.0015  0.3488 -0.0650
  882YOPE   C3A12061   5.432   4.402   7.514  0.0746  0.0284 -0.1392
  882YOPE   C4A12062   5.338   4.300   8.002 -0.0532  0.2233  0.1158
  882YOPE   C1B12063   5.492   5.177   6.600  0.1006 -0.0929 -0.0573
  882YOPE   C2B12064   5.486   5.071   7.085  0.0528  0.1806 -0.0657
  882YOPE   D3B12065   5.195   4.957   7.397 -0.1303 -0.1066 -0.0118
  882YOPE   C4B12066   4.928   4.563   7.511 -0.1092 -0.0933 -0.2493
  883YOPE   NH312067  11.586  16.248   5.949  0.0328 -0.1590 -0.3456
  883YOPE   PO412068  11.670  16.630   5.978 -0.0342 -0.1205  0.1497
  883YOPE   GL112069  11.806  16.865   6.323  0.3005  0.2949 -0.0011
  883YOPE   GL212070  11.814  16.654   6.620  0.0517 -0.1988  0.0751
  883YOPE   C1A12071  11.984  17.314   6.543  0.1655  0.0713 -0.2112
  883YOPE   D2A12072  11.997  17.697   6.866 -0.1324  0.1290  0.1681
  883YOPE   C3A12073  11.849  17.696   7.185  0.0640  0.2146  0.0802
  883YOPE   C4A12074  11.511  17.859   7.377  0.0693 -0.0406  0.1561
  883YOPE   C1B12075  12.218  16.913   6.798 -0.0946  0.1793  0.0457
  883YOPE   C2B12076  12.528  16.978   7.098  0.0313  0.1845 -0.0576
  883YOPE   D3B12077  12.536  16.881   7.521 -0.0141 -0.0215 -0.1354
  883YOPE   C4B12078  12.636  16.767   7.897 -0.0125 -0.0235  0.1394
  884YOPE   NH312079   6.207  16.096   5.627 -0.2592  0.2735 -0.0815
  884YOPE   PO412080   5.835  16.346   5.741  0.1547 -0.0410  0.0342
  884YOPE   GL112081   5.753  16.207   6.092 -0.0529  0.0017 -0.1300
  884YOPE   GL212082   5.804  15.895   6.103  0.1643 -0.0800 -0.0881
  884YOPE   C1A12083   5.505  16.239   6.384  0.1599 -0.2837  0.1657
  884YOPE   D2A12084   5.094  16.227   6.428 -0.2214 -0.1603 -0.1478
  884YOPE   C3A12085   5.064  16.281   6.901  0.0638 -0.0990 -0.2588
  884YOPE   C4A12086   4.982  16.031   7.217 -0.0439 -0.0218 -0.3159
  884YOPE   C1B12087   6.128  15.673   6.330 -0.0608 -0.1035 -0.1546
  884YOPE   C2B12088   6.319  15.359   6.584  0.3653 -0.1056  0.1318
  884YOPE   D3B12089   6.598  15.370   6.949  0.0765 -0.0555  0.0293
  884YOPE   C4B12090   6.881  15.616   7.109  0.1627  0.0621  0.2671
  885YOPE   NH312091  16.272   7.438   5.672  0.0837 -0.0931 -0.0099
  885YOPE   PO412092  16.254   6.971   5.778  0.1964 -0.3980  0.1674
  885YOPE   GL112093  16.324   6.746   6.130  0.1115  0.0657  0.0682
  885YOPE   GL212094  16.116   6.552   6.238  0.0840  0.0404  0.4292
  885YOPE   C1A12095  16.604   6.828   6.463  0.0689 -0.1165 -0.1762
  885YOPE   D2A12096  16.538   6.914   6.869 -0.0594 -0.1659 -0.4661
  885YOPE   C3A12097  16.771   7.172   7.088  0.0750  0.0723 -0.1021
  885YOPE   C4A12098  16.724   7.394   7.339 -0.2271 -0.0213 -0.1191
  885YOPE   C1B12099  16.148   6.713   6.621 -0.0143  0.0352 -0.1826
  885YOPE   C2B12100  16.233   6.512   6.945 -0.0455  0.1806 -0.0431
  885YOPE   D3B12101  16.295   6.571   7.322 -0.2128 -0.0898  0.0860
  885YOPE   C4B12102  16.340   6.349   7.703 -0.1392 -0.0922 -0.0529
  886YOPE   NH312103  12.014  10.357   6.085  0.0860  0.0253 -0.0552
  886YOPE   PO412104  12.371  10.596   5.879 -0.4833 -0.2712 -0.1909
  886YOPE   GL112105  12.657  10.690   6.203  0.0816 -0.1102 -0.1583
  886YOPE   GL212106  12.400  10.603   6.404  0.0779 -0.1348 -0.1870
  886YOPE   C1A12107  12.956  10.689   6.457  0.1967  0.0979 -0.1901
  886YOPE   D2A12108  13.220  10.359   6.765 -0.0366  0.0208 -0.0766
  886YOPE   C3A12109  13.258  10.426   7.191  0.1632 -0.2422  0.2982
  886YOPE   C4A12110  13.363  10.229   7.552 -0.2717  0.0901  0.3327
  886YOPE   C1B12111  12.284  10.455   6.754 -0.1935 -0.3140 -0.1725
  886YOPE   C2B12112  12.042  10.640   6.938  0.0014  0.2411 -0.5202
  886YOPE   D3B12113  12.131  10.856   7.275  0.2509 -0.0869  0.3600
  886YOPE   C4B12114  12.209  10.865   7.641 -0.0591  0.2088 -0.2289
  887YOPE   NH312115   4.822  10.897   5.254 -0.0484 -0.2189 -0.0708
  887YOPE   PO412116   4.762  11.253   5.557 -0.0295  0.2163  0.1294
  887YOPE   GL112117   4.610  11.406   5.927  0.0983 -0.0531  0.1896
  887YOPE   GL212118   4.311  11.620   6.058 -0.2213 -0.0698 -0.1495
  887YOPE   C1A12119   4.758  11.429   6.384 -0.0065  0.0485 -0.1134
  887YOPE   D2A12120   4.841  11.524   6.779 -0.1790 -0.0920  0.2104
  887YOPE   C3A12121   4.855  11.800   7.073  0.1157  0.1230  0.1910
  887YOPE   C4A12122   4.954  12.078   7.387  0.0062  0.1228  0.0047
  887YOPE   C1B12123   4.399  11.778   6.494  0.0446  0.1705 -0.1847
  887YOPE   C2B12124   4.289  11.643   6.888  0.2604  0.0144 -0.0131
  887YOPE   D3B12125   4.186  11.516   7.310  0.2385 -0.0449 -0.0579
  887YOPE   C4B12126   4.276  11.071   7.390 -0.2015 -0.1862  0.0255
  888YOPE   NH312127   2.429  11.088   5.491  0.1110 -0.0942  0.0459
  888YOPE   PO412128   1.962  11.143   5.404 -0.2099 -0.1565 -0.2752
  888YOPE   GL112129   2.033  11.277   5.830 -0.3789  0.0005 -0.1171
  888YOPE   GL212130   1.799  11.298   6.121 -0.2110  0.0148  0.1310
  888YOPE   C1A12131   2.275  11.579   6.101 -0.0827 -0.2098 -0.1136
  888YOPE   D2A12132   2.582  11.522   6.399 -0.1165  0.0951 -0.3478
  888YOPE   C3A12133   2.873  11.727   6.328  0.2080  0.0274  0.1952
  888YOPE   C4A12134   3.101  12.018   6.393  0.2917 -0.0004 -0.4191
  888YOPE   C1B12135   1.698  11.462   6.537 -0.0406 -0.2406 -0.1974
  888YOPE   C2B12136   1.702  11.616   7.016  0.2638 -0.2383  0.0965
  888YOPE   D3B12137   1.707  11.754   7.340  0.2426  0.1670 -0.0702
  888YOPE   C4B12138   1.655  12.082   7.741 -0.0970  0.2949  0.1415
  889YOPE   NH312139   0.027  17.343   5.659  0.0885 -0.1176  0.0886
  889YOPE   PO412140  -0.335  17.523   5.764  0.1334  0.3681  0.0706
  889YOPE   GL112141  -0.233  17.312   6.144 -0.0311 -0.0230 -0.0265
  889YOPE   GL212142  -0.017  17.048   6.268  0.0455 -0.0948 -0.1857
  889YOPE   C1A12143   0.067  17.543   6.441 -0.3931 -0.2969  0.0830
  889YOPE   D2A12144   0.259  17.890   6.575 -0.2343  0.0657  0.0793
  889YOPE   C3A12145   0.193  18.094   6.988 -0.0485 -0.1124  0.2908
  889YOPE   C4A12146   0.063  18.174   7.434 -0.3466  0.0349  0.0547
  889YOPE   C1B12147  -0.281  17.193   6.625  0.3041  0.0537 -0.0226
  889YOPE   C2B12148  -0.280  17.285   7.110  0.2236 -0.0420  0.0596
  889YOPE   D3B12149  -0.054  17.161   7.479  0.0188  0.1579 -0.4168
  889YOPE   C4B12150   0.130  17.443   7.772  0.0878 -0.1075  0.1513
  890YOPE   NH312151   2.875  10.081   6.042  0.0231  0.2788 -0.3928
  890YOPE   PO412152   3.204  10.312   6.007  0.3193  0.0909 -0.2926
  890YOPE   GL112153   3.079  10.541   6.271  0.1160  0.1722  0.0679
  890YOPE   GL212154   3.189  10.824   6.170  0.1930 -0.2823 -0.0414
  890YOPE   C1A12155   2.866  10.471   6.649  0.1503 -0.0254  0.1738
  890YOPE   D2A12156   2.440  10.626   6.562  0.0393 -0.0518 -0.4017
  890YOPE   C3A12157   2.278  10.869   6.887 -0.0490  0.0390  0.0730
  890YOPE   C4A12158   2.260  10.904   7.313  0.2962  0.1496 -0.1258
  890YOPE   C1B12159   3.246  10.771   6.718  0.1011 -0.4662  0.0591
  890YOPE   C2B12160   3.266  10.905   7.173  0.1093 -0.2351 -0.1654
  890YOPE   D3B12161   3.400  10.827   7.557 -0.0074  0.4035  0.1407
  890YOPE   C4B12162   3.404  10.562   7.838  0.1682  0.0360  0.3257
  891YOPE   NH312163  14.761   7.567   6.018 -0.0845 -0.1993 -0.0985
  891YOPE   PO412164  15.020   7.339   5.604 -0.1318 -0.1765  0.0059
  891YOPE   GL112165  15.254   7.446   6.093  0.3499  0.3545  0.0924
  891YOPE   GL212166  15.477   7.590   6.120  0.2369 -0.4012 -0.0576
  891YOPE   C1A12167  15.179   7.246   6.500  0.3236 -0.1707 -0.1446
  891YOPE   D2A12168  15.391   6.981   6.865  0.0022 -0.2898 -0.0311
  891YOPE   C3A12169  15.331   7.107   7.174  0.1887 -0.0106 -0.2266
  891YOPE   C4A12170  15.127   6.902   7.565  0.1583  0.0853  0.0423
  891YOPE   C1B12171  15.610   7.517   6.543  0.0345  0.0797 -0.0448
  891YOPE   C2B12172  15.664   7.606   6.894  0.1870  0.1114 -0.2600
  891YOPE   D3B12173  15.970   7.571   7.154 -0.2987  0.1549 -0.2240
  891YOPE   C4B12174  16.287   7.510   7.456 -0.2004 -0.0122  0.1240
  892YOPE   NH312175  18.274   9.988   5.830  0.0050 -0.0626  0.0369
  892YOPE   PO412176  18.574  10.345   5.895  0.0354 -0.0916 -0.2183
  892YOPE   GL112177  18.657  10.517   6.277  0.0414  0.3704  0.1013
  892YOPE   GL212178  18.535  10.814   6.224 -0.1924 -0.0567 -0.1037
  892YOPE   C1A12179  18.566  10.398   6.701  0.0272  0.1085 -0.0619
  892YOPE   D2A12180  18.691  10.671   6.986 -0.1554  0.1632  0.1552
  892YOPE   C3A12181  18.242  10.878   7.016  0.1849 -0.1630 -0.1433
  892YOPE   C4A12182  18.017  11.133   6.669  0.0637  0.2067  0.1104
  892YOPE   C1B12183  18.528  10.949   6.587 -0.1204  0.0466  0.3108
  892YOPE   C2B12184  18.718  11.209   6.875 -0.0583  0.2239  0.1018
  892YOPE   D3B12185  19.053  11.340   7.175 -0.2869 -0.0269  0.0127
  892YOPE   C4B12186  19.141  11.733   7.429  0.3022 -0.0204  0.0100
  893YOPE   NH312187   2.477  15.486   5.834 -0.1920 -0.0407  0.3619
  893YOPE   PO412188   2.713  15.208   5.631  0.1097 -0.2053  0.0537
  893YOPE   GL112189   2.729  15.103   6.052  0.0314 -0.0159 -0.2501
  893YOPE   GL212190   2.601  15.354   6.308  0.0427  0.0969 -0.1792
  893YOPE   C1A12191   3.012  14.900   6.247 -0.0280 -0.0380  0.2137
  893YOPE   D2A12192   3.385  14.695   6.254  0.0770  0.2569  0.1804
  893YOPE   C3A12193   3.411  14.586   6.679  0.0778  0.0172 -0.0791
  893YOPE   C4A12194   3.611  14.811   7.019 -0.5426 -0.1695 -0.1881
  893YOPE   C1B12195   2.584  15.030   6.551  0.0024  0.0286  0.0378
  893YOPE   C2B12196   2.325  14.780   6.836 -0.2652  0.0462 -0.1652
  893YOPE   D3B12197   2.089  14.750   7.084 -0.0335 -0.1755  0.2430
  893YOPE   C4B12198   1.988  14.806   7.532 -0.1553  0.0686  0.2375
  894YOPE   NH312199   5.591  15.873   5.646  0.2172  0.0711 -0.0148
  894YOPE   PO412200   5.616  15.499   5.352 -0.1036  0.1887 -0.2241
  894YOPE   GL112201   5.641  15.332   5.736 -0.0334  0.0372  0.0720
  894YOPE   GL212202   5.649  15.020   5.760  0.2843 -0.2307 -0.1769
  894YOPE   C1A12203   5.640  15.425   6.159  0.0526  0.0030  0.2351
  894YOPE   D2A12204   5.731  15.452   6.517  0.2784  0.2410 -0.1149
  894YOPE   C3A12205   5.794  15.465   6.947 -0.1529  0.0141 -0.0126
  894YOPE   C4A12206   6.202  15.367   7.186  0.0379  0.3648  0.1455
  894YOPE   C1B12207   5.542  14.846   6.104  0.2534 -0.0780 -0.1165
  894YOPE   C2B12208   5.668  14.656   6.492  0.0411 -0.1556  0.2350
  894YOPE   D3B12209   5.820  14.381   6.800 -0.0521 -0.0885 -0.2667
  894YOPE   C4B12210   5.690  14.458   7.302  0.1248 -0.2048 -0.0350
  895YOPE   NH312211   1.436   5.819   5.965 -0.3353  0.4959 -0.0016
  895YOPE   PO412212   1.723   5.955   6.214  0.1879 -0.1333  0.1969
  895YOPE   GL112213   1.631   6.087   6.630  0.0266  0.3072 -0.1205
  895YOPE   GL212214   1.772   6.391   6.799 -0.1647 -0.2492  0.1378
  895YOPE   C1A12215   1.549   6.091   7.104  0.0685  0.0025 -0.0291
  895YOPE   D2A12216   1.407   6.111   7.403 -0.2383  0.0964  0.2730
  895YOPE   C3A12217   1.581   5.943   7.693 -0.0639  0.2673 -0.2215
  895YOPE   C4A12218   1.781   5.833   8.048  0.0991  0.0285  0.0301
  895YOPE   C1B12219   1.913   6.393   7.126 -0.3847 -0.1220  0.0928
  895YOPE   C2B12220   1.817   6.350   7.555 -0.2974  0.0946 -0.2298
  895YOPE   D3B12221   1.783   6.431   7.988  0.1066  0.0519  0.1699
  895YOPE   C4B12222   1.938   6.694   8.252  0.0606 -0.3755 -0.4268
  896YOPE   NH312223   8.853   3.526   6.260 -0.2491  0.0870  0.1655
  896YOPE   PO412224   8.693   3.131   6.105 -0.0023 -0.0334 -0.0769
  896YOPE   GL112225   8.316   2.930   6.337  0.0943 -0.3174 -0.2145
  896YOPE   GL212226   8.343   2.768   6.651  0.1381 -0.1689 -0.1176
  896YOPE   C1A12227   7.869   2.824   6.495 -0.0491 -0.0367 -0.0164
  896YOPE   D2A12228   7.416   2.946   6.494  0.3461 -0.0102  0.0305
  896YOPE   C3A12229   7.107   3.073   6.779  0.2635  0.1247  0.2405
  896YOPE   C4A12230   6.641   3.240   6.930 -0.5279  0.1582  0.0934
  896YOPE   C1B12231   7.988   2.766   6.969 -0.3020 -0.2612  0.0499
  896YOPE   C2B12232   7.780   2.647   7.391 -0.2661  0.0606  0.1034
  896YOPE   D3B12233   7.430   2.565   7.594  0.3956  0.2185  0.0075
  896YOPE   C4B12234   7.394   2.648   8.065  0.2419  0.2232  0.0065
  897YOPE   NH312235  16.519  15.544   6.002 -0.2250 -0.3113  0.1191
  897YOPE   PO412236  16.614  15.906   6.262 -0.2312  0.2565 -0.0419
  897YOPE   GL112237  16.781  15.553   6.391  0.1655 -0.0601 -0.0321
  897YOPE   GL212238  17.180  15.513   6.478 -0.0913  0.0184  0.4809
  897YOPE   C1A12239  16.814  15.490   6.850  0.1926 -0.1470  0.0534
  897YOPE   D2A12240  16.575  15.689   7.127  0.0409  0.0595 -0.0479
  897YOPE   C3A12241  16.451  15.823   7.531  0.0950 -0.0098 -0.0767
  897YOPE   C4A12242  16.696  15.817   8.033 -0.0230 -0.0524  0.0014
  897YOPE   C1B12243  17.404  15.522   6.828 -0.0420  0.3394 -0.3635
  897YOPE   C2B12244  17.453  15.433   7.204 -0.1035 -0.1615 -0.0593
  897YOPE   D3B12245  17.185  15.285   7.463 -0.1454  0.1589 -0.2729
  897YOPE   C4B12246  16.885  15.289   7.293 -0.0631 -0.0571 -0.0265
  898YOPE   NH312247  13.452   1.754   5.874 -0.0400 -0.0717  0.1226
  898YOPE   PO412248  13.372   2.113   6.083 -0.2193  0.4364  0.0156
  898YOPE   GL112249  13.270   2.351   6.429 -0.1454  0.1070 -0.1831
  898YOPE   GL212250  13.532   2.560   6.490  0.0786  0.2612  0.0301
  898YOPE   C1A12251  13.221   2.468   6.829 -0.0643 -0.1623  0.0912
  898YOPE   D2A12252  13.483   2.658   7.051  0.0297  0.1464 -0.0220
  898YOPE   C3A12253  13.760   2.678   7.182  0.3017  0.4711  0.1788
  898YOPE   C4A12254  13.755   2.740   7.561  0.4433 -0.1727 -0.1222
  898YOPE   C1B12255  13.817   2.424   6.707  0.3062  0.2484  0.0267
  898YOPE   C2B12256  13.768   2.123   6.991 -0.0461  0.1181  0.1848
  898YOPE   D3B12257  13.773   1.841   7.178  0.0197  0.2313  0.0593
  898YOPE   C4B12258  13.730   1.742   7.661 -0.3210 -0.1356 -0.1445
  899YOPE   NH312259  13.090  13.636   5.744 -0.1555 -0.2552  0.0187
  899YOPE   PO412260  13.545  13.666   5.745 -0.1245 -0.0207  0.1438
  899YOPE   GL112261  13.630  13.625   6.117 -0.0081  0.2747  0.1152
  899YOPE   GL212262  13.762  13.878   6.228  0.0950 -0.0168 -0.0960
  899YOPE   C1A12263  13.600  13.485   6.489  0.0136  0.1972 -0.2047
  899YOPE   D2A12264  13.696  13.655   6.878 -0.1250  0.1714 -0.1907
  899YOPE   C3A12265  13.627  13.450   7.178 -0.0936 -0.3002 -0.2888
  899YOPE   C4A12266  13.493  13.119   7.409  0.1900 -0.0764  0.0042
  899YOPE   C1B12267  13.482  14.057   6.538 -0.2413  0.1694  0.0270
  899YOPE   C2B12268  13.413  14.042   6.965 -0.0338  0.1269 -0.2429
  899YOPE   D3B12269  13.412  14.327   7.238 -0.1396  0.2993 -0.3457
  899YOPE   C4B12270  13.148  14.419   7.650  0.4134 -0.2228  0.3063
  900YOPE   NH312271   3.149  15.144   5.331  0.2751 -0.0924 -0.3222
  900YOPE   PO412272   3.495  15.002   5.374 -0.1400 -0.1223  0.0251
  900YOPE   GL112273   3.431  14.812   5.767 -0.1543  0.1856  0.1960
  900YOPE   GL212274   3.274  15.033   5.849  0.0211  0.1714 -0.1123
  900YOPE   C1A12275   3.850  14.756   6.029  0.4231 -0.1159 -0.0420
  900YOPE   D2A12276   3.896  15.031   6.364  0.2893 -0.0735  0.1276
  900YOPE   C3A12277   4.019  14.911   6.742  0.2874 -0.1413  0.0677
  900YOPE   C4A12278   4.184  14.770   7.185  0.2464 -0.1776  0.0003
  900YOPE   C1B12279   3.452  15.231   6.199 -0.4292 -0.2602 -0.2591
  900YOPE   C2B12280   3.362  15.060   6.594  0.3589  0.0102  0.0755
  900YOPE   D3B12281   3.189  14.951   6.877  0.2781 -0.0673 -0.2633
  900YOPE   C4B12282   3.128  14.707   7.194 -0.0758 -0.2911  0.1060
  901YOPE   NH312283   6.224   1.262   5.601  0.2034 -0.1680 -0.0741
  901YOPE   PO412284   6.505   1.018   5.817 -0.0674  0.2562 -0.4213
  901YOPE   GL112285   6.139   1.036   6.106  0.0313  0.1688  0.3382
  901YOPE   GL212286   6.124   1.283   6.153 -0.1915  0.1341  0.0496
  901YOPE   C1A12287   5.804   0.925   6.368  0.1251 -0.3060 -0.0541
  901YOPE   D2A12288   5.560   0.721   6.635 -0.0240 -0.4588 -0.0431
  901YOPE   C3A12289   5.251   0.657   6.966  0.0006  0.0057  0.0922
  901YOPE   C4A12290   5.137   0.172   7.146 -0.2345 -0.3535 -0.1979
  901YOPE   C1B12291   6.446   1.404   6.512  0.0731 -0.0237 -0.1475
  901YOPE   C2B12292   6.512   1.585   6.940 -0.0498  0.0974 -0.2453
  901YOPE   D3B12293   6.388   1.538   7.359 -0.2683 -0.5338  0.1057
  901YOPE   C4B12294   6.200   1.290   7.632 -0.1019 -0.1575 -0.2346
  902YOPE   NH312295  10.966  11.555   5.626  0.0839  0.0439 -0.0664
  902YOPE   PO412296  10.698  11.939   5.372 -0.1194 -0.0592 -0.1816
  902YOPE   GL112297  10.691  11.933   5.713 -0.2586 -0.0830  0.0020
  902YOPE   GL212298  11.081  11.927   5.941  0.1772 -0.0379 -0.0432
  902YOPE   C1A12299  10.563  12.201   6.090  0.0552  0.1456  0.0702
  902YOPE   D2A12300  10.541  12.329   6.429 -0.2671  0.0330  0.0075
  902YOPE   C3A12301  10.669  12.585   6.836 -0.0063  0.1260  0.2023
  902YOPE   C4A12302  10.497  12.530   7.224 -0.2633 -0.3077  0.1122
  902YOPE   C1B12303  11.096  11.956   6.382  0.0491 -0.0546  0.0653
  902YOPE   C2B12304  10.853  11.907   6.738  0.0419 -0.0006  0.1569
  902YOPE   D3B12305  10.505  11.979   6.904 -0.1199 -0.2189 -0.3353
  902YOPE   C4B12306  10.184  12.368   6.879 -0.0492 -0.3447  0.3752
  903YOPE   NH312307  11.651   0.116   5.879 -0.1331  0.0782  0.0372
  903YOPE   PO412308  11.626   0.451   5.752 -0.0237 -0.0885 -0.0958
  903YOPE   GL112309  11.348   0.649   6.030 -0.0923 -0.1157  0.1971
  903YOPE   GL212310  11.565   0.618   6.281 -0.0931 -0.2248  0.0761
  903YOPE   C1A12311  11.155   0.851   6.386  0.1472  0.1728  0.3499
  903YOPE   D2A12312  11.045   1.094   6.797 -0.0403 -0.3020 -0.1361
  903YOPE   C3A12313  10.895   1.474   6.759 -0.0818  0.0246 -0.0414
  903YOPE   C4A12314  10.563   1.701   6.743  0.3607  0.2459 -0.0601
  903YOPE   C1B12315  11.638   1.047   6.468 -0.0940 -0.1150 -0.1404
  903YOPE   C2B12316  11.553   1.253   6.782 -0.0660  0.0082 -0.4043
  903YOPE   D3B12317  11.494   1.585   7.062  0.3312  0.0491 -0.0368
  903YOPE   C4B12318  11.332   1.689   7.384  0.0823  0.1877 -0.2889
  904YOPE   NH312319   7.625  13.189   5.436  0.1274 -0.1003  0.2268
  904YOPE   PO412320   7.921  13.059   5.154 -0.1737  0.2937  0.0218
  904YOPE   GL112321   8.045  13.054   5.662 -0.1567  0.2692  0.0327
  904YOPE   GL212322   7.910  13.301   5.922 -0.1395  0.1256 -0.1177
  904YOPE   C1A12323   8.376  13.075   6.002  0.1238  0.1359  0.1647
  904YOPE   D2A12324   8.624  12.738   6.278 -0.0189  0.1122 -0.0616
  904YOPE   C3A12325   8.605  12.747   6.707  0.2301  0.1026 -0.1542
  904YOPE   C4A12326   8.531  12.989   7.177 -0.3977  0.2077 -0.0281
  904YOPE   C1B12327   7.839  13.406   6.379 -0.2430  0.0728  0.3624
  904YOPE   C2B12328   7.716  13.424   6.913  0.0566 -0.1192  0.1052
  904YOPE   D3B12329   7.872  13.557   7.334 -0.0512 -0.1066  0.1638
  904YOPE   C4B12330   7.684  14.074   7.533 -0.0602  0.0606 -0.1869
  905YOPE   NH312331   1.817   7.648   6.260  0.1862 -0.2012 -0.1490
  905YOPE   PO412332   2.095   7.428   6.222  0.2998 -0.1367 -0.2748
  905YOPE   GL112333   2.192   7.475   6.592 -0.0208 -0.1426  0.1036
  905YOPE   GL212334   2.256   7.831   6.544  0.1637 -0.1362  0.0359
  905YOPE   C1A12335   2.304   7.338   6.931  0.1589  0.1414 -0.0704
  905YOPE   D2A12336   2.193   7.300   7.296 -0.3220  0.3713  0.0142
  905YOPE   C3A12337   2.137   7.531   7.660 -0.0582  0.1280  0.3779
  905YOPE   C4A12338   1.872   7.729   8.076  0.0364  0.0978 -0.2313
  905YOPE   C1B12339   2.396   7.805   6.910 -0.1260 -0.0552 -0.0531
  905YOPE   C2B12340   2.452   7.803   7.287  0.3241 -0.2946 -0.1148
  905YOPE   D3B12341   2.436   8.007   7.721  0.0526  0.2226 -0.0159
  905YOPE   C4B12342   2.480   8.325   8.084 -0.0494 -0.0985  0.1254
  906YOPE   NH312343   1.044   5.058   5.863  0.4518  0.1395  0.1709
  906YOPE   PO412344   0.605   4.859   5.748  0.1238 -0.1813 -0.0412
  906YOPE   GL112345   0.657   4.759   6.123 -0.0944 -0.3602  0.0519
  906YOPE   GL212346   0.401   4.841   6.366 -0.1009 -0.1732 -0.3090
  906YOPE   C1A12347   0.781   4.417   6.427 -0.4234  0.1396  0.0743
  906YOPE   D2A12348   0.546   4.520   6.802  0.2947  0.4963 -0.3205
  906YOPE   C3A12349   0.572   4.806   7.074 -0.0221 -0.1155 -0.1712
  906YOPE   C4A12350   0.597   4.816   7.475  0.1657  0.1224  0.1798
  906YOPE   C1B12351   0.604   5.133   6.698  0.2635  0.0404  0.3062
  906YOPE   C2B12352   0.691   5.311   7.135 -0.3299  0.1461 -0.0454
  906YOPE   D3B12353   0.476   5.355   7.527 -0.1103  0.0319  0.0811
  906YOPE   C4B12354   0.135   5.595   7.742  0.3166 -0.0883 -0.3067
  907YOPE   NH312355   7.799  11.253   5.888 -0.0157 -0.1756  0.2168
  907YOPE   PO412356   8.238  11.499   5.868 -0.0554 -0.0941  0.0088
  907YOPE   GL112357   8.103  11.545   6.350  0.1840  0.1174  0.1190
  907YOPE   GL212358   7.684  11.471   6.389  0.0758 -0.1276  0.0241
  907YOPE   C1A12359   8.219  11.264   6.778  0.0714 -0.1586 -0.3406
  907YOPE   D2A12360   8.062  11.155   7.226  0.0079  0.0425 -0.0232
  907YOPE   C3A12361   8.371  10.774   7.472  0.1750 -0.4775 -0.0228
  907YOPE   C4A12362   8.258  10.554   7.786  0.1614  0.0794  0.1096
  907YOPE   C1B12363   7.654  11.489   6.792  0.4490  0.0863 -0.2165
  907YOPE   C2B12364   7.555  11.461   7.168  0.2552 -0.1573  0.3551
  907YOPE   D3B12365   7.726  11.299   7.503  0.0529 -0.3013 -0.1177
  907YOPE   C4B12366   8.053  11.041   7.708  0.0108  0.2913  0.0149
  908YOPE   NH312367   0.307   6.228   5.375  0.1163 -0.2401 -0.4933
  908YOPE   PO412368   0.116   5.867   5.582  0.0022 -0.0445  0.0859
  908YOPE   GL112369   0.092   6.112   5.903 -0.1667 -0.1242 -0.2254
  908YOPE   GL212370   0.267   5.911   6.172 -0.3113  0.1308 -0.0510
  908YOPE   C1A12371   0.277   6.393   6.228 -0.4236  0.1512 -0.0228
  908YOPE   D2A12372   0.129   6.499   6.614  0.1272 -0.0336  0.2290
  908YOPE   C3A12373  -0.197   6.221   6.710 -0.0915 -0.0166 -0.0927
  908YOPE   C4A12374  -0.278   5.715   6.793  0.0501 -0.0125 -0.0972
  908YOPE   C1B12375   0.251   6.024   6.553  0.1755  0.1399 -0.2996
  908YOPE   C2B12376   0.054   5.958   7.024 -0.1781 -0.2630 -0.0334
  908YOPE   D3B12377   0.086   6.174   7.401 -0.1098  0.0051  0.2324
  908YOPE   C4B12378  -0.201   5.952   7.840 -0.1372 -0.0816  0.1817
  909YOPE   NH312379   5.205  14.761   5.567 -0.0068  0.2765  0.2832
  909YOPE   PO412380   5.121  14.369   5.497  0.3105 -0.1663  0.0396
  909YOPE   GL112381   5.321  14.374   5.909  0.3054 -0.3874  0.1103
  909YOPE   GL212382   5.735  14.430   5.931  0.0382 -0.2205  0.0043
  909YOPE   C1A12383   5.144  14.578   6.270  0.0904 -0.1194  0.0527
  909YOPE   D2A12384   5.057  14.696   6.748 -0.3608 -0.0906 -0.2024
  909YOPE   C3A12385   5.167  14.518   7.014 -0.0170 -0.1106 -0.1833
  909YOPE   C4A12386   5.321  14.025   6.950 -0.0293  0.2572 -0.0462
  909YOPE   C1B12387   6.027  14.325   6.273  0.0421 -0.0337 -0.2310
  909YOPE   C2B12388   6.319  14.498   6.560  0.1284 -0.1629  0.0292
  909YOPE   D3B12389   6.307  14.251   6.949  0.4054 -0.4794 -0.0945
  909YOPE   C4B12390   6.100  13.929   7.213 -0.2536 -0.1913  0.1422
  910YOPE   NH312391   9.176  10.916   5.733 -0.0357  0.0215  0.3459
  910YOPE   PO412392   9.290  11.324   5.692 -0.1188 -0.1409 -0.0788
  910YOPE   GL112393   9.353  11.564   6.028 -0.1374  0.0695 -0.0198
  910YOPE   GL212394   9.097  11.715   6.006  0.1865 -0.1603  0.0367
  910YOPE   C1A12395   9.437  11.754   6.411  0.2332 -0.0251 -0.0090
  910YOPE   D2A12396   9.348  11.985   6.886 -0.1247 -0.0571 -0.4373
  910YOPE   C3A12397   9.536  12.319   7.164  0.1838 -0.2325  0.0511
  910YOPE   C4A12398   9.928  12.361   7.312  0.1853  0.3439 -0.1336
  910YOPE   C1B12399   8.943  11.817   6.397 -0.0083  0.1939  0.0036
  910YOPE   C2B12400   8.894  11.840   6.851  0.2449 -0.0914 -0.1221
  910YOPE   D3B12401   8.975  11.548   7.137  0.2200  0.0700 -0.1566
  910YOPE   C4B12402   8.965  11.479   7.545 -0.0581 -0.1477 -0.0506
  911YOPE   NH312403   4.553  15.811   5.399 -0.0240  0.1035 -0.0763
  911YOPE   PO412404   4.038  15.845   5.579 -0.0227 -0.0767 -0.0649
  911YOPE   GL112405   3.781  15.779   5.936  0.2177  0.2964 -0.2524
  911YOPE   GL212406   3.518  15.654   5.879 -0.0710 -0.3105  0.0999
  911YOPE   C1A12407   3.910  15.641   6.398 -0.0877 -0.0793  0.0284
  911YOPE   D2A12408   3.837  15.661   6.720  0.1725  0.3050 -0.0638
  911YOPE   C3A12409   3.824  15.260   6.960  0.1303 -0.2759 -0.4090
  911YOPE   C4A12410   4.019  15.252   7.372 -0.2491 -0.1150 -0.1980
  911YOPE   C1B12411   3.391  15.722   6.434 -0.0366 -0.0966  0.1846
  911YOPE   C2B12412   3.414  15.494   6.836 -0.0092 -0.3962 -0.3567
  911YOPE   D3B12413   3.478  15.517   7.301  0.1843  0.1899 -0.2101
  911YOPE   C4B12414   3.521  15.774   7.773 -0.0211 -0.0419 -0.1124
  912YOPE   NH312415   6.768   2.145   5.813  0.0499  0.1835 -0.0387
  912YOPE   PO412416   7.183   2.323   6.051  0.0608 -0.1281  0.1487
  912YOPE   GL112417   7.303   2.274   6.421  0.0993  0.2320 -0.2798
  912YOPE   GL212418   7.526   2.456   6.522 -0.0925  0.4105  0.0757
  912YOPE   C1A12419   7.087   2.390   6.923 -0.0935 -0.1558  0.3582
  912YOPE   D2A12420   6.771   2.432   7.253 -0.0697 -0.0483  0.0286
  912YOPE   C3A12421   6.713   2.525   7.670  0.1486  0.0874 -0.4598
  912YOPE   C4A12422   6.470   2.867   7.869  0.1703 -0.0949 -0.3821
  912YOPE   C1B12423   7.552   2.560   6.902 -0.1215 -0.1121 -0.2379
  912YOPE   C2B12424   7.240   2.775   7.186 -0.1151  0.2429 -0.2495
  912YOPE   D3B12425   6.892   2.922   7.277 -0.2735 -0.2535 -0.0596
  912YOPE   C4B12426   6.706   3.184   7.547 -0.3580 -0.2057 -0.0378
  913YOPE   NH312427   1.399   8.385   6.506 -0.1993 -0.1369 -0.2216
  913YOPE   PO412428   1.379   7.929   6.307  0.0256  0.1109  0.0216
  913YOPE   GL112429   1.350   7.871   6.653 -0.0698 -0.0869 -0.1737
  913YOPE   GL212430   1.370   7.502   6.630 -0.1839 -0.1033  0.0747
  913YOPE   C1A12431   1.326   7.822   7.066 -0.0821 -0.0530 -0.0718
  913YOPE   D2A12432   1.591   7.680   7.483  0.1379  0.0883  0.0034
  913YOPE   C3A12433   1.704   7.188   7.711  0.2495 -0.0490 -0.0477
  913YOPE   C4A12434   1.510   6.897   8.091 -0.2114 -0.0566  0.0343
  913YOPE   C1B12435   1.041   7.378   7.012  0.0957  0.0978  0.0201
  913YOPE   C2B12436   0.956   7.556   7.381 -0.0101  0.0044 -0.7375
  913YOPE   D3B12437   1.124   7.689   7.690  0.0933 -0.1744 -0.1037
  913YOPE   C4B12438   1.385   7.464   7.992  0.2032  0.0681 -0.0154
  914YOPE   NH312439   8.013  14.953   5.285  0.0942  0.1183  0.1727
  914YOPE   PO412440   8.358  14.849   5.442  0.0245 -0.1759 -0.0831
  914YOPE   GL112441   8.236  14.851   5.825 -0.0046  0.1556 -0.1473
  914YOPE   GL212442   8.603  14.766   5.930 -0.1094  0.0975  0.0937
  914YOPE   C1A12443   8.001  14.906   6.206  0.1773 -0.3103 -0.2197
  914YOPE   D2A12444   7.739  15.091   6.631 -0.0839 -0.0171 -0.1776
  914YOPE   C3A12445   7.349  15.133   6.514  0.0823  0.0053  0.0012
  914YOPE   C4A12446   7.030  14.953   6.238 -0.0804 -0.0458  0.1370
  914YOPE   C1B12447   8.408  14.633   6.234  0.4188  0.2174  0.0521
  914YOPE   C2B12448   8.055  14.452   6.467  0.2614 -0.2084  0.2513
  914YOPE   D3B12449   7.985  14.279   6.845  0.1571 -0.0818  0.0261
  914YOPE   C4B12450   7.730  13.972   7.096 -0.0798  0.1208 -0.1761
  915YOPE   NH312451  17.715   7.896   5.338  0.0079  0.1638  0.0200
  915YOPE   PO412452  17.976   7.933   5.629  0.4479 -0.5463  0.2569
  915YOPE   GL112453  17.805   7.996   6.008  0.1054 -0.1642  0.1136
  915YOPE   GL212454  18.021   8.034   6.363  0.0708  0.0956 -0.0251
  915YOPE   C1A12455  17.583   7.744   6.257 -0.0918 -0.0281 -0.0670
  915YOPE   D2A12456  17.448   7.397   6.492  0.0324  0.2291  0.0300
  915YOPE   C3A12457  17.291   7.303   6.884  0.0079  0.0558  0.1079
  915YOPE   C4A12458  17.320   7.156   7.237 -0.0319  0.1477 -0.2046
  915YOPE   C1B12459  18.050   7.788   6.763 -0.1403 -0.0632 -0.1758
  915YOPE   C2B12460  17.857   7.755   7.177 -0.0637 -0.1393  0.0530
  915YOPE   D3B12461  17.938   7.754   7.582  0.4220 -0.1436 -0.3261
  915YOPE   C4B12462  18.022   7.627   7.952 -0.2297  0.1784 -0.1818
  916YOPE   NH312463  17.855   0.429   5.994  0.0787  0.1147 -0.0668
  916YOPE   PO412464  18.228   0.190   5.799 -0.0231  0.0913 -0.1935
  916YOPE   GL112465  18.300   0.082   6.161  0.1483  0.5310 -0.4421
  916YOPE   GL212466  18.566  -0.104   6.194 -0.1365 -0.0712 -0.0220
  916YOPE   C1A12467  18.251   0.039   6.568 -0.4392 -0.5272  0.0747
  916YOPE   D2A12468  18.021   0.055   6.910 -0.0730  0.3426 -0.0623
  916YOPE   C3A12469  18.007   0.390   7.179  0.1314 -0.1722 -0.0872
  916YOPE   C4A12470  17.937   0.733   7.506 -0.0390 -0.0337 -0.1100
  916YOPE   C1B12471  18.868   0.074   6.624 -0.0997  0.1410 -0.0610
  916YOPE   C2B12472  18.952   0.194   6.939 -0.0751 -0.0391  0.3032
  916YOPE   D3B12473  18.900  -0.022   7.328 -0.0866 -0.1389  0.4432
  916YOPE   C4B12474  18.804   0.288   7.734  0.0090 -0.1151 -0.1386
  917YOPE   NH312475   0.115  12.199   5.772  0.1800 -0.0989 -0.1977
  917YOPE   PO412476   0.255  11.732   5.815  0.0564 -0.1574  0.0099
  917YOPE   GL112477  -0.011  11.672   6.122  0.1737 -0.1140 -0.2776
  917YOPE   GL212478  -0.085  11.956   6.241  0.0263  0.0394 -0.1363
  917YOPE   C1A12479   0.080  11.431   6.523  0.0885 -0.0255  0.1101
  917YOPE   D2A12480  -0.053  11.398   6.998  0.1256 -0.0310 -0.0833
  917YOPE   C3A12481   0.225  11.229   7.280 -0.4497 -0.3457  0.0280
  917YOPE   C4A12482   0.415  11.153   7.614  0.0036  0.0334  0.3906
  917YOPE   C1B12483  -0.079  12.086   6.656 -0.0804  0.1523  0.1962
  917YOPE   C2B12484   0.096  12.291   6.998  0.0720  0.1547 -0.2141
  917YOPE   D3B12485   0.468  12.591   7.262  0.1110 -0.3046  0.0848
  917YOPE   C4B12486   0.631  12.980   7.387 -0.0918 -0.2836 -0.2043
  918YOPE   NH312487  10.458   0.256   5.996 -0.2647  0.0080  0.1472
  918YOPE   PO412488  10.810  -0.118   5.997  0.1151  0.0646  0.1868
  918YOPE   GL112489  10.637  -0.049   6.473 -0.1679 -0.0903 -0.0817
  918YOPE   GL212490  10.440  -0.281   6.536 -0.5441 -0.1637  0.3175
  918YOPE   C1A12491  10.691   0.145   6.890 -0.1857  0.0340 -0.0972
  918YOPE   D2A12492  10.827   0.169   7.332 -0.2225  0.1052 -0.1425
  918YOPE   C3A12493  10.759   0.532   7.533 -0.1420 -0.1140  0.2162
  918YOPE   C4A12494  10.698   0.588   7.941 -0.1202  0.0628 -0.1373
  918YOPE   C1B12495  10.509  -0.342   6.910  0.0365  0.0832 -0.1485
  918YOPE   C2B12496  10.620  -0.257   7.310 -0.0582 -0.1777  0.3023
  918YOPE   D3B12497  10.742  -0.391   7.756 -0.1197 -0.3179  0.0418
  918YOPE   C4B12498  10.979  -0.311   8.146 -0.0438  0.1287 -0.0150
  919YOPE   NH312499   3.828   0.304   5.529  0.1677  0.0181 -0.0508
  919YOPE   PO412500   3.639  -0.089   5.601 -0.1680 -0.1108 -0.1348
  919YOPE   GL112501   3.607  -0.214   6.044 -0.0774  0.1938  0.0596
  919YOPE   GL212502   3.288  -0.294   6.110  0.0555 -0.1724 -0.0897
  919YOPE   C1A12503   3.590  -0.323   6.488 -0.1197  0.2254  0.2320
  919YOPE   D2A12504   3.609  -0.216   6.898 -0.2174  0.2432 -0.1891
  919YOPE   C3A12505   3.880  -0.093   7.316  0.2302 -0.1014 -0.3044
  919YOPE   C4A12506   4.012   0.040   7.816  0.1096 -0.0995 -0.0175
  919YOPE   C1B12507   3.121  -0.292   6.508  0.0824 -0.0459  0.0679
  919YOPE   C2B12508   3.158  -0.363   7.031 -0.1738 -0.2221  0.2347
  919YOPE   D3B12509   3.234  -0.583   7.352 -0.0040 -0.2534  0.0564
  919YOPE   C4B12510   3.080  -0.956   7.536  0.1684 -0.1989 -0.0161
  920YOPE   NH312511   9.953   9.231   5.945  0.3056  0.3541 -0.1872
  920YOPE   PO412512  10.376   9.431   6.024 -0.1364 -0.1593 -0.0536
  920YOPE   GL112513  10.534   9.393   6.478 -0.0900  0.0367 -0.1630
  920YOPE   GL212514  10.277   9.490   6.672  0.2032  0.1180 -0.0302
  920YOPE   C1A12515  10.650   9.216   6.858 -0.1323 -0.2072  0.1516
  920YOPE   D2A12516  10.945   9.411   7.186  0.2769 -0.2641  0.1080
  920YOPE   C3A12517  11.063   9.126   7.461  0.0080  0.0566  0.3486
  920YOPE   C4A12518  10.994   8.738   7.686 -0.1101  0.1957 -0.2347
  920YOPE   C1B12519  10.292   9.563   7.102 -0.0337 -0.0614  0.1070
  920YOPE   C2B12520  10.444   9.465   7.455 -0.1576  0.3545 -0.0238
  920YOPE   D3B12521  10.603   9.109   7.716  0.1494  0.5112 -0.2915
  920YOPE   C4B12522  10.570   8.709   7.975 -0.4804 -0.0179  0.2042
  921YOPE   NH312523  10.286   9.955   6.081  0.2532 -0.0290  0.0206
  921YOPE   PO412524  10.646   9.878   6.272 -0.0251 -0.0088 -0.1026
  921YOPE   GL112525  10.685   9.984   6.604 -0.0221 -0.2143  0.0042
  921YOPE   GL212526  10.838   9.754   6.731 -0.2746 -0.0652  0.2921
  921YOPE   C1A12527  10.561  10.032   6.997  0.0496 -0.0046  0.2366
  921YOPE   D2A12528  10.791   9.904   7.333  0.0601 -0.0152  0.2374
  921YOPE   C3A12529  10.818   9.673   7.738  0.1977  0.2731 -0.1070
  921YOPE   C4A12530  10.967   9.343   7.912 -0.1475 -0.1248  0.1170
  921YOPE   C1B12531  10.994   9.356   6.552  0.0057 -0.2741 -0.2969
  921YOPE   C2B12532  11.097   9.029   6.824 -0.0175  0.0269  0.0527
  921YOPE   D3B12533  11.313   8.775   7.173 -0.1394 -0.0349  0.2005
  921YOPE   C4B12534  11.491   8.772   7.538 -0.1179 -0.0650 -0.0108
  922YOPE   NH312535   4.469   6.085   6.068 -0.4027  0.0849 -0.0266
  922YOPE   PO412536   4.014   5.997   6.175  0.3112 -0.1192  0.1847
  922YOPE   GL112537   4.200   5.900   6.490  0.1273  0.3425  0.2116
  922YOPE   GL212538   4.192   5.676   6.619  0.0439  0.3852 -0.0308
  922YOPE   C1A12539   4.499   6.106   6.824  0.1162  0.2220  0.1172
  922YOPE   D2A12540   4.561   6.081   7.297  0.0982 -0.0358 -0.2739
  922YOPE   C3A12541   4.426   6.263   7.597  0.0617  0.0711  0.1530
  922YOPE   C4A12542   4.232   6.340   8.021 -0.1230 -0.0939 -0.1398
  922YOPE   C1B12543   4.220   5.644   7.035 -0.0291  0.2638 -0.0564
  922YOPE   C2B12544   4.128   5.761   7.402  0.0275  0.0600 -0.2579
  922YOPE   D3B12545   4.271   5.834   7.888 -0.1404  0.1286  0.0206
  922YOPE   C4B12546   4.514   5.737   8.206 -0.1380 -0.0663 -0.1998
  923YOPE   NH312547  16.301   1.741   6.097  0.0309 -0.0740  0.0236
  923YOPE   PO412548  15.854   1.627   5.901 -0.0324 -0.1623  0.1831
  923YOPE   GL112549  15.907   1.494   6.321  0.2039  0.0176  0.1029
  923YOPE   GL212550  16.209   1.294   6.415  0.0212  0.3295  0.3787
  923YOPE   C1A12551  15.643   1.625   6.752  0.0505  0.1940  0.2638
  923YOPE   D2A12552  15.424   1.342   7.136  0.1600 -0.1550  0.0861
  923YOPE   C3A12553  15.301   1.588   7.392  0.3061  0.0675  0.0358
  923YOPE   C4A12554  15.366   1.827   7.660  0.0604 -0.1352 -0.1124
  923YOPE   C1B12555  16.515   1.463   6.668 -0.1156  0.0657  0.1201
  923YOPE   C2B12556  16.488   1.793   6.945 -0.1089  0.1294 -0.3219
  923YOPE   D3B12557  16.362   2.034   7.250 -0.1318  0.1685  0.1850
  923YOPE   C4B12558  16.073   2.042   7.618  0.0989  0.1738  0.1821
  924YOPE   NH312559  14.510   3.306   6.193  0.1710  0.1612 -0.2429
  924YOPE   PO412560  15.000   3.328   6.116 -0.4366 -0.3465  0.0659
  924YOPE   GL112561  14.901   3.218   6.524  0.1762 -0.2328  0.1818
  924YOPE   GL212562  15.030   2.948   6.616 -0.0265  0.1081  0.1113
  924YOPE   C1A12563  14.920   3.299   7.037 -0.2710  0.2245 -0.0737
  924YOPE   D2A12564  14.591   3.379   7.342  0.2155 -0.0267 -0.0734
  924YOPE   C3A12565  14.184   3.496   7.612 -0.1791 -0.0783  0.0349
  924YOPE   C4A12566  13.838   3.636   7.849  0.0733 -0.2534 -0.4545
  924YOPE   C1B12567  15.268   2.997   7.068  0.0146 -0.0883 -0.0674
  924YOPE   C2B12568  15.120   3.117   7.494 -0.0390 -0.2583 -0.2296
  924YOPE   D3B12569  14.705   3.185   7.775  0.0194  0.2953  0.0203
  924YOPE   C4B12570  14.358   3.144   7.972  0.0687  0.0061 -0.1022
  925YOPE   NH312571   4.837  13.683   5.424  0.3799  0.2972 -0.1946
  925YOPE   PO412572   4.730  13.242   5.383 -0.2007 -0.1756 -0.0016
  925YOPE   GL112573   4.847  13.105   5.719 -0.0037  0.1405 -0.3917
  925YOPE   GL212574   4.783  13.332   5.960  0.2782  0.1031  0.2014
  925YOPE   C1A12575   4.885  12.925   6.245  0.1671 -0.3229  0.1346
  925YOPE   D2A12576   4.978  13.163   6.637  0.2576  0.0332  0.0804
  925YOPE   C3A12577   5.235  13.008   6.984 -0.0738 -0.3346 -0.2060
  925YOPE   C4A12578   5.196  13.167   7.454  0.1877  0.0425  0.0338
  925YOPE   C1B12579   5.064  13.560   6.272 -0.0551 -0.2222 -0.3200
  925YOPE   C2B12580   4.988  13.739   6.729 -0.3151 -0.1102 -0.1159
  925YOPE   D3B12581   4.897  13.889   7.168 -0.0025 -0.3158  0.2004
  925YOPE   C4B12582   4.785  14.176   7.441  0.3658  0.0126 -0.1108
  926YOPE   NH312583   4.331  12.992   5.672  0.0273  0.0853  0.1917
  926YOPE   PO412584   4.240  12.502   5.700  0.3247  0.0893 -0.0366
  926YOPE   GL112585   4.088  12.591   6.028 -0.3512  0.0011  0.2173
  926YOPE   GL212586   4.322  12.884   6.140 -0.3309 -0.2553  0.1500
  926YOPE   C1A12587   3.870  12.646   6.358 -0.1773  0.2201 -0.1904
  926YOPE   D2A12588   3.626  12.857   6.588 -0.2686  0.0150  0.0111
  926YOPE   C3A12589   3.320  12.732   6.919 -0.0423 -0.0564  0.0247
  926YOPE   C4A12590   3.306  12.689   7.290  0.0121  0.2401 -0.3044
  926YOPE   C1B12591   4.428  12.726   6.477  0.0493 -0.2038 -0.1852
  926YOPE   C2B12592   4.565  12.833   6.886  0.1171 -0.0498  0.1348
  926YOPE   D3B12593   4.313  13.087   7.178  0.0039 -0.0631 -0.0488
  926YOPE   C4B12594   4.484  13.274   7.555  0.1319 -0.0381 -0.0706
  927YOPE   NH312595  17.879  13.576   5.838 -0.1897 -0.0795 -0.2094
  927YOPE   PO412596  18.237  13.606   5.994  0.0487  0.0526 -0.1725
  927YOPE   GL112597  18.238  13.598   6.413  0.1762 -0.0543  0.1020
  927YOPE   GL212598  18.393  13.249   6.436  0.2393 -0.2411  0.0365
  927YOPE   C1A12599  18.481  13.642   6.793 -0.0603 -0.0244 -0.0970
  927YOPE   D2A12600  18.697  13.948   6.949  0.0103  0.3302 -0.1438
  927YOPE   C3A12601  18.571  14.334   7.140  0.0351  0.1132  0.3795
  927YOPE   C4A12602  18.245  14.615   7.216 -0.1680  0.0189 -0.1321
  927YOPE   C1B12603  18.110  13.192   6.771  0.0590  0.0957 -0.0364
  927YOPE   C2B12604  17.912  13.015   7.143 -0.2344 -0.1215  0.4184
  927YOPE   D3B12605  17.874  12.731   7.498 -0.1888 -0.1857  0.2399
  927YOPE   C4B12606  17.816  12.647   7.975  0.0906 -0.0780 -0.0005
  928YOPE   NH312607  12.965  14.393   5.986  0.1308  0.0725  0.0931
  928YOPE   PO412608  12.817  14.783   6.118  0.0978 -0.2426 -0.1792
  928YOPE   GL112609  12.733  14.715   6.573 -0.1816 -0.1312  0.0094
  928YOPE   GL212610  12.925  14.940   6.717  0.0526  0.0040 -0.0571
  928YOPE   C1A12611  12.620  14.726   7.040  0.0249 -0.1794  0.1051
  928YOPE   D2A12612  12.511  14.527   7.300  0.1960  0.0319 -0.2715
  928YOPE   C3A12613  12.644  14.476   7.728 -0.2436  0.0533 -0.0148
  928YOPE   C4A12614  12.880  14.656   8.007  0.0519  0.0128 -0.0090
  928YOPE   C1B12615  12.856  15.151   7.126  0.0465  0.0365 -0.0274
  928YOPE   C2B12616  12.781  15.340   7.581  0.1570  0.0433  0.0745
  928YOPE   D3B12617  12.786  15.700   7.861  0.2606  0.1242 -0.2982
  928YOPE   C4B12618  12.711  16.131   7.885  0.4063 -0.0892  0.0470
  929YOPE   NH312619  12.481  11.091   5.898 -0.0578  0.0640  0.0518
  929YOPE   PO412620  12.977  11.144   5.881 -0.0917  0.0264 -0.4860
  929YOPE   GL112621  12.843  11.127   6.285  0.3511 -0.0034  0.0583
  929YOPE   GL212622  13.189  11.104   6.374  0.2242  0.0617 -0.3835
  929YOPE   C1A12623  12.720  11.095   6.692 -0.0685 -0.0372  0.0351
  929YOPE   D2A12624  12.861  11.347   6.985  0.1689  0.2481  0.1265
  929YOPE   C3A12625  13.158  11.277   7.002  0.0289 -0.0138 -0.0810
  929YOPE   C4A12626  13.425  10.952   7.245 -0.1500 -0.2773  0.0262
  929YOPE   C1B12627  13.465  11.439   6.653 -0.0743  0.4220  0.4416
  929YOPE   C2B12628  13.625  11.588   7.026 -0.0363 -0.0316 -0.0190
  929YOPE   D3B12629  13.798  11.736   7.319 -0.0609  0.1985 -0.1361
  929YOPE   C4B12630  14.093  11.622   7.477 -0.2045  0.0375  0.2078
  930YOPE   NH312631   0.123   8.107   5.810 -0.0786  0.0332  0.0000
  930YOPE   PO412632   0.221   8.156   6.252 -0.1349  0.0442  0.3266
  930YOPE   GL112633   0.185   7.897   6.524 -0.0511  0.1513 -0.4843
  930YOPE   GL212634   0.146   8.201   6.776  0.0341  0.0761 -0.0226
  930YOPE   C1A12635   0.340   7.728   6.906  0.0544  0.1535 -0.3076
  930YOPE   D2A12636   0.393   7.865   7.334  0.0756  0.2820 -0.2032
  930YOPE   C3A12637   0.239   7.773   7.642  0.1290 -0.1607  0.0244
  930YOPE   C4A12638   0.121   7.857   8.007 -0.0357 -0.1576 -0.0811
  930YOPE   C1B12639   0.002   8.065   7.160 -0.2352 -0.0324 -0.1183
  930YOPE   C2B12640  -0.296   8.229   7.472 -0.1479  0.0737  0.1867
  930YOPE   D3B12641  -0.441   8.251   7.923 -0.0979 -0.1780 -0.1768
  930YOPE   C4B12642  -0.792   8.475   8.110 -0.1563  0.3054  0.2391
  931YOPE   NH312643   6.911  15.606   5.229  0.1980 -0.1138 -0.0724
  931YOPE   PO412644   6.503  15.683   5.458  0.2903 -0.3152 -0.0801
  931YOPE   GL112645   6.616  15.395   5.808 -0.1384  0.2087 -0.3043
  931YOPE   GL212646   6.439  15.080   5.741  0.4406  0.2888  0.0684
  931YOPE   C1A12647   6.739  15.474   6.208 -0.1578  0.1123  0.0669
  931YOPE   D2A12648   6.952  15.441   6.530  0.1357 -0.0025  0.2262
  931YOPE   C3A12649   6.986  15.054   6.844  0.2542 -0.3618  0.0620
  931YOPE   C4A12650   7.158  14.707   7.067 -0.0542 -0.1060  0.1768
  931YOPE   C1B12651   6.111  15.251   6.036  0.1911  0.0407 -0.1960
  931YOPE   C2B12652   5.984  15.036   6.442  0.1932 -0.0596  0.4206
  931YOPE   D3B12653   6.011  14.869   6.867 -0.1938  0.3067 -0.2461
  931YOPE   C4B12654   6.173  14.658   7.183 -0.2271  0.0200 -0.2972
  932YOPE   NH312655   8.123   4.138   6.227 -0.2517 -0.1152  0.1452
  932YOPE   PO412656   7.704   4.230   6.250  0.3354  0.1165 -0.0239
  932YOPE   GL112657   7.557   4.009   6.667  0.0153  0.1633 -0.2165
  932YOPE   GL212658   7.776   4.307   6.774 -0.0916 -0.2349 -0.1439
  932YOPE   C1A12659   7.747   3.918   7.059 -0.1646 -0.2038  0.0436
  932YOPE   D2A12660   7.851   3.962   7.564 -0.2235  0.0716 -0.2527
  932YOPE   C3A12661   7.615   4.043   7.889  0.0617 -0.0082  0.0354
  932YOPE   C4A12662   7.384   4.272   8.215 -0.0715 -0.1143  0.0674
  932YOPE   C1B12663   8.176   4.261   7.118  0.2922 -0.2340  0.0087
  932YOPE   C2B12664   8.333   4.358   7.464  0.0111 -0.1975  0.1716
  932YOPE   D3B12665   8.643   4.713   7.703  0.0647 -0.3663  0.0632
  932YOPE   C4B12666   8.664   4.904   8.073  0.3832 -0.1236  0.0691
  933YOPE   NH312667  10.341  16.273   6.078 -0.0814  0.0889 -0.0577
  933YOPE   PO412668  10.725  16.322   6.195  0.1286 -0.1563 -0.0313
  933YOPE   GL112669  10.565  15.986   6.471 -0.0621 -0.0901  0.1670
  933YOPE   GL212670  10.775  15.944   6.724 -0.0861  0.1426  0.0047
  933YOPE   C1A12671  10.202  15.882   6.693 -0.0405 -0.0898  0.1533
  933YOPE   D2A12672  10.063  15.646   6.998  0.2474  0.0760 -0.1054
  933YOPE   C3A12673   9.946  15.292   7.119  0.1318 -0.1473 -0.1385
  933YOPE   C4A12674  10.017  14.940   7.418 -0.2214  0.1217 -0.0302
  933YOPE   C1B12675  10.561  15.860   7.151 -0.2673 -0.0338  0.1225
  933YOPE   C2B12676  10.697  15.791   7.612  0.0984 -0.1131  0.4080
  933YOPE   D3B12677  10.416  15.814   7.953 -0.0428 -0.1057 -0.1776
  933YOPE   C4B12678   9.970  15.876   7.887  0.0505  0.4149 -0.0366
  934YOPE   NH312679   5.375  17.659   5.755 -0.1267  0.1804 -0.0170
  934YOPE   PO412680   5.883  17.733   5.771  0.2111  0.1950 -0.1074
  934YOPE   GL112681   5.858  17.841   6.173 -0.2232 -0.0493 -0.0996
  934YOPE   GL212682   6.181  17.984   6.151  0.0229  0.0283  0.2212
  934YOPE   C1A12683   5.879  17.728   6.629 -0.0439 -0.0684 -0.1159
  934YOPE   D2A12684   5.725  17.565   7.059  0.2305 -0.1417  0.1859
  934YOPE   C3A12685   5.907  17.199   7.066 -0.2884 -0.0577 -0.2451
  934YOPE   C4A12686   6.209  16.938   7.201 -0.3449  0.1516 -0.1448
  934YOPE   C1B12687   6.032  18.170   6.500  0.0226  0.2463 -0.0627
  934YOPE   C2B12688   5.934  18.151   6.943  0.2684 -0.1180  0.3560
  934YOPE   D3B12689   6.040  17.951   7.268 -0.1027  0.0023  0.0297
  934YOPE   C4B12690   5.854  17.599   7.512 -0.1636  0.0106  0.1312
  935YOPE   NH312691   0.900  15.814   5.630  0.2403  0.0306  0.1661
  935YOPE   PO412692   0.975  16.232   5.828  0.1313  0.2440  0.3122
  935YOPE   GL112693   1.316  16.296   6.110  0.0295 -0.3537  0.0347
  935YOPE   GL212694   1.635  16.381   5.963  0.2438  0.4419 -0.0017
  935YOPE   C1A12695   1.563  16.263   6.528 -0.0890  0.1340  0.0460
  935YOPE   D2A12696   1.785  16.494   6.919 -0.1051 -0.1806 -0.1179
  935YOPE   C3A12697   1.951  16.571   7.272  0.2793  0.1861 -0.0947
  935YOPE   C4A12698   2.100  16.428   7.673  0.0828 -0.0233  0.1028
  935YOPE   C1B12699   2.087  16.276   5.909  0.0529 -0.1052 -0.2602
  935YOPE   C2B12700   2.146  15.944   6.245 -0.2087  0.2522 -0.2423
  935YOPE   D3B12701   2.454  15.756   6.594  0.1054 -0.1827  0.3195
  935YOPE   C4B12702   2.456  15.744   7.061 -0.0898  0.3270  0.1403
  936YOPE   NH312703  14.539   8.466   5.383 -0.2897  0.0080  0.0269
  936YOPE   PO412704  14.371   8.699   5.741 -0.1433 -0.2433  0.0759
  936YOPE   GL112705  14.073   8.426   6.088 -0.2845  0.2285  0.1945
  936YOPE   GL212706  14.176   8.058   6.089 -0.0014 -0.0710  0.3437
  936YOPE   C1A12707  13.880   8.554   6.535 -0.0292  0.1369 -0.2335
  936YOPE   D2A12708  13.928   8.367   6.997 -0.1647  0.0833 -0.2511
  936YOPE   C3A12709  13.957   8.597   7.406 -0.0515 -0.0224 -0.3431
  936YOPE   C4A12710  14.078   8.557   7.974  0.1093 -0.1543  0.4402
  936YOPE   C1B12711  14.208   8.138   6.538  0.2620  0.1276 -0.2606
  936YOPE   C2B12712  14.392   8.510   6.840  0.3579  0.1612  0.1906
  936YOPE   D3B12713  14.367   8.785   7.159 -0.1841 -0.2581  0.0017
  936YOPE   C4B12714  14.435   8.705   7.638  0.0075 -0.1592 -0.1614
  937YOPE   NH312715  17.587  15.906   5.972  0.0922  0.1415  0.0832
  937YOPE   PO412716  17.604  15.524   6.073  0.0202 -0.0629  0.2692
  937YOPE   GL112717  17.699  15.619   6.487 -0.1399 -0.0534 -0.0186
  937YOPE   GL212718  17.596  15.940   6.496 -0.2019 -0.2052  0.1274
  937YOPE   C1A12719  17.800  15.685   6.995  0.1224 -0.0109  0.3639
  937YOPE   D2A12720  17.822  15.623   7.453  0.2057 -0.2188 -0.0106
  937YOPE   C3A12721  18.240  15.498   7.681  0.0133  0.1836 -0.0739
  937YOPE   C4A12722  18.746  15.585   7.794 -0.1318  0.0189 -0.1054
  937YOPE   C1B12723  17.466  16.034   6.821 -0.0268  0.2448  0.1461
  937YOPE   C2B12724  17.535  16.041   7.236 -0.1420 -0.1008 -0.0282
  937YOPE   D3B12725  17.427  15.813   7.602  0.1594 -0.0119 -0.0688
  937YOPE   C4B12726  17.589  15.482   7.879 -0.3597 -0.2614  0.2351
  938YOPE   NH312727   0.466   8.532   6.422  0.0367 -0.0001  0.0798
  938YOPE   PO412728   0.276   9.027   6.312  0.0341 -0.3950 -0.1143
  938YOPE   GL112729   0.450   8.957   6.723 -0.0359  0.0227  0.0631
  938YOPE   GL212730   0.200   8.752   6.761 -0.1457  0.1896 -0.1654
  938YOPE   C1A12731   0.430   8.813   7.198 -0.3077  0.0219  0.1304
  938YOPE   D2A12732   0.501   8.805   7.651 -0.2798  0.1121  0.0131
  938YOPE   C3A12733   0.554   9.215   7.911 -0.1830 -0.1214 -0.3382
  938YOPE   C4A12734   0.481   9.519   8.201  0.1784  0.0527 -0.0226
  938YOPE   C1B12735  -0.054   8.613   7.075  0.1034  0.0078 -0.1619
  938YOPE   C2B12736  -0.083   8.683   7.538 -0.0250  0.0867 -0.0945
  938YOPE   D3B12737   0.096   8.876   7.919  0.1982  0.0908 -0.2607
  938YOPE   C4B12738   0.114   9.173   8.273 -0.0916  0.2289 -0.0747
  939YOPE   NH312739  15.955   2.587   5.914  0.1834  0.0003 -0.1264
  939YOPE   PO412740  15.632   2.872   5.742  0.1587 -0.1058 -0.4037
  939YOPE   GL112741  15.956   3.131   6.075  0.3111 -0.0989 -0.0008
  939YOPE   GL212742  16.079   3.428   6.067 -0.1342 -0.1174 -0.3100
  939YOPE   C1A12743  16.070   3.045   6.472  0.2754 -0.1335 -0.1586
  939YOPE   D2A12744  16.309   2.761   6.674  0.1441  0.2823 -0.1075
  939YOPE   C3A12745  16.253   2.893   7.075  0.1731  0.1259 -0.1161
  939YOPE   C4A12746  16.278   2.987   7.531  0.2733  0.0936 -0.0524
  939YOPE   C1B12747  16.150   3.631   6.543  0.2478 -0.0210  0.1537
  939YOPE   C2B12748  16.402   3.676   6.943 -0.4056  0.0774 -0.1077
  939YOPE   D3B12749  16.524   3.446   7.259  0.0245  0.2655  0.3000
  939YOPE   C4B12750  16.693   3.275   7.607 -0.2971 -0.0365 -0.0275
  940YOPE   NH312751   7.745   0.438   6.086  0.2566 -0.0807 -0.3864
  940YOPE   PO412752   8.206   0.427   5.988 -0.0076 -0.0871  0.0292
  940YOPE   GL112753   8.175   0.539   6.387  0.2144  0.1748 -0.2371
  940YOPE   GL212754   8.170   0.799   6.529  0.1579  0.1228 -0.0387
  940YOPE   C1A12755   8.198   0.321   6.730  0.2909 -0.0362  0.1010
  940YOPE   D2A12756   8.053   0.477   7.168 -0.1501 -0.2710  0.0055
  940YOPE   C3A12757   8.138   0.293   7.394  0.1203  0.0569 -0.1601
  940YOPE   C4A12758   8.312   0.016   7.672 -0.2519 -0.0083  0.2770
  940YOPE   C1B12759   7.954   0.981   6.863  0.3032  0.0802 -0.2806
  940YOPE   C2B12760   7.844   0.928   7.299  0.1018 -0.1021 -0.1787
  940YOPE   D3B12761   7.938   0.944   7.734  0.1377  0.1071  0.0565
  940YOPE   C4B12762   8.331   0.973   8.072  0.0676 -0.1188  0.1694
  941YOPE   NH312763  14.454  16.400   6.180  0.0604  0.0415 -0.0885
  941YOPE   PO412764  14.462  16.786   6.224 -0.0400 -0.2623  0.1488
  941YOPE   GL112765  14.583  16.645   6.575 -0.0727  0.1155  0.1337
  941YOPE   GL212766  14.411  16.262   6.683 -0.1894  0.0010  0.2130
  941YOPE   C1A12767  14.702  16.610   6.938 -0.2153  0.0918 -0.1405
  941YOPE   D2A12768  14.678  16.572   7.382  0.0556  0.3307 -0.1583
  941YOPE   C3A12769  14.484  16.257   7.521 -0.1945 -0.0445 -0.0924
  941YOPE   C4A12770  14.346  16.266   7.899 -0.1052  0.0303 -0.0671
  941YOPE   C1B12771  14.655  16.063   6.906  0.1406 -0.1156  0.2629
  941YOPE   C2B12772  14.617  15.622   7.121  0.0545 -0.0444 -0.0617
  941YOPE   D3B12773  14.670  15.336   7.531  0.3948  0.2059 -0.0532
  941YOPE   C4B12774  14.690  15.129   7.858 -0.0333 -0.3508 -0.2031
  942POPC   NC312775   3.368  11.152   5.602 -0.1106  0.4468 -0.0250
  942POPC   PO412776   2.903  11.124   5.698  0.0436  0.1873 -0.1028
  942POPC   GL112777   2.772  11.171   6.102 -0.0175  0.4580 -0.0248
  942POPC   GL212778   2.480  11.070   6.019  0.2013  0.2999  0.2170
  942POPC   C1A12779   2.767  11.010   6.502  0.0598 -0.0895 -0.0929
  942POPC   D2A12780   2.770  10.923   6.961 -0.0137  0.0358  0.3081
  942POPC   C3A12781   2.542  11.271   7.056  0.4152  0.0458  0.2463
  942POPC   C4A12782   2.597  11.637   6.863 -0.2998  0.0278  0.0327
  942POPC   C1B12783   2.239  11.195   6.439  0.0674 -0.1563 -0.0512
  942POPC   C2B12784   2.136  11.422   6.805  0.0234  0.1577 -0.0391
  942POPC   C3B12785   2.196  11.480   7.340 -0.0342  0.0124 -0.4878
  942POPC   C4B12786   2.326  11.269   7.703  0.2373 -0.0638 -0.1859
  943POPC   NC312787   3.333   5.623   6.178  0.0723 -0.1410 -0.0847
  943POPC   PO412788   3.075   5.913   6.293  0.2717  0.0794 -0.5020
  943POPC   GL112789   3.172   5.794   6.653  0.1634  0.1199  0.0347
  943POPC   GL212790   3.169   6.011   6.926  0.1196  0.2017 -0.0043
  943POPC   C1A12791   3.390   5.548   6.913  0.2147 -0.0203  0.4759
  943POPC   D2A12792   3.612   5.620   7.217  0.1630  0.1203 -0.1877
  943POPC   C3A12793   3.509   5.544   7.656 -0.3445  0.0235  0.0344
  943POPC   C4A12794   3.294   5.406   7.996 -0.0378 -0.1796 -0.0337
  943POPC   C1B12795   3.070   5.934   7.304  0.0511 -0.0384 -0.0034
  943POPC   C2B12796   2.961   5.797   7.657  0.1139 -0.1232 -0.1695
  943POPC   C3B12797   2.730   5.601   8.005 -0.1451 -0.0152 -0.0235
  943POPC   C4B12798   2.244   5.650   8.076  0.4974 -0.0861  0.3572
  944POPC   NC312799   7.504   1.940   5.924  0.3563 -0.0057  0.1332
  944POPC   PO412800   7.897   1.841   5.897 -0.0883 -0.2054  0.1200
  944POPC   GL112801   8.039   1.691   6.313  0.2192 -0.1823 -0.3583
  944POPC   GL212802   7.896   1.429   6.306  0.2801  0.2314 -0.2357
  944POPC   C1A12803   8.227   1.920   6.695  0.0589 -0.2022  0.0101
  944POPC   D2A12804   8.618   1.961   7.042 -0.3680 -0.1355 -0.0584
  944POPC   C3A12805   8.659   2.228   7.434 -0.1464  0.0863  0.3295
  944POPC   C4A12806   8.678   2.250   7.877  0.0604 -0.0753  0.4359
  944POPC   C1B12807   7.877   1.560   6.793  0.3856  0.1122  0.0703
  944POPC   C2B12808   7.629   1.431   7.157  0.4022  0.0424 -0.1275
  944POPC   C3B12809   7.379   1.698   7.503  0.1536  0.0353 -0.1730
  944POPC   C4B12810   7.128   1.733   7.918  0.2414  0.2618  0.1362
  945POPC   NC312811   8.788  11.870   5.400 -0.0348  0.1658 -0.2410
  945POPC   PO412812   8.600  11.875   5.763  0.2142  0.2535  0.3115
  945POPC   GL112813   8.554  11.985   6.094  0.1239 -0.0709  0.2526
  945POPC   GL212814   8.557  12.332   6.054 -0.0158  0.1204  0.1576
  945POPC   C1A12815   8.404  11.879   6.464 -0.0004  0.1977  0.0059
  945POPC   D2A12816   8.422  11.822   6.852 -0.0958 -0.3074 -0.2888
  945POPC   C3A12817   8.139  12.053   7.176 -0.2435 -0.1459  0.0904
  945POPC   C4A12818   7.698  12.057   7.194 -0.0066 -0.1494 -0.0878
  945POPC   C1B12819   8.677  12.264   6.520  0.0861  0.0141 -0.0067
  945POPC   C2B12820   8.613  12.330   6.968  0.1785  0.1426 -0.0699
  945POPC   C3B12821   8.483  12.433   7.378 -0.1939 -0.0882 -0.2348
  945POPC   C4B12822   8.220  12.176   7.646 -0.0081 -0.0578  0.0859
  946POPC   NC312823  12.344  13.783   5.608 -0.1992 -0.3633 -0.1533
  946POPC   PO412824  12.707  13.974   5.878 -0.1485  0.3760 -0.1531
  946POPC   GL112825  12.880  13.946   6.326  0.0378 -0.4600 -0.0462
  946POPC   GL212826  12.891  14.170   6.475  0.0375 -0.1076 -0.2185
  946POPC   C1A12827  13.118  13.583   6.598 -0.4763 -0.1964  0.0656
  946POPC   D2A12828  13.190  13.624   7.012 -0.0734  0.0305 -0.1403
  946POPC   C3A12829  13.138  13.463   7.457 -0.1939 -0.3902  0.0109
  946POPC   C4A12830  13.068  13.237   7.827  0.1489  0.0553  0.1494
  946POPC   C1B12831  13.056  14.479   6.802 -0.1337 -0.1689  0.1062
  946POPC   C2B12832  13.090  14.725   7.163  0.1909 -0.2349 -0.2965
  946POPC   C3B12833  12.871  14.845   7.501  0.0451  0.1022  0.1537
  946POPC   C4B12834  12.541  14.958   7.839  0.0247 -0.1878 -0.0478
  947POPC   NC312835   6.135   9.884   5.511  0.1576  0.1440  0.1484
  947POPC   PO412836   5.944   9.628   5.728  0.2248  0.0049 -0.2562
  947POPC   GL112837   5.882   9.806   6.206 -0.0927 -0.1380 -0.1011
  947POPC   GL212838   5.550   9.984   6.232 -0.0335  0.0061 -0.0586
  947POPC   C1A12839   6.078   9.721   6.589  0.1694  0.1891  0.1946
  947POPC   D2A12840   6.166   9.778   6.958 -0.1679  0.2573 -0.0521
  947POPC   C3A12841   5.987   9.624   7.277  0.0182  0.0803 -0.1167
  947POPC   C4A12842   5.705   9.396   7.645 -0.2127  0.3098  0.1157
  947POPC   C1B12843   5.460  10.262   6.551 -0.2192 -0.1451 -0.0325
  947POPC   C2B12844   5.629  10.568   6.893 -0.1088  0.2104  0.0350
  947POPC   C3B12845   5.993  10.686   7.210  0.1259  0.0627  0.2731
  947POPC   C4B12846   6.336  10.876   7.382 -0.1441  0.1588  0.2633
  948POPC   NC312847  13.207  16.211   5.939 -0.0974  0.1583  0.0161
  948POPC   PO412848  13.443  16.670   6.047 -0.1739 -0.4165  0.1708
  948POPC   GL112849  13.453  16.788   6.430  0.0247 -0.1232  0.2834
  948POPC   GL212850  13.756  16.917   6.551 -0.2148  0.0001  0.2036
  948POPC   C1A12851  13.297  16.862   6.972  0.1146 -0.1655 -0.0659
  948POPC   D2A12852  13.004  16.837   7.308 -0.1378  0.3331 -0.1652
  948POPC   C3A12853  13.171  16.926   7.753 -0.2430  0.1110 -0.0004
  948POPC   C4A12854  13.391  17.284   7.892  0.1411  0.1270 -0.0714
  948POPC   C1B12855  13.758  16.964   7.019 -0.0675  0.1819  0.2113
  948POPC   C2B12856  13.956  16.762   7.322 -0.1127 -0.0908 -0.0722
  948POPC   C3B12857  14.277  16.763   7.593 -0.2607  0.2432  0.0003
  948POPC   C4B12858  14.675  16.730   7.908  0.1003  0.0179  0.1603
  949POPC   NC312859   3.364   9.405   5.577  0.2843  0.0164 -0.2349
  949POPC   PO412860   3.085   9.455   5.956  0.0884 -0.1508 -0.3566
  949POPC   GL112861   3.197   9.656   6.336 -0.0651 -0.0011 -0.3446
  949POPC   GL212862   3.232  10.007   6.471 -0.0180  0.0817 -0.0941
  949POPC   C1A12863   2.995   9.625   6.726  0.2779 -0.0618 -0.3758
  949POPC   D2A12864   2.967   9.940   7.011 -0.1796 -0.0112 -0.0494
  949POPC   C3A12865   2.890   9.847   7.348  0.3418  0.2394  0.3308
  949POPC   C4A12866   2.938   9.848   7.807  0.0995 -0.1756  0.0763
  949POPC   C1B12867   3.416  10.299   6.627  0.2020 -0.1536 -0.0167
  949POPC   C2B12868   3.748  10.096   6.928  0.0271 -0.1523  0.0459
  949POPC   C3B12869   4.030  10.068   7.196  0.1519 -0.2436  0.0879
  949POPC   C4B12870   4.009   9.836   7.501 -0.2122  0.0207  0.1666
  950POPC   NC312871  11.381   2.816   5.692 -0.2184  0.0459  0.2150
  950POPC   PO412872  11.804   2.797   5.792 -0.0100  0.3392 -0.2407
  950POPC   GL112873  11.841   2.763   6.171 -0.3062 -0.0739 -0.0987
  950POPC   GL212874  12.158   2.834   6.251 -0.1583  0.3589  0.1604
  950POPC   C1A12875  11.664   2.634   6.564  0.2065  0.0504 -0.0662
  950POPC   D2A12876  11.418   2.372   6.904  0.1571  0.2554  0.2927
  950POPC   C3A12877  11.634   2.074   7.239 -0.2376 -0.3565  0.0959
  950POPC   C4A12878  12.105   2.213   7.419 -0.4019  0.0496  0.2534
  950POPC   C1B12879  12.224   2.797   6.662  0.2547  0.2061  0.1265
  950POPC   C2B12880  12.208   2.883   7.099  0.1097  0.2869 -0.2699
  950POPC   C3B12881  12.078   2.693   7.442 -0.1922 -0.1270 -0.0288
  950POPC   C4B12882  12.304   2.580   7.848 -0.1197  0.0502  0.2167
  951POPC   NC312883   3.436   2.174   5.854  0.1018  0.0388 -0.0832
  951POPC   PO412884   3.620   2.532   5.953 -0.1763 -0.1953 -0.0839
  951POPC   GL112885   3.798   2.253   6.221 -0.2686 -0.3042 -0.0733
  951POPC   GL212886   4.208   2.199   6.165 -0.1484  0.0528 -0.0457
  951POPC   C1A12887   3.931   1.980   6.510  0.0434 -0.1320  0.1506
  951POPC   D2A12888   3.848   1.850   6.966  0.0631  0.0065 -0.2481
  951POPC   C3A12889   4.044   1.611   7.350 -0.0553 -0.0137  0.0298
  951POPC   C4A12890   3.733   1.225   7.617 -0.1043 -0.0342 -0.2117
  951POPC   C1B12891   4.197   2.356   6.681  0.0624 -0.1478  0.3015
  951POPC   C2B12892   4.185   2.302   7.076  0.0629  0.1446 -0.2460
  951POPC   C3B12893   4.025   2.509   7.378  0.2570  0.0407  0.0741
  951POPC   C4B12894   4.302   2.519   7.647 -0.1959  0.1153 -0.2577
  952POPC   NC312895   7.165  15.140   4.589 -0.1801  0.0874  0.2062
  952POPC   PO412896   7.089  15.213   4.997 -0.0471  0.1820  0.0218
  952POPC   GL112897   7.195  14.931   5.258 -0.0395  0.0188 -0.0065
  952POPC   GL212898   7.404  14.873   5.510 -0.0720 -0.0869 -0.1275
  952POPC   C1A12899   6.969  15.009   5.656  0.0179 -0.0266  0.1011
  952POPC   D2A12900   6.772  14.703   5.877  0.4040  0.0960  0.0564
  952POPC   C3A12901   6.805  14.434   6.141 -0.0745  0.1292 -0.0120
  952POPC   C4A12902   6.793  14.535   6.598 -0.3074 -0.1052 -0.2874
  952POPC   C1B12903   7.289  14.589   5.672  0.0614  0.2058  0.0529
  952POPC   C2B12904   7.272  14.282   6.017  0.0837  0.2860  0.1286
  952POPC   C3B12905   7.413  13.851   6.029  0.0068 -0.0781  0.2561
  952POPC   C4B12906   7.416  13.445   6.015  0.0391 -0.1473  0.1107
  953POPC   NC312907  12.219  12.358   5.686 -0.0002 -0.3056 -0.2137
  953POPC   PO412908  12.692  12.246   5.701  0.0881  0.1311  0.2079
  953POPC   GL112909  12.602  12.540   6.053  0.0682  0.1768  0.0901
  953POPC   GL212910  12.288  12.336   6.213 -0.0959 -0.4189  0.0571
  953POPC   C1A12911  12.377  12.834   6.272 -0.2293 -0.0334  0.1877
  953POPC   D2A12912  12.272  13.281   6.451  0.1154  0.2403  0.0676
  953POPC   C3A12913  12.173  13.318   6.847 -0.1627 -0.3029  0.0550
  953POPC   C4A12914  12.282  13.498   7.359  0.0418  0.3099 -0.2290
  953POPC   C1B12915  12.568  12.121   6.442 -0.2660  0.0873  0.1755
  953POPC   C2B12916  12.945  12.173   6.617 -0.2189 -0.1797  0.4011
  953POPC   C3B12917  13.003  12.207   7.073  0.1702  0.2208  0.0713
  953POPC   C4B12918  12.951  12.107   7.475  0.1216  0.2512 -0.2079
  954POPC   NC312919  14.573   4.241   5.855 -0.0482  0.1957 -0.0030
  954POPC   PO412920  14.760   4.643   5.674  0.1100 -0.1625 -0.4731
  954POPC   GL112921  14.752   4.692   6.121 -0.0920 -0.0971  0.1088
  954POPC   GL212922  15.013   4.877   6.241  0.3439 -0.2278 -0.1861
  954POPC   C1A12923  14.654   4.777   6.614 -0.4344 -0.0528 -0.0227
  954POPC   D2A12924  14.678   4.732   7.120 -0.0455  0.2492 -0.2438
  954POPC   C3A12925  14.824   4.975   7.470  0.0462 -0.0402 -0.1051
  954POPC   C4A12926  15.040   5.445   7.474  0.1624 -0.2303  0.2302
  954POPC   C1B12927  15.211   5.071   6.669 -0.1163  0.1242  0.0088
  954POPC   C2B12928  15.256   5.031   7.122 -0.3256  0.2340 -0.1513
  954POPC   C3B12929  15.308   4.966   7.553 -0.0928  0.1321  0.0211
  954POPC   C4B12930  15.096   4.966   7.955 -0.1248 -0.2421  0.2073
  955POPC   NC312931  13.757   3.667   6.005 -0.0427  0.0974  0.0970
  955POPC   PO412932  14.012   3.383   6.203 -0.3525 -0.0136  0.0190
  955POPC   GL112933  13.756   3.615   6.505 -0.3188  0.0521  0.0083
  955POPC   GL212934  13.904   3.797   6.600  0.0550  0.0881  0.0413
  955POPC   C1A12935  13.635   3.790   7.001 -0.0650 -0.1125  0.0579
  955POPC   D2A12936  13.796   3.836   7.401  0.1408  0.2951 -0.0866
  955POPC   C3A12937  13.600   4.172   7.704  0.0351 -0.0094  0.1076
  955POPC   C4A12938  13.653   4.611   7.895 -0.0996 -0.2069 -0.0719
  955POPC   C1B12939  14.079   4.083   6.905  0.1328 -0.1204 -0.0202
  955POPC   C2B12940  13.885   4.304   7.280 -0.3084 -0.0883 -0.0460
  955POPC   C3B12941  13.858   4.725   7.475  0.2759 -0.2667 -0.0721
  955POPC   C4B12942  13.920   5.081   7.673 -0.0926  0.0807 -0.1105
  956POPC   NC312943   2.755   6.238   6.158 -0.0667 -0.1262 -0.1029
  956POPC   PO412944   2.601   5.811   6.256 -0.1331  0.0702 -0.0138
  956POPC   GL112945   2.349   5.722   6.474 -0.1203  0.0968 -0.0929
  956POPC   GL212946   2.018   5.779   6.543 -0.4162 -0.1392  0.0592
  956POPC   C1A12947   2.358   5.441   6.833 -0.0600  0.1642  0.0727
  956POPC   D2A12948   2.161   5.484   7.109 -0.2474 -0.2205 -0.1431
  956POPC   C3A12949   2.092   5.113   7.299  0.2499  0.3043 -0.4104
  956POPC   C4A12950   2.105   4.687   7.422 -0.2048 -0.0393 -0.1526
  956POPC   C1B12951   2.120   5.902   6.904  0.2053  0.1170 -0.1225
  956POPC   C2B12952   2.019   5.959   7.370 -0.0949  0.0475  0.0132
  956POPC   C3B12953   2.218   6.043   7.770 -0.0416  0.3833 -0.2725
  956POPC   C4B12954   2.198   6.164   8.239 -0.1554  0.1139  0.1509
  957POPC   NC312955  13.660   6.295   5.382 -0.0099 -0.0512  0.0141
  957POPC   PO412956  13.735   6.655   5.660  0.0564 -0.0351  0.1138
  957POPC   GL112957  13.711   6.729   6.033 -0.2367  0.0163  0.0989
  957POPC   GL212958  14.082   6.629   6.150  0.0517  0.2938 -0.0798
  957POPC   C1A12959  13.472   7.003   6.330 -0.1990  0.1669 -0.0410
  957POPC   D2A12960  13.597   7.164   6.737 -0.0323 -0.2964 -0.0264
  957POPC   C3A12961  13.779   7.455   6.851  0.0791 -0.0620 -0.1063
  957POPC   C4A12962  14.016   7.832   7.007 -0.1868 -0.0195 -0.1306
  957POPC   C1B12963  13.921   6.671   6.556 -0.0095  0.2295  0.1651
  957POPC   C2B12964  13.949   6.855   6.900  0.1604  0.0150  0.3392
  957POPC   C3B12965  14.047   6.936   7.345 -0.0526 -0.2474  0.1051
  957POPC   C4B12966  13.957   7.145   7.743 -0.2911 -0.2451  0.1277
  958POPC   NC312967   2.695  10.561   6.006 -0.1897  0.1700 -0.0200
  958POPC   PO412968   2.395  10.295   6.129 -0.3323 -0.0280 -0.2947
  958POPC   GL112969   2.082  10.374   6.403  0.4295  0.2374  0.2177
  958POPC   GL212970   2.052  10.740   6.246  0.0166  0.0911 -0.0627
  958POPC   C1A12971   1.904  10.507   6.754  0.0428  0.2078 -0.0367
  958POPC   D2A12972   1.860  10.625   7.145  0.1289  0.0472  0.1540
  958POPC   C3A12973   2.097  10.418   7.536  0.0315 -0.2141 -0.0859
  958POPC   C4A12974   2.255  10.276   7.969 -0.0495 -0.0230 -0.1358
  958POPC   C1B12975   1.790  10.953   6.633  0.1268  0.3273 -0.0506
  958POPC   C2B12976   1.834  11.073   6.943 -0.5980 -0.1143  0.2035
  958POPC   C3B12977   1.855  11.126   7.439 -0.0250 -0.1082  0.2587
  958POPC   C4B12978   1.968  10.832   7.733 -0.1079 -0.2710 -0.0804
  959POPC   NC312979  15.797  11.357   5.739  0.1671  0.1223  0.0041
  959POPC   PO412980  15.414  11.455   6.027 -0.1462 -0.3629  0.0663
  959POPC   GL112981  15.116  11.426   6.288  0.1694  0.2298 -0.1708
  959POPC   GL212982  14.751  11.556   6.321 -0.1891  0.0736  0.1351
  959POPC   C1A12983  15.091  11.243   6.611 -0.3999  0.1717  0.2808
  959POPC   D2A12984  15.387  11.134   6.973 -0.4148 -0.2129  0.2017
  959POPC   C3A12985  15.389  10.989   7.358 -0.2592 -0.0585 -0.3362
  959POPC   C4A12986  15.447  10.719   7.757  0.0327 -0.0975  0.1809
  959POPC   C1B12987  14.749  11.669   6.772 -0.1655  0.0975 -0.3096
  959POPC   C2B12988  14.954  11.384   7.095 -0.0298  0.0749  0.1310
  959POPC   C3B12989  15.177  11.373   7.529  0.0896  0.0682  0.0445
  959POPC   C4B12990  15.253  11.153   7.951 -0.0276 -0.0356  0.2556
  960POPC   NC312991  17.670   3.670   6.116  0.0685  0.0427 -0.0050
  960POPC   PO412992  17.535   3.311   5.937  0.2979 -0.2194 -0.2112
  960POPC   GL112993  17.287   3.334   6.363 -0.0626  0.0960  0.1793
  960POPC   GL212994  17.018   3.355   6.485 -0.3294  0.2261 -0.2405
  960POPC   C1A12995  17.407   3.344   6.790  0.1570  0.0670 -0.0130
  960POPC   D2A12996  17.612   3.279   7.173  0.2542  0.1017  0.1582
  960POPC   C3A12997  17.808   2.996   7.503 -0.0110  0.0519 -0.0521
  960POPC   C4A12998  18.106   3.098   7.773  0.0629 -0.0771  0.1030
  960POPC   C1B12999  16.880   3.456   6.907 -0.3044  0.3142 -0.0568
  960POPC   C2B13000  17.083   3.304   7.245 -0.3164  0.0813 -0.0969
  960POPC   C3B13001  17.346   3.086   7.555  0.1925  0.0285  0.1752
  960POPC   C4B13002  17.561   3.135   7.901 -0.3390  0.2836 -0.0912
  961POPC   NC313003   1.317  13.317   5.542  0.1095  0.1244 -0.0136
  961POPC   PO413004   1.722  13.105   5.629 -0.2929 -0.1023 -0.0397
  961POPC   GL113005   1.649  13.261   6.064 -0.0099 -0.2180  0.0172
  961POPC   GL213006   1.342  13.318   6.188  0.0065  0.2457  0.3898
  961POPC   C1A13007   1.638  13.316   6.608 -0.1505 -0.1327  0.0980
  961POPC   D2A13008   1.531  13.173   6.992 -0.1639  0.1364 -0.3055
  961POPC   C3A13009   1.520  13.309   7.367 -0.3545  0.2258  0.0351
  961POPC   C4A13010   1.737  13.337   7.782  0.3228  0.2878  0.0674
  961POPC   C1B13011   1.179  13.180   6.574  0.0780 -0.0152 -0.2980
  961POPC   C2B13012   1.071  13.120   6.976 -0.2199  0.4201 -0.0711
  961POPC   C3B13013   1.144  13.012   7.341 -0.2185  0.1834  0.1932
  961POPC   C4B13014   1.557  12.832   7.537 -0.1765 -0.4046 -0.0664
  962POPC   NC313015   4.354   9.102   5.546 -0.2980 -0.3385  0.1803
  962POPC   PO413016   4.464   9.449   5.904  0.1937 -0.0215 -0.1369
  962POPC   GL113017   4.379   9.236   6.283  0.0319  0.2674  0.0796
  962POPC   GL213018   4.610   9.042   6.256 -0.0755 -0.1777 -0.2107
  962POPC   C1A13019   4.461   9.385   6.773  0.1021  0.1687 -0.1169
  962POPC   D2A13020   4.962   9.610   6.988 -0.0566 -0.4812  0.1295
  962POPC   C3A13021   5.106   9.854   6.846  0.1681  0.1140  0.1873
  962POPC   C4A13022   5.296  10.091   7.055  0.2865 -0.1695  0.0652
  962POPC   C1B13023   4.564   8.855   6.592 -0.1014  0.2124  0.1207
  962POPC   C2B13024   4.561   8.599   6.980 -0.2951 -0.0353  0.0964
  962POPC   C3B13025   4.717   8.717   7.454 -0.4814 -0.0642 -0.1512
  962POPC   C4B13026   5.006   8.652   7.847  0.1261  0.0764  0.1962
  963POPC   NC313027   0.142   4.762   5.497 -0.0035 -0.0130  0.2816
  963POPC   PO413028  -0.289   4.577   5.487  0.0725  0.1101  0.0144
  963POPC   GL113029  -0.033   4.551   5.910  0.1023  0.2022 -0.0410
  963POPC   GL213030  -0.220   4.769   6.059  0.1585  0.1526 -0.0520
  963POPC   C1A13031   0.269   4.357   6.315  0.0976  0.2472  0.0194
  963POPC   D2A13032   0.240   3.946   6.487 -0.0886  0.2257 -0.1712
  963POPC   C3A13033   0.480   3.548   6.647 -0.0826 -0.1348 -0.0543
  963POPC   C4A13034   0.525   3.229   7.052 -0.0751 -0.1569  0.3177
  963POPC   C1B13035  -0.203   4.706   6.488 -0.2143 -0.2406  0.1519
  963POPC   C2B13036   0.049   4.647   6.793  0.1092 -0.0861 -0.0136
  963POPC   C3B13037   0.121   4.586   7.200  0.0928 -0.5437 -0.0772
  963POPC   C4B13038   0.283   4.412   7.622  0.3005 -0.1740 -0.0706
  964POPC   NC313039  14.952   2.796   6.124  0.1572  0.1936 -0.1032
  964POPC   PO413040  14.468   2.816   6.156 -0.1809  0.1577  0.1640
  964POPC   GL113041  14.198   2.611   6.376 -0.0635 -0.2370 -0.1349
  964POPC   GL213042  14.058   2.858   6.583  0.0875 -0.1290  0.1538
  964POPC   C1A13043  14.288   2.350   6.760 -0.4843 -0.4228  0.0450
  964POPC   D2A13044  14.243   2.464   7.161  0.1489  0.1453 -0.0462
  964POPC   C3A13045  13.967   2.300   7.437  0.0236  0.1188 -0.0755
  964POPC   C4A13046  13.575   2.217   7.464 -0.1018 -0.1422 -0.1467
  964POPC   C1B13047  14.196   2.974   7.001  0.1446 -0.2829 -0.1815
  964POPC   C2B13048  14.263   2.923   7.514  0.0565 -0.3905 -0.3319
  964POPC   C3B13049  13.893   3.130   7.819 -0.0496 -0.1510  0.0716
  964POPC   C4B13050  13.932   3.333   8.259  0.2696  0.0601  0.0209
  965POPC   NC313051   4.555  17.685   5.791  0.0122  0.0625  0.2261
  965POPC   PO413052   4.958  17.907   5.813  0.0235 -0.1694 -0.2477
  965POPC   GL113053   4.731  17.888   6.269 -0.0507  0.1924 -0.2664
  965POPC   GL213054   4.827  17.640   6.429 -0.2795  0.2226 -0.0781
  965POPC   C1A13055   4.409  17.985   6.415 -0.0290  0.0906  0.0918
  965POPC   D2A13056   4.142  18.074   6.689 -0.3272 -0.0071  0.1780
  965POPC   C3A13057   4.204  17.914   7.064  0.6518  0.1297  0.0421
  965POPC   C4A13058   4.377  18.175   7.401  0.1790 -0.0961 -0.2787
  965POPC   C1B13059   4.700  17.765   6.810 -0.2199  0.0706  0.0223
  965POPC   C2B13060   4.575  17.655   7.236  0.1397  0.3765  0.4520
  965POPC   C3B13061   4.535  17.599   7.562  0.1175  0.2903 -0.0218
  965POPC   C4B13062   4.311  17.439   7.898  0.1657 -0.0554  0.0785
  966POPC   NC313063  12.291   4.693   5.917 -0.3772 -0.1245  0.2203
  966POPC   PO413064  12.522   5.077   5.796  0.0139  0.2506 -0.0728
  966POPC   GL113065  12.447   5.039   6.303 -0.0285 -0.3294 -0.2074
  966POPC   GL213066  12.094   4.907   6.387 -0.2155  0.0996 -0.0939
  966POPC   C1A13067  12.409   4.781   6.715 -0.0330 -0.0883  0.1807
  966POPC   D2A13068  12.309   4.540   7.113  0.2114  0.1820 -0.0722
  966POPC   C3A13069  12.325   4.447   7.555 -0.1744 -0.1724 -0.1807
  966POPC   C4A13070  12.164   4.380   7.981 -0.1844 -0.0596  0.2006
  966POPC   C1B13071  11.842   4.759   6.676 -0.1990 -0.0653 -0.0158
  966POPC   C2B13072  11.704   4.513   7.007  0.0560 -0.0910  0.0585
  966POPC   C3B13073  11.657   4.494   7.403 -0.0855 -0.0498 -0.0665
  966POPC   C4B13074  11.667   4.428   7.854 -0.3846  0.2827 -0.0215
  967POPC   NC313075   4.742   9.008   5.774  0.1745  0.0299 -0.2097
  967POPC   PO413076   4.759   8.661   5.816 -0.0476 -0.0305 -0.0966
  967POPC   GL113077   4.518   8.435   6.190 -0.0727 -0.4201  0.2307
  967POPC   GL213078   4.586   8.145   6.259 -0.1120 -0.2292 -0.1874
  967POPC   C1A13079   4.357   8.273   6.670 -0.0358  0.2165 -0.0144
  967POPC   D2A13080   4.172   8.064   7.022  0.1891  0.0408  0.1564
  967POPC   C3A13081   4.274   7.872   7.335 -0.0435 -0.0560  0.0093
  967POPC   C4A13082   4.690   7.709   7.494 -0.3948 -0.3879  0.2327
  967POPC   C1B13083   4.809   8.452   6.542 -0.1234  0.0615 -0.0805
  967POPC   C2B13084   5.095   8.776   6.581 -0.0584  0.2215  0.4141
  967POPC   C3B13085   5.340   9.102   6.805  0.2574  0.1111 -0.0247
  967POPC   C4B13086   5.514   9.288   7.044 -0.2577 -0.2018 -0.0195
  968POPC   NC313087  14.218  18.044   6.057  0.1151 -0.4725 -0.3827
  968POPC   PO413088  14.449  17.798   5.799 -0.3636 -0.2619 -0.1200
  968POPC   GL113089  14.576  17.691   6.263 -0.2371  0.3116 -0.0512
  968POPC   GL213090  14.351  17.706   6.456 -0.1036 -0.3199 -0.0102
  968POPC   C1A13091  14.741  17.654   6.767  0.2204 -0.0123  0.2385
  968POPC   D2A13092  15.001  17.616   7.101  0.0265  0.2007  0.0356
  968POPC   C3A13093  14.967  17.570   7.595  0.0970 -0.0049  0.2503
  968POPC   C4A13094  14.943  17.615   7.979  0.3100 -0.0835 -0.1301
  968POPC   C1B13095  14.217  17.685   6.954  0.3432  0.0542 -0.4263
  968POPC   C2B13096  14.349  17.589   7.398 -0.3643  0.1578 -0.2661
  968POPC   C3B13097  14.530  17.853   7.736 -0.3219  0.1390 -0.3680
  968POPC   C4B13098  14.619  17.948   8.152 -0.3914  0.0500  0.2226
  969POPC   NC313099   3.711   4.751   5.826  0.2544 -0.1190  0.0092
  969POPC   PO413100   3.392   4.354   5.761  0.2139 -0.1914 -0.1647
  969POPC   GL113101   3.459   4.120   6.174 -0.0949  0.3024 -0.0327
  969POPC   GL213102   3.671   3.883   6.317  0.1235  0.2180 -0.0766
  969POPC   C1A13103   3.137   4.008   6.509 -0.1577  0.2482 -0.1598
  969POPC   D2A13104   3.070   4.367   6.699 -0.1133 -0.2809  0.1679
  969POPC   C3A13105   3.461   4.463   6.941  0.1042 -0.0069 -0.1568
  969POPC   C4A13106   3.845   4.720   6.847 -0.1547  0.0139 -0.0549
  969POPC   C1B13107   3.564   3.741   6.721 -0.1008  0.2267 -0.1203
  969POPC   C2B13108   3.333   3.912   7.001  0.0878 -0.0013  0.2730
  969POPC   C3B13109   2.920   4.045   7.106 -0.0188  0.1899  0.0069
  969POPC   C4B13110   2.681   4.078   6.827  0.1706 -0.0195  0.2808
  970POPC   NC313111   3.954  16.919   5.526 -0.0482  0.0413 -0.1976
  970POPC   PO413112   4.382  16.768   5.723  0.2946  0.0577  0.2065
  970POPC   GL113113   3.971  16.776   6.001  0.0726 -0.2155  0.3573
  970POPC   GL213114   3.898  17.153   6.009 -0.2948 -0.1119  0.1180
  970POPC   C1A13115   3.861  16.616   6.347  0.0107  0.1307  0.1150
  970POPC   D2A13116   3.911  16.566   6.761 -0.0570  0.3915  0.0622
  970POPC   C3A13117   3.577  16.645   7.074  0.0721 -0.2989 -0.0259
  970POPC   C4A13118   3.443  16.471   7.443 -0.1885 -0.1033  0.4714
  970POPC   C1B13119   3.856  17.115   6.413 -0.0921 -0.0406  0.2796
  970POPC   C2B13120   3.719  17.094   6.860 -0.3725  0.1651 -0.1069
  970POPC   C3B13121   3.739  17.093   7.332 -0.0256 -0.0286  0.0531
  970POPC   C4B13122   3.448  16.940   7.668 -0.1127 -0.1746  0.2117
  971POPC   NC313123  14.597   5.872   5.430 -0.1371  0.0339  0.1708
  971POPC   PO413124  14.688   5.607   5.751 -0.1048  0.1844 -0.1019
  971POPC   GL113125  14.625   5.566   6.187 -0.2595  0.2595  0.0835
  971POPC   GL213126  14.370   5.529   6.204 -0.1604 -0.3925  0.2079
  971POPC   C1A13127  14.677   5.252   6.486 -0.0348  0.1055  0.1110
  971POPC   D2A13128  14.833   5.208   6.933 -0.2067 -0.0644 -0.1092
  971POPC   C3A13129  14.642   5.501   7.145 -0.0349 -0.2425 -0.0619
  971POPC   C4A13130  14.364   5.763   7.348 -0.1362 -0.0764  0.0005
  971POPC   C1B13131  14.374   5.665   6.598 -0.0344 -0.0668 -0.0344
  971POPC   C2B13132  14.533   5.975   6.940 -0.0949 -0.2159 -0.2135
  971POPC   C3B13133  14.798   6.436   6.900 -0.0864 -0.0873 -0.2432
  971POPC   C4B13134  15.106   6.669   7.162 -0.2835 -0.0142 -0.0504
  972POPC   NC313135   6.002  10.835   5.050 -0.1626 -0.3990  0.3978
  972POPC   PO413136   6.203  10.479   5.136 -0.1814  0.1533  0.0056
  972POPC   GL113137   6.278  10.353   5.518  0.2284  0.1102  0.1337
  972POPC   GL213138   6.559  10.511   5.622  0.1804  0.1645 -0.1608
  972POPC   C1A13139   6.197  10.329   6.000  0.1298  0.0793 -0.1883
  972POPC   D2A13140   5.965  10.237   6.493  0.3395  0.1301 -0.0964
  972POPC   C3A13141   6.127  10.351   6.870  0.0385  0.4422 -0.0223
  972POPC   C4A13142   6.372  10.358   7.206 -0.2287 -0.1717 -0.0929
  972POPC   C1B13143   6.552  10.703   6.023 -0.0004 -0.0943 -0.0898
  972POPC   C2B13144   6.762  10.912   6.407 -0.2822 -0.0469  0.1080
  972POPC   C3B13145   6.689  11.184   6.736 -0.0680 -0.0712 -0.0365
  972POPC   C4B13146   6.754  11.618   6.905 -0.0329  0.1145  0.1467
  973POPC   NC313147  13.059  12.679   5.793 -0.0912  0.1367  0.2440
  973POPC   PO413148  13.004  13.062   5.741  0.1071  0.1049 -0.0676
  973POPC   GL113149  12.870  13.035   6.123 -0.1214  0.1636  0.3338
  973POPC   GL213150  13.063  12.772   6.265 -0.1357  0.0140  0.0233
  973POPC   C1A13151  12.754  13.127   6.516  0.0723 -0.2401 -0.7058
  973POPC   D2A13152  12.480  12.950   6.847  0.2408 -0.0411  0.0569
  973POPC   C3A13153  12.455  13.054   7.257  0.1339  0.1313  0.2539
  973POPC   C4A13154  12.278  12.871   7.554 -0.1039 -0.1677  0.1332
  973POPC   C1B13155  12.747  12.655   6.560  0.0230 -0.0740 -0.1512
  973POPC   C2B13156  12.519  12.411   6.868 -0.0327 -0.0709  0.1721
  973POPC   C3B13157  12.285  12.475   7.308  0.2097  0.2385  0.0040
  973POPC   C4B13158  12.310  12.454   7.861 -0.0804  0.1252 -0.0009
  974POPC   NC313159   8.297   3.402   6.239 -0.0947 -0.0648 -0.0547
  974POPC   PO413160   7.988   3.704   6.382  0.3178 -0.1006  0.0500
  974POPC   GL113161   8.049   3.653   6.796 -0.1097 -0.3028 -0.2983
  974POPC   GL213162   8.120   3.248   6.717  0.3572  0.0808 -0.1164
  974POPC   C1A13163   8.208   3.689   7.194  0.0176  0.0638  0.0924
  974POPC   D2A13164   8.288   3.832   7.569 -0.1452  0.0676 -0.0850
  974POPC   C3A13165   8.148   3.959   7.990 -0.1529  0.0100 -0.0634
  974POPC   C4A13166   8.032   4.184   8.243 -0.1224 -0.1756 -0.0998
  974POPC   C1B13167   8.370   3.202   7.033  0.3662  0.1615  0.2062
  974POPC   C2B13168   8.258   3.089   7.352  0.1842  0.0565 -0.3331
  974POPC   C3B13169   8.087   2.902   7.655  0.0208  0.3512  0.3115
  974POPC   C4B13170   7.931   2.519   7.849 -0.0264 -0.4825  0.1925
  975POPC   NC313171   8.842  17.274   5.220 -0.1230 -0.0112 -0.2996
  975POPC   PO413172   8.766  16.951   5.560 -0.0382  0.1953 -0.0950
  975POPC   GL113173   8.829  16.806   6.030 -0.2731  0.0722  0.2203
  975POPC   GL213174   9.001  16.943   6.382 -0.0044  0.0081  0.0997
  975POPC   C1A13175   8.559  16.695   6.415 -0.0061 -0.0158  0.1638
  975POPC   D2A13176   8.479  16.605   6.896  0.2115 -0.0117 -0.0996
  975POPC   C3A13177   8.756  16.489   7.117  0.1333 -0.0559  0.0794
  975POPC   C4A13178   8.991  16.576   7.540  0.1065  0.0873  0.0012
  975POPC   C1B13179   9.051  16.616   6.717  0.0114  0.0627 -0.1539
  975POPC   C2B13180   9.231  16.317   6.982 -0.0276 -0.2044 -0.1663
  975POPC   C3B13181   9.130  16.001   7.327  0.2155 -0.0699 -0.0844
  975POPC   C4B13182   8.937  16.105   7.685  0.0735 -0.0549 -0.1914
  976POPC   NC313183   6.109   0.203   5.717  0.0720  0.3535 -0.2791
  976POPC   PO413184   6.098   0.683   5.777  0.0833  0.0834  0.0123
  976POPC   GL113185   5.742   0.564   6.053  0.1705  0.3492 -0.0157
  976POPC   GL213186   5.925   0.477   6.339  0.2226 -0.1633 -0.3107
  976POPC   C1A13187   5.399   0.360   6.284  0.1994 -0.3172 -0.2033
  976POPC   D2A13188   5.298   0.250   6.639  0.0140  0.0731  0.1913
  976POPC   C3A13189   5.623   0.297   6.867 -0.2573  0.1103  0.0377
  976POPC   C4A13190   5.613   0.174   7.261  0.0730  0.3057 -0.2098
  976POPC   C1B13191   6.097   0.328   6.688  0.2503 -0.2526  0.0685
  976POPC   C2B13192   6.234   0.279   7.019 -0.1511 -0.2389 -0.0905
  976POPC   C3B13193   6.049   0.444   7.387 -0.1140  0.1156 -0.0056
  976POPC   C4B13194   6.230   0.392   7.826 -0.6209  0.1676  0.0803
  977POPC   NC313195  18.155  15.522   5.599  0.2842 -0.0696  0.0624
  977POPC   PO413196  18.114  15.802   5.882 -0.3288 -0.0598 -0.0423
  977POPC   GL113197  18.239  15.657   6.262  0.0555  0.4580  0.0916
  977POPC   GL213198  18.203  15.277   6.178  0.0430 -0.0820 -0.1659
  977POPC   C1A13199  18.251  15.592   6.693  0.2446 -0.1893  0.1408
  977POPC   D2A13200  18.246  15.544   7.121  0.2280  0.2777  0.1654
  977POPC   C3A13201  18.589  15.492   7.278  0.1722  0.1105  0.0959
  977POPC   C4A13202  18.926  15.769   7.389  0.1261 -0.0168 -0.0718
  977POPC   C1B13203  18.429  15.084   6.464  0.1576  0.0067  0.1290
  977POPC   C2B13204  18.339  15.099   6.920  0.1462  0.0270 -0.1134
  977POPC   C3B13205  18.238  15.068   7.419 -0.1400  0.0292  0.2836
  977POPC   C4B13206  18.503  15.096   7.762 -0.0991  0.2683 -0.0392
  978POPC   NC313207   4.861  16.539   5.732 -0.1278  0.1058 -0.2618
  978POPC   PO413208   5.159  16.726   5.783  0.0100  0.1501 -0.0245
  978POPC   GL113209   4.993  16.642   6.181 -0.2422 -0.4561  0.0638
  978POPC   GL213210   4.777  16.869   6.200  0.0499 -0.0703 -0.1084
  978POPC   C1A13211   5.041  16.721   6.606 -0.1942  0.0216 -0.1869
  978POPC   D2A13212   5.054  16.814   6.977 -0.1755  0.1434  0.0248
  978POPC   C3A13213   5.388  17.138   7.088 -0.2535 -0.0492 -0.2104
  978POPC   C4A13214   5.485  17.287   7.449 -0.2722  0.0120 -0.0613
  978POPC   C1B13215   4.729  17.084   6.607 -0.2486 -0.1275 -0.0967
  978POPC   C2B13216   4.707  17.219   7.060 -0.1228  0.0231  0.0723
  978POPC   C3B13217   4.904  17.046   7.396  0.3030 -0.0980 -0.1229
  978POPC   C4B13218   5.171  16.917   7.648 -0.1504  0.2099  0.0592
  979POPC   NC313219  13.418   8.802   5.876 -0.0646  0.0286 -0.4095
  979POPC   PO413220  13.152   8.558   6.191  0.0860 -0.2301  0.0467
  979POPC   GL113221  13.414   8.523   6.481 -0.0883  0.2267  0.0231
  979POPC   GL213222  13.589   8.341   6.231 -0.2488 -0.0500 -0.1152
  979POPC   C1A13223  13.464   8.535   6.919 -0.0893 -0.0716  0.0321
  979POPC   D2A13224  13.428   8.559   7.313  0.2587  0.2257  0.1287
  979POPC   C3A13225  13.069   8.472   7.672 -0.1179  0.1106  0.0716
  979POPC   C4A13226  12.652   8.314   7.473  0.2319 -0.1908  0.1322
  979POPC   C1B13227  13.633   8.094   6.657 -0.1147  0.1595  0.2200
  979POPC   C2B13228  13.487   8.036   6.994 -0.3261 -0.1050 -0.1030
  979POPC   C3B13229  13.531   7.743   7.250 -0.0159  0.0080  0.1302
  979POPC   C4B13230  13.944   7.568   7.396  0.0259 -0.1996 -0.0988
  980POPC   NC313231  16.886   9.339   5.927 -0.1464  0.1570  0.3360
  980POPC   PO413232  16.369   9.292   5.860 -0.0999 -0.0025  0.4687
  980POPC   GL113233  16.224   9.650   6.055  0.2048 -0.0594 -0.0348
  980POPC   GL213234  16.471   9.885   6.030 -0.1336 -0.0479 -0.0469
  980POPC   C1A13235  16.266   9.636   6.495  0.0043 -0.2018 -0.0512
  980POPC   D2A13236  16.011   9.489   6.883 -0.1387  0.1643 -0.1921
  980POPC   C3A13237  15.921   9.038   7.076  0.0260  0.1381 -0.0938
  980POPC   C4A13238  15.765   8.596   7.004 -0.2143  0.2172  0.0334
  980POPC   C1B13239  16.622   9.980   6.394 -0.3523  0.2290  0.0635
  980POPC   C2B13240  16.500   9.890   6.897  0.2636  0.5481  0.0611
  980POPC   C3B13241  16.638   9.902   7.246  0.1825  0.0684  0.1324
  980POPC   C4B13242  16.827  10.031   7.646  0.2787 -0.1897 -0.1735
  981POPC   NC313243  13.619   0.474   5.977  0.0197  0.0179 -0.3897
  981POPC   PO413244  13.805  -0.008   6.109 -0.3098 -0.2228 -0.2917
  981POPC   GL113245  13.625  -0.043   6.510 -0.2194  0.1991 -0.1270
  981POPC   GL213246  13.302  -0.023   6.592 -0.3021 -0.0745 -0.2233
  981POPC   C1A13247  13.751   0.068   6.881 -0.0226  0.0970 -0.1319
  981POPC   D2A13248  14.175   0.216   7.047  0.0356 -0.0932 -0.0979
  981POPC   C3A13249  14.194   0.323   7.441  0.1013  0.1480  0.1893
  981POPC   C4A13250  14.321   0.527   7.893  0.2217  0.0824 -0.4494
  981POPC   C1B13251  13.243   0.048   7.065 -0.2866 -0.2112 -0.3235
  981POPC   C2B13252  13.163  -0.017   7.478 -0.1789 -0.0724 -0.1225
  981POPC   C3B13253  13.395   0.179   7.791  0.0478  0.2967 -0.0475
  981POPC   C4B13254  13.481   0.314   8.061  0.1366  0.0406  0.0829
  982YOPC   NC313255   8.268  10.214   5.837 -0.1198 -0.1203 -0.0231
  982YOPC   PO413256   7.863  10.159   5.512 -0.2810 -0.1131 -0.3216
  982YOPC   GL113257   7.799  10.199   6.017 -0.2264 -0.1820 -0.2352
  982YOPC   GL213258   8.025   9.941   6.170  0.1240 -0.1264 -0.3813
  982YOPC   C1A13259   7.910  10.392   6.353  0.1594  0.0093  0.0978
  982YOPC   D2A13260   8.200  10.588   6.633  0.0804 -0.3136 -0.0905
  982YOPC   C3A13261   8.226  10.539   7.034 -0.1169 -0.2527 -0.1984
  982YOPC   C4A13262   8.138  10.233   7.439 -0.0849  0.2575 -0.1150
  982YOPC   C1B13263   8.308   9.794   6.390 -0.1318  0.1790 -0.0469
  982YOPC   C2B13264   8.517   9.737   6.775 -0.1162 -0.1744  0.1773
  982YOPC   D3B13265   8.492  10.022   7.074  0.0868  0.1031  0.1369
  982YOPC   C4B13266   8.636  10.361   7.288  0.1776  0.1270  0.3380
  983YOPC   NC313267   2.917   5.470   6.051  0.0940  0.0114 -0.1050
  983YOPC   PO413268   3.001   5.049   6.031 -0.1403 -0.0857  0.1365
  983YOPC   GL113269   3.042   5.074   6.423  0.1273 -0.1300  0.2489
  983YOPC   GL213270   3.300   5.291   6.520  0.2434 -0.0377  0.0656
  983YOPC   C1A13271   2.970   4.903   6.792 -0.0030  0.1791  0.0046
  983YOPC   D2A13272   2.929   4.638   7.060  0.0295 -0.2427 -0.0493
  983YOPC   C3A13273   3.178   4.740   7.272  0.2087 -0.1019 -0.0923
  983YOPC   C4A13274   3.126   4.719   7.666 -0.1415  0.1393 -0.3954
  983YOPC   C1B13275   3.416   5.037   6.911 -0.0229 -0.0507  0.0894
  983YOPC   C2B13276   3.422   5.194   7.292  0.1195  0.1636 -0.0611
  983YOPC   D3B13277   3.597   5.072   7.636  0.0931 -0.1843 -0.4619
  983YOPC   C4B13278   3.846   5.362   7.926 -0.1824  0.0320 -0.1768
  984YOPC   NC313279   8.505  16.535   5.302 -0.0057 -0.2420  0.0657
  984YOPC   PO413280   8.476  16.099   5.363  0.0767 -0.0028  0.1148
  984YOPC   GL113281   8.660  16.060   5.753  0.0903  0.1080 -0.0924
  984YOPC   GL213282   9.019  15.937   5.885  0.0533  0.0965  0.0538
  984YOPC   C1A13283   8.543  15.784   6.123 -0.0290 -0.2164 -0.0944
  984YOPC   D2A13284   8.466  15.774   6.556  0.1305  0.0893 -0.0386
  984YOPC   C3A13285   8.168  15.466   6.655 -0.2417  0.3229  0.0963
  984YOPC   C4A13286   8.079  15.283   7.166  0.1410 -0.3109 -0.0738
  984YOPC   C1B13287   8.947  15.999   6.362 -0.1639 -0.0704 -0.0341
  984YOPC   C2B13288   8.948  16.094   6.678  0.2512  0.2063 -0.0462
  984YOPC   D3B13289   8.727  15.930   6.975  0.0523 -0.0663  0.0755
  984YOPC   C4B13290   8.576  16.066   7.278 -0.1096 -0.3081  0.1701
  985YOPC   NC313291  16.598  14.864   5.996 -0.3121 -0.4039 -0.2338
  985YOPC   PO413292  16.292  15.126   5.898 -0.1301 -0.0852 -0.1550
  985YOPC   GL113293  16.183  15.219   6.242  0.1743  0.1957 -0.1449
  985YOPC   GL213294  15.923  15.286   6.419  0.1668  0.0568 -0.2921
  985YOPC   C1A13295  16.376  15.282   6.600 -0.1791  0.0665 -0.0344
  985YOPC   D2A13296  16.660  15.021   6.685  0.0438  0.0336  0.0411
  985YOPC   C3A13297  16.493  14.554   6.732 -0.0567 -0.0237  0.1163
  985YOPC   C4A13298  16.638  14.132   6.884 -0.0593  0.0980 -0.1470
  985YOPC   C1B13299  15.732  15.408   6.698  0.0361 -0.4381 -0.0659
  985YOPC   C2B13300  15.525  15.589   7.061 -0.0157 -0.0831  0.0817
  985YOPC   D3B13301  15.625  15.435   7.475 -0.0024 -0.1353 -0.1095
  985YOPC   C4B13302  15.860  15.298   7.908  0.0940 -0.3065 -0.0184
  986YOPC   NC313303   8.546   7.449   5.843  0.0093  0.3568  0.0795
  986YOPC   PO413304   8.902   7.803   5.852 -0.0580  0.0519 -0.1867
  986YOPC   GL113305   8.853   7.671   6.236  0.0589  0.1949  0.0380
  986YOPC   GL213306   8.607   7.360   6.320  0.1249 -0.1073 -0.2023
  986YOPC   C1A13307   8.967   7.597   6.686 -0.1152 -0.1384 -0.1467
  986YOPC   D2A13308   9.061   7.346   7.120 -0.0157 -0.2269 -0.0450
  986YOPC   C3A13309   9.361   7.467   7.410  0.4642  0.0310  0.2147
  986YOPC   C4A13310   9.501   7.853   7.665  0.0369  0.0903 -0.1804
  986YOPC   C1B13311   8.523   7.426   6.747  0.3146 -0.1097  0.0597
  986YOPC   C2B13312   8.702   7.632   7.197  0.2509 -0.1741  0.2319
  986YOPC   D3B13313   8.514   7.759   7.526 -0.1082 -0.0924  0.0035
  986YOPC   C4B13314   8.294   7.604   7.869  0.1530 -0.0413  0.2231
  987YOPC   NC313315   4.309   4.776   5.957 -0.0268 -0.0102 -0.2267
  987YOPC   PO413316   4.687   4.834   5.979 -0.2838  0.0020  0.0074
  987YOPC   GL113317   4.834   4.588   6.268  0.0107  0.3880  0.1277
  987YOPC   GL213318   5.134   4.529   6.315  0.6544 -0.2818 -0.3348
  987YOPC   C1A13319   4.793   4.524   6.695  0.1261 -0.0705 -0.2019
  987YOPC   D2A13320   4.621   4.507   7.131  0.1419 -0.0144  0.0124
  987YOPC   C3A13321   4.564   4.161   7.517 -0.1457 -0.0861 -0.0230
  987YOPC   C4A13322   4.568   3.804   7.850 -0.2008 -0.0467  0.0865
  987YOPC   C1B13323   5.095   4.935   6.582  0.1848  0.1496 -0.0513
  987YOPC   C2B13324   4.990   5.035   6.908 -0.0405 -0.1788  0.3676
  987YOPC   D3B13325   4.962   5.483   6.965 -0.4089  0.0048 -0.1570
  987YOPC   C4B13326   4.621   5.514   7.278  0.0977 -0.0786 -0.2197
  988YOPC   NC313327   3.856  13.751   5.720  0.2562 -0.1173  0.2493
  988YOPC   PO413328   3.785  13.375   5.586 -0.0073  0.0535 -0.0206
  988YOPC   GL113329   3.942  13.218   5.948  0.1386 -0.0515 -0.2759
  988YOPC   GL213330   4.224  13.387   5.982 -0.0580  0.1048 -0.0659
  988YOPC   C1A13331   3.962  13.194   6.367  0.0533  0.0015  0.0334
  988YOPC   D2A13332   4.094  13.110   6.702 -0.2916 -0.0235  0.0860
  988YOPC   C3A13333   4.053  12.739   6.875  0.1162  0.1549  0.0444
  988YOPC   C4A13334   3.796  12.550   7.316  0.0879 -0.0668 -0.0446
  988YOPC   C1B13335   4.486  13.290   6.423 -0.4632  0.0679 -0.1421
  988YOPC   C2B13336   4.580  13.455   6.855  0.0305 -0.1578 -0.0946
  988YOPC   D3B13337   4.806  13.338   7.077  0.0561  0.1745 -0.1469
  988YOPC   C4B13338   5.207  13.517   7.195 -0.2296 -0.0124  0.0982
  989YOPC   NC313339   8.610   0.476   5.750 -0.0312 -0.3242 -0.2285
  989YOPC   PO413340   8.569  -0.013   5.871  0.3970  0.0842  0.4779
  989YOPC   GL113341   8.393  -0.202   6.313  0.2805 -0.0624  0.2212
  989YOPC   GL213342   8.174  -0.380   6.308  0.0346  0.1584 -0.2037
  989YOPC   C1A13343   8.426  -0.198   6.746  0.1447  0.0836 -0.1448
  989YOPC   D2A13344   8.284  -0.117   7.121  0.2014 -0.2136  0.2314
  989YOPC   C3A13345   7.943  -0.295   7.306  0.1480  0.1164 -0.0185
  989YOPC   C4A13346   7.827  -0.573   7.681  0.1521 -0.0189  0.2553
  989YOPC   C1B13347   8.379  -0.743   6.558 -0.0982 -0.1395 -0.2163
  989YOPC   C2B13348   8.728  -0.925   6.722 -0.0692  0.1186 -0.3220
  989YOPC   D3B13349   8.814  -1.276   6.825 -0.3924  0.0678  0.0363
  989YOPC   C4B13350   9.041  -1.334   7.168 -0.0578 -0.2116 -0.1163
  990YOPC   NC313351  12.730   7.725   5.726 -0.1234 -0.0957 -0.1860
  990YOPC   PO413352  12.982   7.749   5.987  0.0722  0.0988 -0.0337
  990YOPC   GL113353  12.976   7.749   6.392  0.0862 -0.0072 -0.0453
  990YOPC   GL213354  13.108   8.044   6.410 -0.0628  0.0445 -0.0549
  990YOPC   C1A13355  12.756   7.581   6.706  0.1913  0.0528  0.0350
  990YOPC   D2A13356  12.562   7.386   7.052  0.0667  0.0773 -0.0351
  990YOPC   C3A13357  12.647   7.480   7.459 -0.2947 -0.0896  0.2021
  990YOPC   C4A13358  12.886   7.626   7.774 -0.0505 -0.2547 -0.4421
  990YOPC   C1B13359  13.031   8.009   6.796 -0.0724 -0.1974  0.1372
  990YOPC   C2B13360  13.073   8.238   7.151  0.0985  0.0540  0.1414
  990YOPC   D3B13361  13.187   8.027   7.494 -0.1616 -0.0560 -0.1518
  990YOPC   C4B13362  12.895   8.092   7.940 -0.0282 -0.0143 -0.0481
  991YOPC   NC313363   3.381   3.822   5.705  0.1075 -0.0038  0.3610
  991YOPC   PO413364   2.854   3.711   5.859  0.0009 -0.1724 -0.0892
  991YOPC   GL113365   2.786   3.699   6.313 -0.1438  0.1626  0.0628
  991YOPC   GL213366   2.506   3.759   6.243  0.1630  0.0748 -0.0196
  991YOPC   C1A13367   2.939   3.623   6.707  0.0433  0.0108 -0.2480
  991YOPC   D2A13368   3.069   3.513   7.089  0.1538  0.0178 -0.1686
  991YOPC   C3A13369   3.072   3.736   7.400  0.0568  0.1013 -0.0781
  991YOPC   C4A13370   3.401   4.214   7.416  0.3485 -0.2366 -0.3943
  991YOPC   C1B13371   2.184   4.133   6.493  0.1413 -0.0723 -0.2658
  991YOPC   C2B13372   1.744   4.221   6.518  0.5790  0.1029  0.1886
  991YOPC   D3B13373   1.631   4.620   6.565 -0.0647  0.0134  0.2317
  991YOPC   C4B13374   1.421   5.014   6.675 -0.1725 -0.3948  0.1309
  992YOPC   NC313375   6.886   8.732   5.581  0.0847  0.3691  0.1650
  992YOPC   PO413376   6.889   9.089   5.854  0.0908  0.0108  0.1311
  992YOPC   GL113377   6.964   9.007   6.346 -0.0590 -0.0164  0.1397
  992YOPC   GL213378   6.989   8.713   6.563  0.1347 -0.1106 -0.0724
  992YOPC   C1A13379   7.002   9.187   6.736  0.0347 -0.1478 -0.1991
  992YOPC   D2A13380   7.041   9.351   7.222 -0.1494  0.1285 -0.0594
  992YOPC   C3A13381   7.310   9.106   7.557 -0.1519 -0.0373 -0.2037
  992YOPC   C4A13382   7.745   8.975   7.865  0.0721 -0.0240 -0.0167
  992YOPC   C1B13383   6.609   8.470   6.820 -0.3264  0.0608 -0.1545
  992YOPC   C2B13384   6.650   8.161   7.117 -0.0570  0.1693 -0.0340
  992YOPC   D3B13385   6.562   8.206   7.559 -0.1628  0.0730  0.1260
  992YOPC   C4B13386   6.833   8.386   7.829  0.1139  0.2662 -0.3880
  993YOPC   NC313387  12.349  15.570   5.986 -0.0589  0.1792 -0.3736
  993YOPC   PO413388  12.474  15.850   5.687  0.0405  0.0071  0.0315
  993YOPC   GL113389  12.709  15.927   6.059 -0.3380  0.1778  0.0645
  993YOPC   GL213390  12.407  15.980   6.340 -0.0893 -0.1051 -0.0015
  993YOPC   C1A13391  12.912  15.967   6.490  0.2431  0.0597  0.1920
  993YOPC   D2A13392  13.071  15.937   6.860  0.0658 -0.1761 -0.0046
  993YOPC   C3A13393  13.029  16.283   7.227 -0.2029  0.2886  0.2184
  993YOPC   C4A13394  12.846  16.472   7.579 -0.0119  0.0064 -0.0028
  993YOPC   C1B13395  12.499  15.666   6.597  0.2183  0.0742 -0.1453
  993YOPC   C2B13396  12.657  15.615   6.900 -0.1427  0.1176  0.2614
  993YOPC   D3B13397  12.459  15.539   7.314 -0.0878  0.0669 -0.1041
  993YOPC   C4B13398  12.309  15.407   7.715  0.0177  0.1201 -0.1056
  994YOPC   NC313399   5.378   6.108   5.774  0.0487  0.1179 -0.4088
  994YOPC   PO413400   5.832   5.905   5.842  0.1276 -0.0219  0.2220
  994YOPC   GL113401   5.802   6.280   6.141 -0.0343  0.0590 -0.0811
  994YOPC   GL213402   5.590   6.342   6.177 -0.0140  0.2854  0.2289
  994YOPC   C1A13403   5.918   6.302   6.629  0.1620 -0.1969 -0.0986
  994YOPC   D2A13404   6.065   6.276   7.069 -0.3013 -0.2315 -0.1737
  994YOPC   C3A13405   6.420   6.394   7.330  0.1932  0.0539  0.1598
  994YOPC   C4A13406   6.552   6.310   7.689 -0.0891 -0.0361  0.2090
  994YOPC   C1B13407   5.463   6.569   6.511 -0.1122  0.4518  0.0399
  994YOPC   C2B13408   5.121   6.525   6.640  0.1202  0.1788  0.0706
  994YOPC   D3B13409   4.757   6.622   6.872 -0.1686 -0.0292  0.1456
  994YOPC   C4B13410   4.370   6.637   7.054 -0.0717 -0.1092 -0.4935
  995YOPC   NC313411  17.059   1.504   5.697  0.1066  0.0596 -0.0209
  995YOPC   PO413412  16.732   1.630   5.827 -0.1512 -0.0230  0.3912
  995YOPC   GL113413  16.777   1.636   6.245 -0.1691  0.0713 -0.3044
  995YOPC   GL213414  17.091   1.518   6.226 -0.1589  0.0187  0.0571
  995YOPC   C1A13415  16.688   1.976   6.530  0.1569  0.3087  0.3707
  995YOPC   D2A13416  16.419   2.229   6.768 -0.0376  0.3481 -0.0449
  995YOPC   C3A13417  16.577   2.452   7.066 -0.2089 -0.0621 -0.0722
  995YOPC   C4A13418  16.514   2.473   7.469 -0.2199  0.2220 -0.3847
  995YOPC   C1B13419  17.056   1.519   6.707 -0.0111 -0.1900 -0.1094
  995YOPC   C2B13420  17.053   1.424   7.140 -0.1572  0.0512  0.0288
  995YOPC   D3B13421  16.772   1.551   7.327 -0.2419 -0.0483 -0.1212
  995YOPC   C4B13422  16.440   1.674   7.588 -0.0406  0.1425  0.4177
  996YOPC   NC313423  17.274  11.355   5.109  0.0394 -0.0217 -0.1008
  996YOPC   PO413424  17.088  11.294   5.589 -0.3608 -0.1639  0.0409
  996YOPC   GL113425  16.896  11.208   6.097 -0.1787 -0.2821  0.1609
  996YOPC   GL213426  16.882  10.866   6.095  0.0202 -0.1798 -0.0532
  996YOPC   C1A13427  16.673  11.213   6.503 -0.2016 -0.0487  0.2429
  996YOPC   D2A13428  16.860  11.117   6.890  0.2270  0.1373  0.1206
  996YOPC   C3A13429  16.852  10.958   7.371  0.0946 -0.0249  0.1288
  996YOPC   C4A13430  17.169  10.890   7.693 -0.0887 -0.1378  0.1901
  996YOPC   C1B13431  16.736  10.728   6.494  0.2264 -0.2129  0.0026
  996YOPC   C2B13432  16.564  10.712   6.986 -0.1585  0.0887 -0.1195
  996YOPC   D3B13433  16.780  10.428   7.263 -0.1153  0.0549  0.1559
  996YOPC   C4B13434  17.044  10.440   7.605 -0.3301  0.2579  0.3645
  997YOPC   NC313435  16.986   4.146   5.394 -0.0672  0.0477  0.2024
  997YOPC   PO413436  16.860   3.750   5.607 -0.0780  0.0728 -0.0635
  997YOPC   GL113437  17.019   4.007   5.951 -0.0919 -0.1564  0.0508
  997YOPC   GL213438  17.119   4.296   6.081 -0.0104 -0.0099 -0.1816
  997YOPC   C1A13439  17.126   3.916   6.360  0.0893 -0.0199  0.0453
  997YOPC   D2A13440  17.342   3.794   6.751 -0.2502  0.0486  0.0547
  997YOPC   C3A13441  17.310   3.805   7.120 -0.2517 -0.1372  0.2396
  997YOPC   C4A13442  17.394   3.583   7.546  0.0921  0.1570 -0.3483
  997YOPC   C1B13443  17.130   4.469   6.459  0.1206  0.0458  0.1166
  997YOPC   C2B13444  17.078   4.706   6.821 -0.0405  0.0192 -0.0170
  997YOPC   D3B13445  17.047   4.589   7.269  0.1708  0.2196  0.1025
  997YOPC   C4B13446  17.210   4.192   7.520  0.3068  0.1214 -0.1200
  998YOPC   NC313447   3.656  10.108   5.999 -0.3168 -0.0797  0.0398
  998YOPC   PO413448   3.823   9.883   5.556 -0.0328 -0.3349  0.2584
  998YOPC   GL113449   4.056   9.736   5.927 -0.3808  0.0251 -0.1711
  998YOPC   GL213450   4.167  10.071   6.153  0.3941 -0.0301 -0.1650
  998YOPC   C1A13451   4.009   9.555   6.309 -0.0898  0.0771  0.3281
  998YOPC   D2A13452   4.072   9.676   6.757 -0.0135  0.1346  0.1358
  998YOPC   C3A13453   4.083   9.397   7.162  0.3141  0.2953 -0.0052
  998YOPC   C4A13454   4.154   9.274   7.569 -0.0887 -0.0274  0.0940
  998YOPC   C1B13455   4.039  10.326   6.492 -0.0430 -0.1599  0.1830
  998YOPC   C2B13456   3.887  10.581   6.788 -0.1494  0.1509  0.1220
  998YOPC   D3B13457   3.536  10.508   7.044 -0.3521  0.1148  0.1457
  998YOPC   C4B13458   3.109  10.474   7.103  0.1042  0.1165  0.1376
  999YOPC   NC313459  10.887   2.770   5.702 -0.0719 -0.5016  0.0181
  999YOPC   PO413460  10.380   2.726   5.793  0.3432  0.2992 -0.0449
  999YOPC   GL113461  10.322   2.842   6.173  0.0355  0.3439  0.2336
  999YOPC   GL213462  10.203   3.173   6.177  0.3535  0.1908 -0.1677
  999YOPC   C1A13463  10.327   2.970   6.643  0.2514 -0.1376 -0.0577
  999YOPC   D2A13464  10.269   2.860   7.031  0.0469  0.1988  0.0826
  999YOPC   C3A13465  10.487   2.817   7.390  0.1700  0.0023 -0.1182
  999YOPC   C4A13466  10.957   2.715   7.537  0.1444  0.1192 -0.2249
  999YOPC   C1B13467  10.017   3.506   6.446 -0.0691 -0.0284  0.0199
  999YOPC   C2B13468   9.988   3.955   6.614  0.1456  0.3466 -0.0913
  999YOPC   D3B13469  10.192   4.083   6.992  0.0009  0.0914 -0.4441
  999YOPC   C4B13470  10.213   4.411   7.440  0.1767 -0.2967 -0.2655
 1000YOPC   NC313471  10.555  17.114   6.109 -0.1126 -0.0890  0.0979
 1000YOPC   PO413472  10.375  16.754   6.025 -0.1765  0.1458  0.1164
 1000YOPC   GL113473  10.549  16.766   6.452 -0.2114  0.1129 -0.0382
 1000YOPC   GL213474  10.655  16.516   6.700  0.1772  0.0412  0.2561
 1000YOPC   C1A13475  10.363  16.901   6.879 -0.1314 -0.1616  0.0150
 1000YOPC   D2A13476  10.378  17.039   7.300 -0.5310 -0.0177  0.0217
 1000YOPC   C3A13477  10.494  17.168   7.739  0.0730  0.0625 -0.0930
 1000YOPC   C4A13478  10.834  17.422   7.958 -0.2712 -0.0079 -0.3508
 1000YOPC   C1B13479  10.991  16.259   7.120  0.0823  0.1472  0.1558
 1000YOPC   C2B13480  10.898  16.317   7.547 -0.1270 -0.0964 -0.1991
 1000YOPC   D3B13481  10.423  16.189   7.426 -0.1578 -0.0463  0.1635
 1000YOPC   C4B13482  10.007  15.989   7.371 -0.1063  0.1043 -0.0327
 1001YOPC   NC313483  13.550  12.768   5.936 -0.0249  0.1501  0.1264
 1001YOPC   PO413484  13.796  12.614   6.020 -0.4937  0.1429 -0.0531
 1001YOPC   GL113485  13.730  12.496   6.402 -0.2031  0.2827  0.0154
 1001YOPC   GL213486  13.425  12.470   6.385  0.3737  0.0435 -0.2848
 1001YOPC   C1A13487  13.751  12.566   6.863  0.2157 -0.0343  0.1305
 1001YOPC   D2A13488  13.801  12.539   7.304 -0.1045 -0.1458  0.1333
 1001YOPC   C3A13489  13.682  12.745   7.634  0.3186  0.1267 -0.0197
 1001YOPC   C4A13490  13.531  13.025   7.978 -0.0828 -0.0662 -0.3030
 1001YOPC   C1B13491  13.194  12.554   6.753  0.1797 -0.0837  0.0366
 1001YOPC   C2B13492  13.266  12.594   7.185  0.0189  0.1357 -0.0600
 1001YOPC   D3B13493  13.015  13.020   7.425 -0.1119 -0.2074 -0.0201
 1001YOPC   C4B13494  12.634  13.231   7.628 -0.2859 -0.3506 -0.0937
 1002YOPC   NC313495  12.917   8.931   5.895  0.0129  0.0188 -0.2455
 1002YOPC   PO413496  12.723   9.333   5.812  0.0264  0.0534 -0.1278
 1002YOPC   GL113497  12.933   9.562   6.261  0.2184  0.4828 -0.2020
 1002YOPC   GL213498  12.748   9.707   6.410 -0.1622 -0.2050  0.1582
 1002YOPC   C1A13499  13.157   9.833   6.651  0.2558 -0.0225 -0.0728
 1002YOPC   D2A13500  13.057   9.931   7.074  0.0350 -0.0321 -0.0584
 1002YOPC   C3A13501  13.103   9.813   7.521 -0.1294 -0.1799 -0.4274
 1002YOPC   C4A13502  13.041   9.747   7.997  0.1190  0.0230 -0.0880
 1002YOPC   C1B13503  12.675   9.660   6.851  0.0740  0.0933 -0.2799
 1002YOPC   C2B13504  12.623   9.662   7.348 -0.1642  0.1303  0.2670
 1002YOPC   D3B13505  12.678   9.999   7.610  0.0315  0.0725 -0.2104
 1002YOPC   C4B13506  12.969  10.288   7.931  0.0982 -0.0607 -0.5103
 1003YOPC   NC313507   9.656  16.671   5.525  0.0062 -0.1100 -0.1283
 1003YOPC   PO413508   9.306  16.773   5.796  0.3194  0.1994  0.0709
 1003YOPC   GL113509   9.389  16.729   6.183 -0.0935 -0.2708  0.1477
 1003YOPC   GL213510   9.561  16.957   6.381 -0.3039  0.0927 -0.0826
 1003YOPC   C1A13511   9.484  16.461   6.498  0.1944  0.0898 -0.0036
 1003YOPC   D2A13512   9.465  16.065   6.515 -0.0380 -0.0575 -0.0880
 1003YOPC   C3A13513   9.292  15.791   6.772 -0.1955 -0.0994 -0.1191
 1003YOPC   C4A13514   9.098  15.404   7.079 -0.1477  0.0467 -0.1867
 1003YOPC   C1B13515   9.854  17.029   6.653 -0.1173  0.1746 -0.0165
 1003YOPC   C2B13516   9.884  16.921   7.160 -0.1260 -0.1215 -0.0030
 1003YOPC   D3B13517  10.157  16.536   7.214  0.4534  0.0692  0.1592
 1003YOPC   C4B13518  10.366  16.238   6.923  0.1630  0.0657  0.0419
 1004YOPC   NC313519  16.117  17.344   5.553  0.0697  0.0854  0.1189
 1004YOPC   PO413520  16.255  17.293   6.023  0.5167 -0.1555 -0.1739
 1004YOPC   GL113521  16.269  17.445   6.477  0.0138  0.1621 -0.1526
 1004YOPC   GL213522  16.451  17.187   6.539  0.1458  0.1603  0.1642
 1004YOPC   C1A13523  16.067  17.802   6.734 -0.1931  0.0235 -0.2593
 1004YOPC   D2A13524  15.991  18.116   6.941 -0.0268  0.2718  0.0003
 1004YOPC   C3A13525  15.962  18.135   7.434  0.1080  0.0419 -0.0846
 1004YOPC   C4A13526  15.872  18.399   7.753 -0.1896  0.2439  0.0792
 1004YOPC   C1B13527  16.612  17.272   6.981  0.0534 -0.2209  0.2763
 1004YOPC   C2B13528  16.480  17.405   7.335  0.1586  0.0460  0.1458
 1004YOPC   D3B13529  16.205  17.101   7.619  0.1953  0.0039  0.0777
 1004YOPC   C4B13530  16.035  16.704   7.791  0.1237  0.0344 -0.3250
 1005YOPC   NC313531  15.931   3.302   5.597  0.2872  0.2670  0.0780
 1005YOPC   PO413532  16.447   3.365   5.605  0.1325 -0.0717 -0.2614
 1005YOPC   GL113533  16.596   3.480   6.066  0.3178 -0.1654 -0.0151
 1005YOPC   GL213534  16.527   3.300   6.315 -0.1771 -0.1167  0.0453
 1005YOPC   C1A13535  16.617   3.786   6.380 -0.0111  0.2219  0.0023
 1005YOPC   D2A13536  16.813   3.936   6.794 -0.0978  0.1892  0.0518
 1005YOPC   C3A13537  17.183   4.207   6.904  0.1626 -0.2067  0.1557
 1005YOPC   C4A13538  17.515   4.294   7.108  0.0289  0.1241  0.2484
 1005YOPC   C1B13539  16.442   3.209   6.733  0.1197  0.0867 -0.0124
 1005YOPC   C2B13540  15.993   3.361   6.919  0.0999 -0.2913 -0.0380
 1005YOPC   D3B13541  16.065   3.456   7.413  0.1137  0.2132  0.2044
 1005YOPC   C4B13542  16.274   3.396   7.814  0.1705  0.5092 -0.2133
 1006YOPC   NC313543   9.293   6.888   5.290 -0.1794 -0.0435  0.1525
 1006YOPC   PO413544   9.067   6.919   5.689  0.2443 -0.1788  0.0309
 1006YOPC   GL113545   8.923   6.958   6.228  0.2686 -0.2701  0.0430
 1006YOPC   GL213546   9.097   7.013   6.438 -0.2611  0.0705  0.0191
 1006YOPC   C1A13547   8.532   6.825   6.393  0.2198 -0.0718  0.4440
 1006YOPC   D2A13548   8.087   6.818   6.249  0.2243 -0.3314  0.0110
 1006YOPC   C3A13549   7.726   6.746   6.460  0.2798  0.2941  0.0549
 1006YOPC   C4A13550   7.711   6.645   6.905 -0.1320 -0.3241  0.3310
 1006YOPC   C1B13551   8.810   6.997   6.749  0.0299  0.2645 -0.1515
 1006YOPC   C2B13552   8.668   6.999   7.209  0.1381  0.0002  0.1662
 1006YOPC   D3B13553   8.706   7.312   7.576 -0.2212 -0.1214  0.0332
 1006YOPC   C4B13554   8.560   7.236   8.067  0.4384 -0.3123 -0.0587
 1007YOPC   NC313555   9.157   2.691   5.774  0.3649 -0.3062 -0.1789
 1007YOPC   PO413556   9.489   2.869   5.751 -0.1149  0.0722 -0.1251
 1007YOPC   GL113557   9.426   2.878   6.241 -0.4484  0.1164  0.1268
 1007YOPC   GL213558   9.699   3.032   6.438 -0.2818 -0.0050 -0.1338
 1007YOPC   C1A13559   9.347   2.736   6.680 -0.0875  0.2953 -0.0222
 1007YOPC   D2A13560   9.322   2.821   7.136 -0.0349  0.1523 -0.2621
 1007YOPC   C3A13561   9.216   2.584   7.470  0.4465  0.0771 -0.1393
 1007YOPC   C4A13562   9.301   2.473   7.866 -0.1492 -0.1425  0.3273
 1007YOPC   C1B13563   9.988   2.614   6.562 -0.0052 -0.1547  0.0171
 1007YOPC   C2B13564  10.185   2.434   6.813 -0.1007 -0.1021  0.3976
 1007YOPC   D3B13565  10.116   2.307   7.248 -0.1087  0.0995 -0.0762
 1007YOPC   C4B13566  10.110   2.212   7.562 -0.0697  0.1109  0.1055
 1008YOPC   NC313567   8.893  13.112   5.408 -0.2643  0.0236  0.1563
 1008YOPC   PO413568   9.023  13.523   5.464 -0.0399 -0.1162  0.0593
 1008YOPC   GL113569   8.996  13.702   5.943  0.2657  0.0666  0.2669
 1008YOPC   GL213570   9.215  13.521   6.187  0.0471 -0.1543  0.0374
 1008YOPC   C1A13571   8.900  13.936   6.353  0.1095 -0.1721 -0.2614
 1008YOPC   D2A13572   9.073  13.860   6.766 -0.1477 -0.0204 -0.0774
 1008YOPC   C3A13573   9.186  13.970   7.133 -0.2144  0.0223 -0.2468
 1008YOPC   C4A13574   9.416  13.622   7.384  0.2094 -0.4539  0.1968
 1008YOPC   C1B13575   9.331  13.391   6.590 -0.0434  0.4406 -0.0620
 1008YOPC   C2B13576   9.255  13.423   6.991  0.0064 -0.0785  0.0176
 1008YOPC   D3B13577   8.971  13.255   7.274  0.0377  0.2245  0.1022
 1008YOPC   C4B13578   9.072  12.958   7.634  0.2658 -0.0010 -0.4675
 1009YOPC   NC313579  12.237   9.390   5.541 -0.1673  0.1837  0.2921
 1009YOPC   PO413580  11.861   9.244   5.763 -0.0219 -0.2126  0.3629
 1009YOPC   GL113581  11.765   9.247   6.196 -0.0956 -0.2118 -0.1507
 1009YOPC   GL213582  11.934   9.372   6.245 -0.0318  0.1596  0.0811
 1009YOPC   C1A13583  11.524   9.312   6.577  0.0687  0.0114  0.4265
 1009YOPC   D2A13584  11.413   9.404   6.974 -0.0657 -0.0248 -0.0453
 1009YOPC   C3A13585  11.550   9.197   7.317 -0.0704  0.2734 -0.2014
 1009YOPC   C4A13586  11.504   9.327   7.765 -0.1994  0.2086  0.0858
 1009YOPC   C1B13587  12.248   9.436   6.548 -0.2140 -0.2307 -0.0731
 1009YOPC   C2B13588  12.586   9.160   6.824 -0.0549 -0.1960  0.0513
 1009YOPC   D3B13589  12.386   8.983   7.205 -0.0430 -0.0884  0.1128
 1009YOPC   C4B13590  12.336   9.188   7.553 -0.0034 -0.1892 -0.2146
 1010YOPC   NC313591  12.818   0.905   5.365  0.0799 -0.0721  0.0725
 1010YOPC   PO413592  12.677   1.289   5.619  0.0016  0.1356 -0.2083
 1010YOPC   GL113593  12.654   1.224   6.055  0.1003 -0.1154  0.1163
 1010YOPC   GL213594  12.928   1.278   6.298  0.3347 -0.3429 -0.1408
 1010YOPC   C1A13595  12.522   0.942   6.380 -0.1582 -0.1752  0.2481
 1010YOPC   D2A13596  12.564   0.653   6.745  0.0529  0.0007  0.0762
 1010YOPC   C3A13597  12.526   0.738   7.187  0.0012  0.1325 -0.1601
 1010YOPC   C4A13598  12.593   0.509   7.591  0.1105 -0.2697  0.3002
 1010YOPC   C1B13599  13.034   1.462   6.746 -0.0052  0.2241  0.0915
 1010YOPC   C2B13600  13.081   1.383   7.200  0.2366 -0.0653 -0.1667
 1010YOPC   D3B13601  12.753   1.600   7.422 -0.2414  0.0383 -0.2374
 1010YOPC   C4B13602  12.343   1.671   7.525  0.0308 -0.1685  0.0788
 1011YOPC   NC313603  10.817   4.054   6.013 -0.0053 -0.1357 -0.0262
 1011YOPC   PO413604  11.148   4.049   5.772 -0.0150  0.0118 -0.4644
 1011YOPC   GL113605  11.322   4.021   6.132 -0.0632 -0.0889  0.0382
 1011YOPC   GL213606  11.454   3.757   6.302 -0.0618 -0.1093 -0.1751
 1011YOPC   C1A13607  11.118   4.108   6.586  0.1324 -0.2209 -0.0214
 1011YOPC   D2A13608  11.225   4.491   6.839 -0.1207  0.0233 -0.1137
 1011YOPC   C3A13609  11.193   4.422   7.257  0.3168  0.4367 -0.3050
 1011YOPC   C4A13610  11.331   4.146   7.598  0.0442  0.0523  0.0286
 1011YOPC   C1B13611  11.671   3.712   6.568  0.0004 -0.1347 -0.0610
 1011YOPC   C2B13612  11.795   3.638   6.952  0.2598  0.0134  0.3176
 1011YOPC   D3B13613  12.240   3.731   7.134  0.3102 -0.1196  0.1439
 1011YOPC   C4B13614  12.363   3.961   7.510  0.0374 -0.2149  0.1097
 1012YOPC   NC313615   5.585  16.844   5.569 -0.1822 -0.0993 -0.0777
 1012YOPC   PO413616   5.281  17.209   5.595  0.1327 -0.1825 -0.2499
 1012YOPC   GL113617   5.446  17.101   5.971 -0.1356  0.0687 -0.2231
 1012YOPC   GL213618   5.678  17.385   6.077 -0.0816  0.1506 -0.1456
 1012YOPC   C1A13619   5.470  16.758   6.317 -0.0034 -0.1264  0.0495
 1012YOPC   D2A13620   5.543  16.659   6.714  0.3064  0.2576 -0.1041
 1012YOPC   C3A13621   5.559  16.214   6.889 -0.0153 -0.0907  0.1523
 1012YOPC   C4A13622   5.768  15.900   6.745 -0.1709 -0.1666 -0.0563
 1012YOPC   C1B13623   5.369  17.584   6.424 -0.0229  0.1816  0.0269
 1012YOPC   C2B13624   5.104  17.496   6.856 -0.4991 -0.1143 -0.0222
 1012YOPC   D3B13625   5.095  17.562   7.245 -0.0693 -0.1719  0.0596
 1012YOPC   C4B13626   5.039  17.493   7.673 -0.3562  0.0827 -0.2036
 1013YOPC   NC313627   8.221   4.496   5.461 -0.0365 -0.1051 -0.1424
 1013YOPC   PO413628   7.904   4.587   5.854  0.0559 -0.1867 -0.2476
 1013YOPC   GL113629   7.823   4.737   6.217  0.0891  0.1575 -0.0324
 1013YOPC   GL213630   8.073   4.556   6.422 -0.1380  0.0882 -0.0815
 1013YOPC   C1A13631   7.672   4.813   6.602 -0.2927 -0.2082  0.1437
 1013YOPC   D2A13632   7.611   4.764   7.013 -0.1409 -0.1144 -0.4765
 1013YOPC   C3A13633   7.609   4.791   7.458 -0.0052  0.1245 -0.3861
 1013YOPC   C4A13634   7.426   4.580   7.794  0.2092  0.1742 -0.1755
 1013YOPC   C1B13635   8.116   4.672   6.810 -0.2881 -0.0486 -0.1560
 1013YOPC   C2B13636   8.056   4.802   7.270 -0.1846  0.1046 -0.0481
 1013YOPC   D3B13637   8.239   4.913   7.527 -0.1956  0.1163  0.2605
 1013YOPC   C4B13638   8.613   5.191   7.496 -0.1180 -0.2674 -0.3239
 1014YOPC   NC313639  10.229  10.648   5.612 -0.0678  0.1793 -0.0038
 1014YOPC   PO413640  10.529  10.282   5.751  0.1335  0.0586 -0.0743
 1014YOPC   GL113641  10.718  10.459   6.205 -0.5228  0.2828  0.0391
 1014YOPC   GL213642  10.423  10.343   6.377 -0.0575 -0.0868  0.1297
 1014YOPC   C1A13643  10.695  10.663   6.562  0.0018  0.3259  0.0233
 1014YOPC   D2A13644  10.643  10.824   7.006  0.2863  0.1896  0.0712
 1014YOPC   C3A13645  10.501  11.166   7.236 -0.1546  0.0853 -0.0533
 1014YOPC   C4A13646  10.242  11.286   7.521 -0.0715 -0.1029 -0.0712
 1014YOPC   C1B13647  10.285  10.414   6.730  0.0794  0.3566 -0.3889
 1014YOPC   C2B13648   9.874  10.448   6.849  0.2230  0.1290  0.0302
 1014YOPC   D3B13649   9.654  10.527   7.138 -0.0379  0.0185  0.0462
 1014YOPC   C4B13650   9.419  10.709   7.497 -0.3152 -0.0395  0.1758
 1015YOPC   NC313651   4.366   0.766   5.647  0.1269 -0.2066  0.0988
 1015YOPC   PO413652   4.805   0.481   5.722 -0.0226 -0.1465  0.1127
 1015YOPC   GL113653   4.929   0.398   6.118  0.2592  0.0833  0.0080
 1015YOPC   GL213654   4.982   0.106   6.210  0.2027 -0.1411  0.1383
 1015YOPC   C1A13655   4.879   0.493   6.574 -0.1908  0.2174  0.1242
 1015YOPC   D2A13656   4.756   0.464   6.977 -0.2621  0.0438  0.0517
 1015YOPC   C3A13657   4.870   0.733   7.269  0.0759  0.1959  0.1995
 1015YOPC   C4A13658   5.312   0.892   7.373 -0.1031  0.0644 -0.1158
 1015YOPC   C1B13659   4.797  -0.014   6.590 -0.1323 -0.1061  0.2650
 1015YOPC   C2B13660   4.617   0.001   6.959  0.2031 -0.2901  0.2884
 1015YOPC   D3B13661   4.856  -0.187   7.254  0.0919  0.3276  0.0543
 1015YOPC   C4B13662   4.907  -0.219   7.690 -0.0181  0.0896  0.0851
 1016YOPC   NC313663  13.935  10.291   5.629  0.0804  0.2004 -0.1216
 1016YOPC   PO413664  13.735  10.046   5.975 -0.2419 -0.2643  0.0751
 1016YOPC   GL113665  13.878  10.020   6.398  0.0701 -0.2726  0.1627
 1016YOPC   GL213666  13.596  10.109   6.576  0.0737 -0.2714  0.2812
 1016YOPC   C1A13667  14.015  10.121   6.899 -0.2255 -0.1540  0.2056
 1016YOPC   D2A13668  14.244  10.253   7.288  0.2021 -0.1316 -0.1187
 1016YOPC   C3A13669  14.346  10.117   7.705 -0.0136  0.0775 -0.1843
 1016YOPC   C4A13670  14.134   9.997   8.058 -0.1132 -0.0514  0.2227
 1016YOPC   C1B13671  13.547   9.987   6.956  0.2007 -0.0811 -0.1263
 1016YOPC   C2B13672  13.598   9.896   7.287  0.3240 -0.1747  0.0423
 1016YOPC   D3B13673  13.822  10.108   7.712 -0.2194  0.1087  0.1319
 1016YOPC   C4B13674  13.884  10.434   7.941 -0.0395  0.0390  0.0036
 1017YOPC   NC313675  16.910   8.452   5.417 -0.0102 -0.1654  0.2242
 1017YOPC   PO413676  16.547   8.431   5.647 -0.0860  0.3337  0.0671
 1017YOPC   GL113677  16.473   8.242   6.046  0.4105  0.2094  0.1732
 1017YOPC   GL213678  16.736   8.115   6.286  0.1179  0.2487  0.1952
 1017YOPC   C1A13679  16.244   8.212   6.393 -0.2248  0.4515  0.3204
 1017YOPC   D2A13680  16.112   8.257   6.892 -0.1751 -0.0266  0.2784
 1017YOPC   C3A13681  16.240   8.678   7.125  0.0685 -0.0404 -0.2073
 1017YOPC   C4A13682  16.212   8.691   7.611  0.0104  0.0093 -0.1202
 1017YOPC   C1B13683  16.598   8.494   6.520 -0.1313  0.0900 -0.0441
 1017YOPC   C2B13684  16.789   8.738   6.849  0.1703  0.2972  0.3724
 1017YOPC   D3B13685  16.772   8.750   7.239 -0.0272  0.2892  0.0751
 1017YOPC   C4B13686  16.825   8.511   7.484  0.1418  0.0014  0.3213
 1018YOPC   NC313687   1.535  10.401   5.557 -0.0841  0.1373  0.0514
 1018YOPC   PO413688   1.374  10.449   6.025 -0.1850 -0.0419 -0.1452
 1018YOPC   GL113689   1.517  10.595   6.447  0.1858  0.0855  0.1890
 1018YOPC   GL213690   1.413  10.341   6.648  0.0865  0.0814 -0.4574
 1018YOPC   C1A13691   1.385  10.724   6.917 -0.0243  0.1753 -0.2290
 1018YOPC   D2A13692   1.476  10.743   7.421 -0.0544 -0.0107 -0.0978
 1018YOPC   C3A13693   1.271  10.701   7.805  0.3860 -0.0399  0.0331
 1018YOPC   C4A13694   1.333  10.616   8.127 -0.3002  0.0546 -0.0631
 1018YOPC   C1B13695   1.549  10.152   6.957  0.1433 -0.1736 -0.2933
 1018YOPC   C2B13696   1.686  10.177   7.307 -0.2676 -0.0298 -0.0727
 1018YOPC   D3B13697   1.331  10.257   7.570  0.0731  0.1033  0.0416
 1018YOPC   C4B13698   1.047  10.206   7.822 -0.0003 -0.1503 -0.3092
 1019YOPC   NC313699  11.058   0.235   5.608 -0.1272  0.0423  0.4787
 1019YOPC   PO413700  11.263  -0.163   5.751 -0.0551  0.3280 -0.0692
 1019YOPC   GL113701  11.270  -0.026   6.172 -0.0365 -0.0988 -0.0396
 1019YOPC   GL213702  11.151  -0.250   6.374  0.2580 -0.0071  0.3949
 1019YOPC   C1A13703  11.270   0.283   6.528  0.1802 -0.1692  0.1822
 1019YOPC   D2A13704  11.376   0.721   6.779 -0.0436  0.0142  0.0851
 1019YOPC   C3A13705  11.535   0.668   7.200  0.2256  0.0252 -0.2102
 1019YOPC   C4A13706  11.578   0.823   7.618  0.2352 -0.0497 -0.2260
 1019YOPC   C1B13707  10.985  -0.249   6.830  0.1952 -0.0356  0.2486
 1019YOPC   C2B13708  11.061  -0.309   7.230 -0.1046 -0.2771 -0.0241
 1019YOPC   D3B13709  11.219  -0.048   7.592  0.3058 -0.0143 -0.0975
 1019YOPC   C4B13710  11.345   0.012   8.023 -0.0609  0.0074  0.1059
 1020YOPC   NC313711   0.673  11.594   6.025 -0.1067 -0.2278 -0.0740
 1020YOPC   PO413712   0.440  11.218   5.922  0.0188 -0.1447  0.1116
 1020YOPC   GL113713   0.592  11.168   6.377 -0.0109 -0.4126 -0.1116
 1020YOPC   GL213714   0.665  10.876   6.434 -0.2454 -0.0684 -0.0504
 1020YOPC   C1A13715   0.803  11.406   6.641  0.0734  0.1315 -0.0163
 1020YOPC   D2A13716   0.881  11.764   6.876  0.1126 -0.2545  0.0033
 1020YOPC   C3A13717   1.240  11.838   7.227 -0.0848 -0.2169 -0.1471
 1020YOPC   C4A13718   1.284  11.715   7.664  0.0528  0.0232  0.0154
 1020YOPC   C1B13719   0.782  10.867   6.882  0.0720 -0.0059 -0.0381
 1020YOPC   C2B13720   1.013  10.881   7.207  0.0384 -0.0218  0.1554
 1020YOPC   D3B13721   0.887  11.034   7.532  0.1761 -0.0145  0.0432
 1020YOPC   C4B13722   0.833  11.337   7.727  0.0880  0.0445  0.0714
 1021YOPC   NC313723  13.449   9.702   5.847 -0.0916 -0.4757 -0.0458
 1021YOPC   PO413724  13.227   9.294   5.906 -0.0257  0.0461 -0.0706
 1021YOPC   GL113725  13.281   9.099   6.313 -0.2875 -0.0641  0.0427
 1021YOPC   GL213726  13.042   8.963   6.491 -0.0763  0.3009 -0.1962
 1021YOPC   C1A13727  13.519   8.991   6.619  0.1442 -0.2014 -0.0231
 1021YOPC   D2A13728  13.444   9.019   6.994 -0.3865 -0.1136  0.3433
 1021YOPC   C3A13729  13.691   8.976   7.303 -0.1102  0.1245 -0.1196
 1021YOPC   C4A13730  14.142   9.079   7.469 -0.1854  0.0265 -0.0235
 1021YOPC   C1B13731  13.119   9.357   6.693  0.3437 -0.1678  0.2005
 1021YOPC   C2B13732  13.001   9.376   7.064 -0.2343  0.1753 -0.3423
 1021YOPC   D3B13733  13.276   9.369   7.375  0.0184  0.0412 -0.1460
 1021YOPC   C4B13734  13.375   9.127   7.723  0.0730 -0.1985  0.1673
 1022YOPC   NC313735  15.970  10.338   5.039 -0.0653  0.1997 -0.0548
 1022YOPC   PO413736  15.769  10.312   5.506 -0.0518 -0.1980 -0.0463
 1022YOPC   GL113737  15.743  10.154   5.897  0.1382  0.0747  0.0580
 1022YOPC   GL213738  15.547  10.452   6.090 -0.4505  0.3569  0.1544
 1022YOPC   C1A13739  15.520   9.937   6.212 -0.2283  0.0682 -0.0320
 1022YOPC   D2A13740  15.421  10.126   6.627  0.2215  0.2646 -0.0727
 1022YOPC   C3A13741  15.052  10.164   6.664  0.1966 -0.0872  0.0186
 1022YOPC   C4A13742  14.675  10.424   6.791 -0.2667 -0.1341  0.2006
 1022YOPC   C1B13743  15.726  10.474   6.456 -0.0949  0.2955  0.1683
 1022YOPC   C2B13744  15.980  10.648   6.864  0.0204 -0.0756 -0.1073
 1022YOPC   D3B13745  15.862  11.009   6.980 -0.4005 -0.1475  0.1471
 1022YOPC   C4B13746  15.851  11.049   7.513  0.1159  0.3012 -0.1870
 1023YOPC   NC313747   1.271   8.201   5.894 -0.0436 -0.0558  0.1189
 1023YOPC   PO413748   1.670   8.320   6.101  0.1881  0.0221  0.2881
 1023YOPC   GL113749   1.804   8.109   6.507  0.1713 -0.1044 -0.0336
 1023YOPC   GL213750   1.993   8.238   6.683 -0.1339  0.1326  0.2500
 1023YOPC   C1A13751   1.822   7.815   6.827 -0.2896 -0.0846  0.2412
 1023YOPC   D2A13752   1.978   7.765   7.190  0.3124  0.2947 -0.1504
 1023YOPC   C3A13753   1.973   8.048   7.495  0.0599  0.3425  0.1884
 1023YOPC   C4A13754   2.002   8.243   7.793 -0.1313  0.0230 -0.0785
 1023YOPC   C1B13755   2.183   8.236   7.090 -0.0186 -0.2985  0.0792
 1023YOPC   C2B13756   2.248   8.435   7.437  0.1028 -0.5004 -0.3891
 1023YOPC   D3B13757   2.615   8.458   7.470 -0.1422 -0.0063  0.0290
 1023YOPC   C4B13758   2.873   8.525   7.764  0.2880  0.1976 -0.0605
 1024YOPC   NC313759   4.957   5.836   6.014  0.0680 -0.2004 -0.0101
 1024YOPC   PO413760   4.994   6.255   6.030  0.4006 -0.1610 -0.2376
 1024YOPC   GL113761   5.027   6.050   6.461 -0.0012 -0.1408  0.1637
 1024YOPC   GL213762   5.168   5.684   6.535  0.0260  0.3081 -0.1901
 1024YOPC   C1A13763   5.036   6.133   6.983 -0.3653  0.1400 -0.2731
 1024YOPC   D2A13764   5.225   6.106   7.337  0.0591  0.2093  0.0174
 1024YOPC   C3A13765   5.350   6.497   7.686  0.0799  0.1985 -0.0576
 1024YOPC   C4A13766   5.458   6.706   8.037  0.2128 -0.1297 -0.0216
 1024YOPC   C1B13767   5.427   5.599   6.872  0.1922 -0.0939  0.1254
 1024YOPC   C2B13768   5.409   5.504   7.314 -0.0230  0.1859 -0.2608
 1024YOPC   D3B13769   5.058   5.639   7.493  0.2175 -0.1597  0.0553
 1024YOPC   C4B13770   4.786   5.675   7.775  0.0880  0.1686  0.0187
 1025YOPC   NC313771  17.479  13.629   5.331 -0.0642 -0.2882 -0.1234
 1025YOPC   PO413772  17.382  13.515   5.722 -0.3947  0.0020 -0.1351
 1025YOPC   GL113773  17.427  13.484   6.119  0.1455  0.1616  0.0754
 1025YOPC   GL213774  17.695  13.340   6.313 -0.1338  0.0497 -0.2111
 1025YOPC   C1A13775  17.328  13.648   6.562  0.2873  0.1389  0.1299
 1025YOPC   D2A13776  17.070  13.897   6.899 -0.0948 -0.1494 -0.0140
 1025YOPC   C3A13777  17.073  13.696   7.244  0.2467 -0.1327 -0.0949
 1025YOPC   C4A13778  17.076  13.661   7.669  0.1739  0.3252 -0.0457
 1025YOPC   C1B13779  17.599  13.273   6.786 -0.1582 -0.0178 -0.0616
 1025YOPC   C2B13780  17.448  13.343   7.041 -0.0633  0.0461  0.0551
 1025YOPC   D3B13781  17.520  13.432   7.418 -0.1232 -0.1039  0.1088
 1025YOPC   C4B13782  17.925  13.340   7.526  0.1848  0.1044 -0.0162
 1026YOPC   NC313783   3.125  14.100   5.509  0.2070  0.0150  0.1553
 1026YOPC   PO413784   2.821  13.795   5.619 -0.1769 -0.1882 -0.0168
 1026YOPC   GL113785   2.850  13.606   5.973  0.0129 -0.1299  0.0459
 1026YOPC   GL213786   2.593  13.447   6.145  0.1722  0.0479 -0.0126
 1026YOPC   C1A13787   3.077  13.746   6.328 -0.1458  0.0118  0.0299
 1026YOPC   D2A13788   3.180  13.805   6.658  0.0997 -0.1037  0.0703
 1026YOPC   C3A13789   2.905  13.670   7.006 -0.2181 -0.2073 -0.1251
 1026YOPC   C4A13790   2.843  13.532   7.406 -0.3009 -0.0467  0.0985
 1026YOPC   C1B13791   2.629  13.495   6.597  0.1391  0.1616  0.1987
 1026YOPC   C2B13792   2.630  13.262   6.945  0.0645 -0.0925  0.1516
 1026YOPC   D3B13793   2.711  12.874   6.939  0.0580 -0.2809 -0.1458
 1026YOPC   C4B13794   2.869  12.597   7.138  0.2235 -0.2780  0.2601
 1027YOPC   NC313795   8.332   9.397   5.397  0.0630 -0.2418 -0.2684
 1027YOPC   PO413796   8.142   9.265   5.849 -0.1580  0.2322 -0.1804
 1027YOPC   GL113797   8.055   9.462   6.218 -0.0307  0.3824  0.1856
 1027YOPC   GL213798   7.844   9.404   6.338 -0.0440  0.2024 -0.1235
 1027YOPC   C1A13799   7.974   9.694   6.674 -0.2344  0.2246 -0.2960
 1027YOPC   D2A13800   8.068  10.040   6.794 -0.3674 -0.1972  0.2975
 1027YOPC   C3A13801   8.466  10.218   6.470 -0.1150 -0.0927  0.0264
 1027YOPC   C4A13802   8.808  10.500   6.495 -0.0211  0.0135  0.0162
 1027YOPC   C1B13803   7.955   9.148   6.767 -0.0742 -0.2027 -0.1798
 1027YOPC   C2B13804   7.836   9.060   7.217 -0.0390  0.3739  0.0821
 1027YOPC   D3B13805   8.139   9.157   7.465  0.3001  0.0000 -0.1658
 1027YOPC   C4B13806   8.209   9.315   7.843  0.0355 -0.2305 -0.2752
 1028YOPC   NC313807  10.799   1.077   5.477  0.1930 -0.2094  0.1242
 1028YOPC   PO413808  11.029   0.998   5.765  0.1525 -0.1999 -0.0737
 1028YOPC   GL113809  10.873   1.112   6.023  0.1849  0.1806  0.0327
 1028YOPC   GL213810  10.759   1.416   5.949  0.2620  0.1216 -0.2689
 1028YOPC   C1A13811  10.735   1.133   6.455 -0.0520 -0.1073 -0.4143
 1028YOPC   D2A13812  10.508   1.016   6.779  0.2206 -0.0310  0.1209
 1028YOPC   C3A13813  10.479   1.134   7.163  0.3103 -0.0902  0.1452
 1028YOPC   C4A13814  10.644   1.152   7.519 -0.0157 -0.0968 -0.0632
 1028YOPC   C1B13815  10.521   1.690   6.209 -0.1112 -0.1180 -0.0287
 1028YOPC   C2B13816  10.376   2.071   6.153  0.0747  0.1189 -0.1360
 1028YOPC   D3B13817  10.386   2.385   6.359  0.3447 -0.1081 -0.0900
 1028YOPC   C4B13818  10.641   2.595   6.630 -0.2119  0.4576  0.1166
 1029YOPC   NC313819   5.931   8.980   5.763 -0.0532  0.0448 -0.0917
 1029YOPC   PO413820   6.055   8.576   5.746  0.1609  0.1761 -0.0322
 1029YOPC   GL113821   5.955   8.635   6.220  0.0015  0.0354  0.1721
 1029YOPC   GL213822   6.345   8.650   6.431  0.1117 -0.3767 -0.1864
 1029YOPC   C1A13823   5.803   8.587   6.760  0.2384  0.2471  0.0353
 1029YOPC   D2A13824   5.647   8.759   7.103 -0.5420 -0.1692 -0.2737
 1029YOPC   C3A13825   5.892   9.075   7.345 -0.0066  0.0582 -0.2652
 1029YOPC   C4A13826   6.279   9.260   7.619 -0.0674  0.0493  0.2516
 1029YOPC   C1B13827   6.538   8.956   6.765  0.2761  0.0403  0.1401
 1029YOPC   C2B13828   6.569   9.147   7.144  0.1809  0.0667  0.0959
 1029YOPC   D3B13829   6.510   9.515   7.182  0.2053 -0.0448 -0.2333
 1029YOPC   C4B13830   6.366   9.840   7.436 -0.1070 -0.0256 -0.2029
 1030YOPC   NC313831   9.696   6.235   5.683 -0.0455 -0.0558  0.1626
 1030YOPC   PO413832   9.596   6.035   6.110  0.1200  0.1247  0.1615
 1030YOPC   GL113833   9.396   5.786   6.474 -0.0288  0.1384  0.3527
 1030YOPC   GL213834   9.298   5.427   6.409  0.1415 -0.2718  0.0069
 1030YOPC   C1A13835   9.668   5.571   6.871  0.3460 -0.1078 -0.2994
 1030YOPC   D2A13836   9.588   5.722   7.296 -0.0542 -0.0537 -0.3650
 1030YOPC   C3A13837   9.755   5.713   7.732  0.0755  0.3420 -0.1134
 1030YOPC   C4A13838   9.724   5.700   8.217 -0.1211 -0.0836 -0.3114
 1030YOPC   C1B13839   9.728   5.435   6.401 -0.0667 -0.2436  0.1818
 1030YOPC   C2B13840  10.037   5.261   6.624  0.0099 -0.3088  0.5196
 1030YOPC   D3B13841  10.089   5.265   6.994 -0.1775 -0.2850 -0.0411
 1030YOPC   C4B13842  10.051   5.326   7.385 -0.2009 -0.1081  0.0688
 1031YOPC   NC313843  17.658   8.774   5.932 -0.0177 -0.0580  0.0447
 1031YOPC   PO413844  17.471   8.341   5.877  0.2908 -0.0956 -0.0369
 1031YOPC   GL113845  17.311   8.008   5.948  0.2047  0.0098 -0.1180
 1031YOPC   GL213846  17.180   8.027   6.187  0.0052  0.0045  0.3398
 1031YOPC   C1A13847  17.164   7.555   6.079  0.1800 -0.2825 -0.0540
 1031YOPC   D2A13848  17.352   7.142   6.052 -0.3467  0.0045  0.1663
 1031YOPC   C3A13849  17.247   6.717   6.001  0.0313  0.1638 -0.1153
 1031YOPC   C4A13850  17.371   6.349   6.005  0.3640 -0.2154 -0.3550
 1031YOPC   C1B13851  17.065   7.736   6.576 -0.1406 -0.0521 -0.0141
 1031YOPC   C2B13852  16.909   7.696   6.939 -0.1434 -0.0886  0.1318
 1031YOPC   D3B13853  16.999   8.015   7.259  0.0555 -0.1862 -0.4311
 1031YOPC   C4B13854  17.044   8.128   7.719  0.2400  0.0360  0.0376
 1032YOPC   NC313855   2.137   9.859   6.260 -0.0369 -0.0821  0.1343
 1032YOPC   PO413856   1.806   9.631   6.386  0.1084 -0.0034 -0.0008
 1032YOPC   GL113857   1.413   9.710   6.652  0.0449 -0.2517 -0.0210
 1032YOPC   GL213858   1.564   9.536   6.930  0.2263  0.0993 -0.2356
 1032YOPC   C1A13859   0.987   9.790   6.878  0.1258  0.3118  0.0065
 1032YOPC   D2A13860   0.755   9.737   7.354  0.2151 -0.1892  0.1870
 1032YOPC   C3A13861   0.627  10.062   7.636 -0.3142 -0.2329  0.0939
 1032YOPC   C4A13862   0.435  10.406   7.813 -0.0589  0.1264 -0.1551
 1032YOPC   C1B13863   1.912   9.720   7.170 -0.2764  0.0385  0.1408
 1032YOPC   C2B13864   2.064   9.918   7.578 -0.1159  0.2161 -0.1880
 1032YOPC   D3B13865   2.560  10.100   7.651  0.2847 -0.0961 -0.1908
 1032YOPC   C4B13866   2.945  10.281   7.622  0.3193 -0.3121 -0.0734
 1033YOPC   NC313867  12.372  14.607   5.844 -0.1164 -0.0634  0.7109
 1033YOPC   PO413868  12.244  14.261   5.631  0.2312  0.0893  0.0751
 1033YOPC   GL113869  12.270  14.041   6.032 -0.1951  0.0053 -0.2048
 1033YOPC   GL213870  11.943  13.833   5.985 -0.1928 -0.1138 -0.0805
 1033YOPC   C1A13871  12.360  13.805   6.431 -0.0424 -0.1513 -0.4068
 1033YOPC   D2A13872  12.609  13.577   6.723 -0.2246 -0.0941  0.1870
 1033YOPC   C3A13873  12.806  13.883   6.891 -0.0539  0.0956  0.3536
 1033YOPC   C4A13874  12.960  14.173   7.217 -0.0314  0.2231 -0.1259
 1033YOPC   C1B13875  11.899  13.900   6.368 -0.4300 -0.1405 -0.0155
 1033YOPC   C2B13876  11.488  13.938   6.534  0.1254 -0.0679 -0.0333
 1033YOPC   D3B13877  11.541  14.016   7.043 -0.1073 -0.1353  0.1061
 1033YOPC   C4B13878  11.359  14.027   7.400 -0.2174  0.1411  0.0978
 1034YOPC   NC313879   0.160   2.720   5.469 -0.0260  0.4361  0.3628
 1034YOPC   PO413880  -0.038   2.675   5.877 -0.2083  0.0014  0.1407
 1034YOPC   GL113881   0.137   2.752   6.274  0.0530  0.1432  0.1857
 1034YOPC   GL213882  -0.032   2.914   6.430  0.1444  0.0592 -0.2077
 1034YOPC   C1A13883   0.371   2.790   6.640 -0.2414 -0.3258 -0.1287
 1034YOPC   D2A13884   0.220   2.877   7.059  0.1089  0.4330 -0.1333
 1034YOPC   C3A13885   0.198   2.996   7.467 -0.2613 -0.0112 -0.0388
 1034YOPC   C4A13886   0.415   2.975   7.874  0.1896 -0.0650 -0.1107
 1034YOPC   C1B13887   0.089   3.188   6.736  0.0106  0.1515  0.0199
 1034YOPC   C2B13888   0.093   3.623   6.894 -0.0121 -0.3127 -0.0417
 1034YOPC   D3B13889   0.383   3.947   6.958  0.2008  0.0031  0.0414
 1034YOPC   C4B13890   0.515   4.243   7.239 -0.0184 -0.1611  0.1727
 1035YOPC   NC313891  15.832   4.996   5.512 -0.0778 -0.0024 -0.2372
 1035YOPC   PO413892  16.292   5.106   5.488  0.1250  0.1352  0.1329
 1035YOPC   GL113893  16.534   5.155   5.831 -0.1891 -0.2414  0.0360
 1035YOPC   GL213894  16.299   5.074   6.081 -0.1263 -0.0024  0.0161
 1035YOPC   C1A13895  16.752   5.384   6.196  0.1462 -0.1244  0.4317
 1035YOPC   D2A13896  16.775   5.522   6.673  0.0092 -0.0497  0.1654
 1035YOPC   C3A13897  17.108   5.234   6.916 -0.3003  0.0082 -0.1374
 1035YOPC   C4A13898  17.321   5.345   7.327 -0.1206 -0.1620 -0.0863
 1035YOPC   C1B13899  16.192   5.366   6.383 -0.0675  0.1085  0.2113
 1035YOPC   C2B13900  16.257   5.369   6.869 -0.0805 -0.0620 -0.2740
 1035YOPC   D3B13901  16.107   5.706   7.127 -0.1622  0.0115 -0.2852
 1035YOPC   C4B13902  16.243   6.062   7.268  0.0480 -0.2489  0.0039
 1036YOPC   NC313903   8.843  17.890   5.889 -0.1801  0.0230 -0.1466
 1036YOPC   PO413904   9.277  17.794   6.014 -0.2421  0.3309 -0.2192
 1036YOPC   GL113905   9.528  17.869   6.360 -0.1839  0.4427 -0.0063
 1036YOPC   GL213906   9.370  18.166   6.409  0.2305 -0.0072 -0.1694
 1036YOPC   C1A13907   9.676  18.062   6.771 -0.2267  0.0387  0.0388
 1036YOPC   D2A13908   9.822  17.909   7.206  0.3325  0.0411  0.0455
 1036YOPC   C3A13909  10.254  17.758   7.409 -0.3539  0.0501 -0.0142
 1036YOPC   C4A13910  10.263  17.589   7.791  0.3652 -0.0113 -0.1253
 1036YOPC   C1B13911   9.309  18.383   6.795 -0.1408 -0.0597 -0.1590
 1036YOPC   C2B13912   9.360  18.190   7.174 -0.5700  0.1219 -0.0603
 1036YOPC   D3B13913   9.357  17.780   7.058  0.0756  0.0534 -0.2838
 1036YOPC   C4B13914   9.073  17.475   7.058 -0.1767 -0.0193  0.0032
 1037YOPC   NC313915  14.956   1.782   5.843 -0.1760 -0.3594 -0.0202
 1037YOPC   PO413916  14.803   1.673   6.190  0.0798  0.1197  0.2162
 1037YOPC   GL113917  14.851   1.593   6.570  0.1249  0.0541  0.0683
 1037YOPC   GL213918  15.173   1.798   6.672  0.0814  0.0537  0.0239
 1037YOPC   C1A13919  14.931   1.330   6.920 -0.3282  0.2032 -0.0672
 1037YOPC   D2A13920  14.870   1.305   7.380  0.0542  0.2391 -0.1069
 1037YOPC   C3A13921  15.236   1.104   7.481  0.1657  0.0065  0.0095
 1037YOPC   C4A13922  15.433   0.913   7.847  0.0131 -0.0295  0.1056
 1037YOPC   C1B13923  15.082   1.897   7.037 -0.0321 -0.2375 -0.0851
 1037YOPC   C2B13924  15.202   2.201   7.271  0.2571  0.0424  0.0047
 1037YOPC   D3B13925  15.061   2.292   7.651  0.2401 -0.3790  0.0539
 1037YOPC   C4B13926  15.155   2.374   8.034  0.1257 -0.1051  0.1141
 1038YOPC   NC313927   0.626   9.358   6.200  0.0598  0.2848 -0.3082
 1038YOPC   PO413928   0.145   9.539   6.120  0.1092 -0.0789 -0.3895
 1038YOPC   GL113929   0.213   9.516   6.496 -0.4830  0.2207  0.1348
 1038YOPC   GL213930  -0.057   9.326   6.540 -0.0245 -0.1677 -0.1887
 1038YOPC   C1A13931   0.180   9.258   6.963 -0.0781  0.1264 -0.0647
 1038YOPC   D2A13932   0.281   9.204   7.463 -0.0202  0.2998 -0.1904
 1038YOPC   C3A13933   0.065   9.366   7.811  0.3439 -0.1387 -0.3080
 1038YOPC   C4A13934   0.185   9.825   7.910 -0.3135 -0.0802 -0.3137
 1038YOPC   C1B13935  -0.212   9.015   6.838  0.1712 -0.0243 -0.0741
 1038YOPC   C2B13936  -0.566   8.979   7.072  0.0324  0.2575 -0.0799
 1038YOPC   D3B13937  -0.541   8.632   7.349 -0.2436 -0.1842 -0.1526
 1038YOPC   C4B13938  -0.512   8.713   7.788  0.2270 -0.0998 -0.0891
 1039YOPC   NC313939   1.710   1.432   5.916  0.2531 -0.1933 -0.6303
 1039YOPC   PO413940   2.033   1.668   5.949 -0.3123 -0.0955 -0.2503
 1039YOPC   GL113941   2.049   1.663   6.351 -0.0971  0.2247  0.2022
 1039YOPC   GL213942   2.255   1.699   6.468  0.0845 -0.2718  0.1265
 1039YOPC   C1A13943   1.824   1.754   6.711 -0.2056  0.0109 -0.0309
 1039YOPC   D2A13944   1.721   1.741   7.121  0.0571 -0.3369  0.1296
 1039YOPC   C3A13945   2.029   1.793   7.441 -0.0518  0.1601  0.1141
 1039YOPC   C4A13946   2.339   1.908   7.789 -0.0349  0.0454  0.0669
 1039YOPC   C1B13947   2.324   1.273   6.533  0.3238  0.1987  0.3058
 1039YOPC   C2B13948   2.464   1.020   6.856 -0.0088 -0.0289  0.0414
 1039YOPC   D3B13949   2.339   0.645   7.102 -0.0828 -0.2387 -0.1092
 1039YOPC   C4B13950   2.071   0.451   7.489 -0.3876 -0.2703  0.1866
 1040YOPC   NC313951   0.594  16.694   5.753 -0.0583  0.0711  0.4393
 1040YOPC   PO413952   0.969  16.977   5.603 -0.0574  0.1506  0.0428
 1040YOPC   GL113953   0.927  17.118   6.004 -0.0161  0.2941  0.0438
 1040YOPC   GL213954   0.915  16.802   6.228  0.1688  0.1482 -0.2902
 1040YOPC   C1A13955   0.894  17.375   6.445  0.3141 -0.0710 -0.1639
 1040YOPC   D2A13956   0.574  17.450   6.600 -0.0514 -0.0846  0.1487
 1040YOPC   C3A13957   0.567  17.300   7.059 -0.1422  0.4794  0.1834
 1040YOPC   C4A13958   0.325  16.986   7.209 -0.1141 -0.0552  0.0797
 1040YOPC   C1B13959   0.463  17.009   6.342 -0.0813 -0.2486  0.0540
 1040YOPC   C2B13960   0.232  17.108   6.688  0.2312  0.0893  0.0118
 1040YOPC   D3B13961   0.130  17.471   6.945 -0.1603 -0.3117  0.0431
 1040YOPC   C4B13962   0.295  17.731   7.274 -0.1790 -0.0750 -0.0482
 1041YOPC   NC313963  15.926  15.921   5.779  0.0568 -0.1225 -0.0323
 1041YOPC   PO413964  15.904  15.496   5.933  0.0289 -0.1042  0.0251
 1041YOPC   GL113965  15.624  15.677   6.262  0.1678 -0.1765 -0.0762
 1041YOPC   GL213966  15.687  16.020   6.378 -0.3527 -0.0698  0.3165
 1041YOPC   C1A13967  15.340  15.798   6.621  0.1236 -0.1933  0.0214
 1041YOPC   D2A13968  15.076  15.825   6.934 -0.0283 -0.1278 -0.0384
 1041YOPC   C3A13969  15.163  15.669   7.395 -0.0222  0.0630  0.4663
 1041YOPC   C4A13970  15.085  15.434   7.788 -0.1126 -0.0365  0.1382
 1041YOPC   C1B13971  15.744  15.997   6.815 -0.2082 -0.0773 -0.1042
 1041YOPC   C2B13972  15.522  16.051   7.216 -0.1392 -0.0109  0.0811
 1041YOPC   D3B13973  15.435  16.060   7.652 -0.0015 -0.3274  0.1988
 1041YOPC   C4B13974  15.789  16.091   7.867 -0.0599 -0.1762  0.5283
 1042YOPC   NC313975  16.201  16.243   6.256 -0.0278 -0.1112 -0.2496
 1042YOPC   PO413976  16.092  15.803   6.259  0.1352 -0.0062  0.0840
 1042YOPC   GL113977  16.201  15.762   6.683 -0.0627 -0.0210  0.0588
 1042YOPC   GL213978  16.367  16.003   6.803  0.1944  0.0393 -0.0366
 1042YOPC   C1A13979  16.110  15.490   6.963  0.0395 -0.2376 -0.0901
 1042YOPC   D2A13980  16.074  15.236   7.382  0.1199 -0.0465 -0.1090
 1042YOPC   C3A13981  16.377  15.305   7.675  0.0851 -0.2352 -0.0539
 1042YOPC   C4A13982  16.698  15.273   7.752  0.2493  0.1818 -0.3736
 1042YOPC   C1B13983  16.166  16.021   7.142 -0.0126  0.2600 -0.0385
 1042YOPC   C2B13984  15.895  15.864   7.431  0.1106  0.0223 -0.3360
 1042YOPC   D3B13985  16.102  15.743   7.838  0.2484  0.1548 -0.2264
 1042YOPC   C4B13986  16.268  15.502   8.128 -0.3314  0.2417  0.1817
 1043YOPC   NC313987  17.871  11.955   5.400  0.3437 -0.2942  0.1324
 1043YOPC   PO413988  18.015  11.810   5.773 -0.1862 -0.3992 -0.0582
 1043YOPC   GL113989  17.642  11.858   6.016  0.3792 -0.2925 -0.1200
 1043YOPC   GL213990  17.813  11.734   6.275  0.4128  0.0844  0.0451
 1043YOPC   C1A13991  17.312  11.967   6.042  0.0960 -0.2320  0.0207
 1043YOPC   D2A13992  16.990  11.717   5.900 -0.3166 -0.0409 -0.1930
 1043YOPC   C3A13993  16.625  11.691   6.197  0.0957 -0.0195  0.0281
 1043YOPC   C4A13994  16.333  11.531   6.524  0.0449 -0.1193  0.1885
 1043YOPC   C1B13995  17.948  11.672   6.685  0.0100  0.1487  0.1191
 1043YOPC   C2B13996  17.992  11.874   7.030 -0.1140  0.0229  0.0242
 1043YOPC   D3B13997  17.632  11.861   7.315  0.0906 -0.0853  0.0977
 1043YOPC   C4B13998  17.384  11.859   7.542  0.1323  0.1528  0.2228
 1044YOPC   NC313999  11.853   8.786   5.972 -0.6018  0.0515 -0.3123
 1044YOPC   PO414000  12.302   8.891   5.937 -0.0486 -0.1681  0.1717
 1044YOPC   GL114001  12.265   8.800   6.387 -0.1867  0.1768 -0.0985
 1044YOPC   GL214002  11.896   8.927   6.522 -0.0365  0.2033 -0.1040
 1044YOPC   C1A14003  12.271   8.703   6.776 -0.1752 -0.0166  0.1660
 1044YOPC   D2A14004  12.144   8.372   7.055  0.2380 -0.1705  0.0626
 1044YOPC   C3A14005  12.212   8.037   6.830 -0.0495  0.2999  0.0093
 1044YOPC   C4A14006  12.165   7.638   6.961 -0.3602 -0.1834 -0.0928
 1044YOPC   C1B14007  12.024   9.157   6.874 -0.0978 -0.1848 -0.1816
 1044YOPC   C2B14008  12.243   9.413   7.100 -0.3782 -0.1212  0.0312
 1044YOPC   D3B14009  12.119   9.636   7.460  0.1213 -0.3641 -0.1775
 1044YOPC   C4B14010  12.152   9.929   7.717 -0.1443 -0.1039  0.0065
 1045YOPC   NC314011  14.584   6.427   5.338 -0.2591 -0.0946  0.1118
 1045YOPC   PO414012  14.469   6.345   5.671 -0.0316  0.1889  0.1298
 1045YOPC   GL114013  14.443   6.167   6.141 -0.4502 -0.1499 -0.2818
 1045YOPC   GL214014  14.256   6.031   6.202 -0.0813  0.2035  0.1113
 1045YOPC   C1A14015  14.702   6.006   6.419 -0.1326  0.0317 -0.5177
 1045YOPC   D2A14016  14.985   5.637   6.496  0.0755  0.0607 -0.0758
 1045YOPC   C3A14017  15.015   5.737   6.895 -0.2275  0.2634 -0.1867
 1045YOPC   C4A14018  14.963   5.876   7.281 -0.1534 -0.2200  0.4443
 1045YOPC   C1B14019  14.188   6.223   6.580 -0.1207  0.1677  0.0159
 1045YOPC   C2B14020  14.191   6.424   7.012 -0.2101 -0.0495  0.2538
 1045YOPC   D3B14021  13.884   6.447   7.247  0.2252 -0.2605 -0.1826
 1045YOPC   C4B14022  13.791   6.543   7.649 -0.2496  0.0352 -0.1256
 1046YOPC   NC314023  18.146   1.224   6.018 -0.0107 -0.1258 -0.0990
 1046YOPC   PO414024  17.805   0.939   5.918  0.0974  0.0707 -0.1014
 1046YOPC   GL114025  17.916   0.835   6.307 -0.1483  0.1906 -0.4065
 1046YOPC   GL214026  18.266   0.627   6.341  0.0284 -0.1068  0.0565
 1046YOPC   C1A14027  17.971   0.637   6.743  0.1239 -0.2051  0.2745
 1046YOPC   D2A14028  17.724   0.785   7.070 -0.2062  0.0601 -0.4478
 1046YOPC   C3A14029  17.502   0.523   7.253 -0.0786  0.1494  0.1354
 1046YOPC   C4A14030  17.452   0.102   6.949  0.2216 -0.0633  0.0912
 1046YOPC   C1B14031  18.385   0.972   6.681 -0.3216 -0.1647 -0.3829
 1046YOPC   C2B14032  18.417   1.380   6.586 -0.2049  0.1140  0.3605
 1046YOPC   D3B14033  18.112   1.585   6.855  0.1875 -0.4030  0.2588
 1046YOPC   C4B14034  17.998   1.636   7.328  0.2888  0.4413  0.2396
 1047YOPC   NC314035   3.110  16.909   5.496  0.1784  0.1170 -0.3178
 1047YOPC   PO414036   2.870  17.284   5.405 -0.2191 -0.0001 -0.0806
 1047YOPC   GL114037   2.833  17.135   5.868 -0.0846  0.0720  0.1096
 1047YOPC   GL214038   2.393  17.226   5.893  0.1925  0.2253 -0.1295
 1047YOPC   C1A14039   2.952  17.111   6.365  0.0452  0.0432  0.0057
 1047YOPC   D2A14040   2.964  17.072   6.773  0.2331  0.1288 -0.0914
 1047YOPC   C3A14041   2.773  17.127   7.196  0.6223 -0.0687 -0.1039
 1047YOPC   C4A14042   3.001  16.867   7.558  0.2305 -0.2173  0.1306
 1047YOPC   C1B14043   2.274  17.303   6.320 -0.1435 -0.0756  0.0218
 1047YOPC   C2B14044   2.042  16.981   6.561  0.1411  0.1942 -0.1957
 1047YOPC   D3B14045   2.064  17.022   7.019  0.3086  0.1187 -0.0789
 1047YOPC   C4B14046   2.224  17.024   7.390 -0.0055 -0.2837 -0.0686
 1048YOPC   NC314047   4.131  17.687   5.372  0.0894  0.0333  0.1832
 1048YOPC   PO414048   3.771  17.840   5.292 -0.0951 -0.0409  0.0959
 1048YOPC   GL114049   3.688  17.630   5.727 -0.0209  0.0523  0.1223
 1048YOPC   GL214050   3.936  17.625   6.047  0.5820 -0.0872  0.1212
 1048YOPC   C1A14051   3.430  17.526   6.132  0.1114  0.0873 -0.1081
 1048YOPC   D2A14052   3.453  17.388   6.517  0.1750  0.1153  0.3323
 1048YOPC   C3A14053   3.173  17.535   6.654 -0.2248 -0.1571 -0.1192
 1048YOPC   C4A14054   2.825  17.548   7.002  0.1533 -0.0094  0.2557
 1048YOPC   C1B14055   3.918  17.648   6.385  0.0769 -0.1188 -0.0594
 1048YOPC   C2B14056   3.836  17.662   6.809 -0.0960 -0.4224  0.0994
 1048YOPC   D3B14057   3.565  17.502   7.062  0.2751  0.0474 -0.0900
 1048YOPC   C4B14058   3.255  17.208   7.146  0.0936 -0.2359  0.0834
 1049YOPC   NC314059   9.982   0.716   5.693 -0.0077 -0.0127  0.0229
 1049YOPC   PO414060  10.038   0.475   5.991 -0.0151 -0.1232  0.1179
 1049YOPC   GL114061  10.179   0.704   6.363 -0.0361  0.0054  0.1053
 1049YOPC   GL214062  10.486   0.667   6.329  0.0829 -0.0671  0.0850
 1049YOPC   C1A14063  10.016   0.819   6.744  0.3184  0.1918 -0.1091
 1049YOPC   D2A14064   9.999   0.877   7.155  0.0026 -0.1972  0.0131
 1049YOPC   C3A14065   9.707   1.176   7.334  0.2069  0.0905  0.1186
 1049YOPC   C4A14066   9.339   1.172   7.645  0.3126  0.0859 -0.0666
 1049YOPC   C1B14067  10.770   0.581   6.654 -0.0201 -0.1742  0.3873
 1049YOPC   C2B14068  10.842   0.605   7.068 -0.1373 -0.2718 -0.1209
 1049YOPC   D3B14069  11.070   0.904   7.350 -0.2238  0.0261  0.2015
 1049YOPC   C4B14070  11.363   1.150   7.242  0.0575 -0.0627 -0.0382
 1050YOPC   NC314071  18.076   6.144   5.365 -0.1507  0.1764  0.0616
 1050YOPC   PO414072  17.708   5.896   5.436  0.1284 -0.2547  0.1982
 1050YOPC   GL114073  17.657   5.958   5.932  0.1885  0.0955 -0.1303
 1050YOPC   GL214074  17.331   5.811   5.917 -0.0680  0.1784 -0.1753
 1050YOPC   C1A14075  17.582   5.901   6.434  0.0599  0.1815  0.0890
 1050YOPC   D2A14076  17.601   5.989   6.890 -0.1936  0.1914  0.0273
 1050YOPC   C3A14077  17.261   6.301   7.114  0.0443 -0.5477 -0.2722
 1050YOPC   C4A14078  17.161   6.318   7.601  0.1341  0.2236 -0.2675
 1050YOPC   C1B14079  17.053   6.026   6.228  0.4669  0.3072  0.0324
 1050YOPC   C2B14080  17.045   5.946   6.653 -0.1550  0.2749  0.1832
 1050YOPC   D3B14081  17.195   5.748   6.996 -0.0033  0.0221 -0.0427
 1050YOPC   C4B14082  17.157   5.838   7.402 -0.0116  0.1620  0.1435
 1051YOPC   NC314083   8.754   2.290   6.053  0.0785 -0.1242  0.1128
 1051YOPC   PO414084   8.559   2.607   6.034 -0.0659 -0.1864  0.0675
 1051YOPC   GL114085   8.355   2.341   6.389 -0.0517 -0.2084  0.3830
 1051YOPC   GL214086   8.660   2.377   6.548  0.0406 -0.0374 -0.0799
 1051YOPC   C1A14087   8.017   2.376   6.688 -0.0250 -0.1365  0.1701
 1051YOPC   D2A14088   7.993   2.185   7.091  0.1862  0.1016 -0.3001
 1051YOPC   C3A14089   7.946   1.779   7.280 -0.0564  0.0762  0.0882
 1051YOPC   C4A14090   7.995   1.366   7.501 -0.1149 -0.2020  0.1187
 1051YOPC   C1B14091   8.490   2.445   6.938  0.0474  0.1096 -0.2780
 1051YOPC   C2B14092   8.273   2.529   7.345  0.1269  0.5763 -0.0305
 1051YOPC   D3B14093   8.215   2.233   7.591 -0.0770 -0.1262 -0.3495
 1051YOPC   C4B14094   8.076   2.072   7.865  0.2026  0.1724 -0.0830
 1052YOPC   NC314095   5.200   1.477   6.016  0.1303 -0.1997  0.0462
 1052YOPC   PO414096   4.817   1.558   5.732  0.0686  0.1157  0.0777
 1052YOPC   GL114097   4.669   1.562   6.081 -0.0095 -0.0645 -0.1863
 1052YOPC   GL214098   4.674   1.358   6.278  0.1089  0.2303 -0.0486
 1052YOPC   C1A14099   4.351   1.741   6.395  0.3509  0.3336 -0.3365
 1052YOPC   D2A14100   4.302   1.783   6.815 -0.1914  0.2880  0.2117
 1052YOPC   C3A14101   4.498   1.558   7.232 -0.1998 -0.0999 -0.1877
 1052YOPC   C4A14102   4.718   1.215   7.322  0.0137 -0.0223 -0.2282
 1052YOPC   C1B14103   4.682   1.481   6.704  0.2699 -0.1165  0.2538
 1052YOPC   C2B14104   4.981   1.665   6.951  0.1995 -0.0679 -0.2233
 1052YOPC   D3B14105   5.204   1.417   7.255 -0.3124 -0.1041 -0.1731
 1052YOPC   C4B14106   5.179   1.235   7.681  0.1638 -0.0199 -0.1832
 1053YOPC   NC314107   5.702  11.112   5.343  0.1042  0.1098  0.2638
 1053YOPC   PO414108   6.078  11.343   5.295  0.0825 -0.0419 -0.1257
 1053YOPC   GL114109   5.909  11.366   5.759 -0.1859 -0.1658  0.2164
 1053YOPC   GL214110   5.725  11.106   5.875 -0.0117  0.0864  0.0431
 1053YOPC   C1A14111   5.821  11.548   6.122 -0.1038 -0.0231  0.0559
 1053YOPC   D2A14112   5.752  11.520   6.528 -0.2851 -0.1868 -0.1033
 1053YOPC   C3A14113   5.765  11.892   6.737  0.2440  0.1409 -0.1171
 1053YOPC   C4A14114   5.676  12.395   6.814  0.1573  0.2055 -0.1196
 1053YOPC   C1B14115   5.604  11.160   6.218 -0.2103  0.1252  0.0101
 1053YOPC   C2B14116   5.776  11.076   6.707  0.2710 -0.0391  0.1466
 1053YOPC   D3B14117   5.734  11.174   7.066  0.1124 -0.0635 -0.0270
 1053YOPC   C4B14118   5.516  11.257   7.451  0.1193  0.1036 -0.0803
 1054YOPC   NC314119   5.950  13.310   4.984 -0.1544 -0.0726  0.3120
 1054YOPC   PO414120   5.880  12.770   5.065  0.0943 -0.1288 -0.2077
 1054YOPC   GL114121   5.950  12.804   5.524 -0.0300 -0.1349 -0.1006
 1054YOPC   GL214122   6.081  12.991   5.563 -0.0554  0.3224 -0.7743
 1054YOPC   C1A14123   6.052  12.547   5.889 -0.1009 -0.0638 -0.1364
 1054YOPC   D2A14124   5.959  12.109   5.992  0.2851  0.2767 -0.4754
 1054YOPC   C3A14125   5.719  12.117   6.278 -0.1657  0.2425 -0.2246
 1054YOPC   C4A14126   5.365  12.324   6.477 -0.2449  0.4575  0.1788
 1054YOPC   C1B14127   6.216  13.244   5.949  0.3113  0.0897 -0.1313
 1054YOPC   C2B14128   6.500  13.495   6.181 -0.2023  0.4108  0.0208
 1054YOPC   D3B14129   6.475  13.524   6.544  0.0971 -0.0938 -0.3182
 1054YOPC   C4B14130   6.049  13.351   6.793 -0.2375 -0.3058 -0.0503
 1055YOPC   NC314131   2.434  12.429   5.323 -0.1885  0.1542  0.1781
 1055YOPC   PO414132   2.766  12.710   5.590  0.0498  0.0352  0.1320
 1055YOPC   GL114133   2.534  12.572   5.903 -0.0429  0.2003 -0.3158
 1055YOPC   GL214134   2.309  12.223   5.826  0.1222  0.0295 -0.2989
 1055YOPC   C1A14135   2.189  12.607   6.262  0.2464  0.0299 -0.2334
 1055YOPC   D2A14136   1.892  12.376   6.642  0.0655 -0.0437  0.0460
 1055YOPC   C3A14137   1.737  12.058   6.811 -0.0367  0.1452  0.1672
 1055YOPC   C4A14138   1.373  11.810   6.683 -0.0408  0.0077  0.0187
 1055YOPC   C1B14139   1.990  12.105   6.173  0.0844  0.0734  0.1039
 1055YOPC   C2B14140   2.034  11.825   6.489 -0.1696 -0.1882  0.1536
 1055YOPC   D3B14141   2.171  11.881   6.960 -0.2643 -0.0668 -0.3410
 1055YOPC   C4B14142   2.113  12.019   7.313  0.0984 -0.2567  0.1333
 1056YOPC   NC314143  17.647   9.555   5.589 -0.1496 -0.0765 -0.0036
 1056YOPC   PO414144  17.779   9.215   5.829  0.2322 -0.1159 -0.2462
 1056YOPC   GL114145  17.633   9.163   6.273  0.1630 -0.0055 -0.0209
 1056YOPC   GL214146  17.758   8.929   6.389  0.0111 -0.0479 -0.2934
 1056YOPC   C1A14147  17.599   9.274   6.671  0.0930 -0.0523 -0.0522
 1056YOPC   D2A14148  17.412   9.530   7.022  0.0973  0.2589 -0.1997
 1056YOPC   C3A14149  17.649   9.682   7.364  0.0102  0.2447  0.0916
 1056YOPC   C4A14150  18.019   9.693   7.636 -0.4676 -0.2591 -0.1195
 1056YOPC   C1B14151  17.793   8.595   6.647  0.0023 -0.0998 -0.0511
 1056YOPC   C2B14152  17.787   8.278   6.990 -0.1269 -0.4288 -0.0852
 1056YOPC   D3B14153  17.362   8.234   7.016 -0.0510 -0.1621 -0.2337
 1056YOPC   C4B14154  16.994   8.214   6.747 -0.2406  0.0255 -0.0302
 1057YOPC   NC314155   9.490   0.456   6.080  0.0056 -0.1453  0.2917
 1057YOPC   PO414156   9.054   0.591   6.009  0.1031 -0.1142 -0.0837
 1057YOPC   GL114157   9.135   0.396   6.417  0.2145  0.2066  0.0367
 1057YOPC   GL214158   8.881   0.180   6.615 -0.2757  0.0080  0.0009
 1057YOPC   C1A14159   9.097   0.491   6.906  0.1499  0.2480 -0.0003
 1057YOPC   D2A14160   9.223   0.330   7.326  0.1308 -0.1193  0.0312
 1057YOPC   C3A14161   9.112   0.592   7.651  0.1390  0.1645  0.0383
 1057YOPC   C4A14162   8.774   0.651   7.885 -0.1243 -0.0431  0.0612
 1057YOPC   C1B14163   8.635   0.216   6.967  0.0125  0.1603 -0.2171
 1057YOPC   C2B14164   8.675   0.324   7.357 -0.0266 -0.1356  0.0937
 1057YOPC   D3B14165   8.896   0.089   7.657  0.0339  0.2965  0.0167
 1057YOPC   C4B14166   8.831  -0.065   8.070 -0.0317  0.0960 -0.0717
 1058YOPC   NC314167  15.281   3.817   5.917 -0.0382 -0.0028 -0.3992
 1058YOPC   PO414168  14.932   3.948   5.681 -0.2497 -0.1705  0.0552
 1058YOPC   GL114169  15.047   4.257   6.197  0.0972 -0.1148  0.2951
 1058YOPC   GL214170  15.361   4.098   6.302  0.2711  0.0537 -0.0226
 1058YOPC   C1A14171  15.040   4.413   6.560  0.1437  0.0268  0.2300
 1058YOPC   D2A14172  15.105   4.631   6.878  0.0241  0.1152 -0.0542
 1058YOPC   C3A14173  15.180   4.553   7.259  0.0554  0.0257 -0.2208
 1058YOPC   C4A14174  15.158   4.541   7.688 -0.1976  0.2974  0.3413
 1058YOPC   C1B14175  15.651   3.917   6.672  0.3867 -0.1459 -0.0520
 1058YOPC   C2B14176  15.945   3.812   7.031  0.1421 -0.3583  0.1791
 1058YOPC   D3B14177  15.833   3.948   7.486 -0.3935  0.2151  0.4420
 1058YOPC   C4B14178  15.881   3.953   7.999  0.0612 -0.3161 -0.0276
 1059YOPC   NC314179  11.795   1.475   5.728 -0.0446 -0.1675 -0.1237
 1059YOPC   PO414180  11.943   1.989   5.777  0.1086  0.0689 -0.0468
 1059YOPC   GL114181  11.938   1.926   6.210 -0.2535  0.1181  0.2201
 1059YOPC   GL214182  11.823   2.156   6.304 -0.0458 -0.0521 -0.1176
 1059YOPC   C1A14183  11.612   1.586   6.371 -0.0120  0.1487 -0.0286
 1059YOPC   D2A14184  11.266   1.444   6.447 -0.0834 -0.0769 -0.1707
 1059YOPC   C3A14185  11.027   1.710   6.312 -0.3238 -0.0156 -0.1210
 1059YOPC   C4A14186  10.767   2.026   6.453 -0.3145 -0.2791  0.1884
 1059YOPC   C1B14187  11.754   1.972   6.714  0.2984  0.0342  0.2339
 1059YOPC   C2B14188  12.062   1.780   7.105 -0.0688  0.1654  0.0021
 1059YOPC   D3B14189  11.958   1.428   7.045  0.1099  0.0782 -0.3665
 1059YOPC   C4B14190  11.908   1.013   7.041 -0.2687 -0.1318  0.2899
 1060YOPC   NC314191   2.158   5.716   6.043  0.1848  0.1555  0.2131
 1060YOPC   PO414192   1.879   5.466   6.020  0.1236  0.2217  0.1914
 1060YOPC   GL114193   2.015   5.295   6.433  0.4574  0.1448 -0.1354
 1060YOPC   GL214194   1.972   4.961   6.238 -0.2050 -0.0772  0.3323
 1060YOPC   C1A14195   1.962   5.047   6.846  0.1110 -0.2119  0.0251
 1060YOPC   D2A14196   1.652   4.946   7.138 -0.3949  0.0049  0.0798
 1060YOPC   C3A14197   1.654   4.976   7.531  0.4037  0.4126  0.1245
 1060YOPC   C4A14198   1.574   5.036   7.933  0.0015 -0.0653 -0.2763
 1060YOPC   C1B14199   2.102   4.673   6.553 -0.0462 -0.1497 -0.0704
 1060YOPC   C2B14200   2.002   4.516   6.927  0.1554 -0.0981 -0.0303
 1060YOPC   D3B14201   1.957   4.085   6.995 -0.3810  0.1262  0.1647
 1060YOPC   C4B14202   1.661   3.923   7.288 -0.0611 -0.1129 -0.1132
 1061YOPC   NC314203   6.052   3.301   5.984 -0.2752  0.1136  0.0835
 1061YOPC   PO414204   5.628   3.043   5.953  0.0556 -0.1607 -0.1421
 1061YOPC   GL114205   5.334   3.026   6.327 -0.0695  0.3175  0.0756
 1061YOPC   GL214206   5.264   2.730   6.556 -0.0502  0.0213  0.1304
 1061YOPC   C1A14207   5.341   3.226   6.726 -0.4911  0.2488  0.1212
 1061YOPC   D2A14208   5.310   3.424   7.129 -0.0254 -0.1523 -0.0925
 1061YOPC   C3A14209   4.995   3.567   7.439  0.0161 -0.1478  0.0255
 1061YOPC   C4A14210   5.126   3.982   7.658 -0.2169 -0.0039 -0.1760
 1061YOPC   C1B14211   5.463   2.615   6.981  0.0189  0.0901  0.0902
 1061YOPC   C2B14212   5.734   2.187   7.226  0.0169  0.4162  0.4184
 1061YOPC   D3B14213   5.838   2.195   7.678 -0.0823  0.3435 -0.1346
 1061YOPC   C4B14214   5.603   1.999   8.059 -0.1430 -0.3673  0.0684
 1062YOPC   NC314215   6.172  12.345   5.239  0.0415  0.2456 -0.0228
 1062YOPC   PO414216   6.467  12.061   5.348 -0.0470 -0.3562  0.0020
 1062YOPC   GL114217   6.593  12.192   5.747 -0.2199  0.0411 -0.0755
 1062YOPC   GL214218   6.503  12.487   5.668  0.1582 -0.0522 -0.0431
 1062YOPC   C1A14219   6.849  11.892   6.034 -0.0974 -0.0123 -0.0096
 1062YOPC   D2A14220   7.207  11.846   6.167  0.6063  0.2707 -0.1023
 1062YOPC   C3A14221   7.319  11.850   6.568 -0.3920 -0.2353  0.2982
 1062YOPC   C4A14222   7.264  11.789   6.986 -0.0803 -0.4524  0.1188
 1062YOPC   C1B14223   6.470  12.376   6.174 -0.0585  0.1473 -0.1361
 1062YOPC   C2B14224   6.093  12.330   6.542 -0.0060  0.0017 -0.1172
 1062YOPC   D3B14225   5.754  12.611   6.397 -0.0118  0.1462 -0.0203
 1062YOPC   C4B14226   5.373  12.840   6.365  0.2865  0.1279  0.0563
 1063YOPC   NC314227  12.852   3.473   5.933 -0.1538 -0.0430  0.0347
 1063YOPC   PO414228  13.079   3.907   6.085  0.3015 -0.3583 -0.0559
 1063YOPC   GL114229  13.273   3.886   6.364 -0.0029 -0.0168  0.3528
 1063YOPC   GL214230  13.458   4.005   6.464  0.1092  0.1752 -0.0760
 1063YOPC   C1A14231  13.278   3.597   6.652  0.1807 -0.3249 -0.0736
 1063YOPC   D2A14232  13.185   3.506   7.067  0.0145  0.2922 -0.1939
 1063YOPC   C3A14233  13.045   3.608   7.358  0.0273  0.0884 -0.4212
 1063YOPC   C4A14234  12.671   3.588   7.709 -0.0828 -0.2454  0.4264
 1063YOPC   C1B14235  13.205   4.067   6.893  0.1037 -0.2569 -0.0002
 1063YOPC   C2B14236  13.300   4.044   7.278 -0.3692  0.0152 -0.1746
 1063YOPC   D3B14237  13.066   4.022   7.641  0.0110  0.0458 -0.0299
 1063YOPC   C4B14238  12.699   4.113   7.845 -0.0975 -0.1795 -0.1126
 1064YOPC   NC314239  12.346  11.267   5.397 -0.0035 -0.1549  0.0808
 1064YOPC   PO414240  12.167  11.450   5.693  0.0687 -0.2337  0.1049
 1064YOPC   GL114241  11.974  11.198   6.086 -0.1223  0.0851  0.0730
 1064YOPC   GL214242  11.957  10.945   6.146  0.0234 -0.1024 -0.0107
 1064YOPC   C1A14243  11.846  11.449   6.455 -0.1801  0.0546 -0.1824
 1064YOPC   D2A14244  11.948  11.581   6.798  0.0159  0.0474 -0.2507
 1064YOPC   C3A14245  11.915  11.414   7.195  0.1789  0.0388  0.0250
 1064YOPC   C4A14246  11.826  11.248   7.683  0.0247 -0.1149  0.2236
 1064YOPC   C1B14247  12.172  11.007   6.592 -0.0435 -0.3040 -0.0311
 1064YOPC   C2B14248  12.278  11.241   6.910 -0.2784  0.3518  0.3487
 1064YOPC   D3B14249  12.411  11.295   7.302  0.0267 -0.0702 -0.1029
 1064YOPC   C4B14250  12.286  11.597   7.659 -0.0386  0.0022  0.1022
 1065YOPC   NC314251   4.747  10.360   5.797 -0.1563 -0.3769  0.4478
 1065YOPC   PO414252   4.577   9.949   5.885 -0.3014  0.1570  0.1078
 1065YOPC   GL114253   4.748  10.164   6.247  0.0534  0.0433 -0.0978
 1065YOPC   GL214254   4.506  10.425   6.246 -0.1841 -0.1246 -0.0139
 1065YOPC   C1A14255   4.907  10.294   6.661  0.1854 -0.0378 -0.1376
 1065YOPC   D2A14256   4.978  10.526   6.948 -0.1701  0.1865 -0.0372
 1065YOPC   C3A14257   4.820  10.465   7.355  0.2109  0.0432 -0.1535
 1065YOPC   C4A14258   4.502  10.660   7.602  0.2104 -0.0705  0.0833
 1065YOPC   C1B14259   4.443  10.545   6.695 -0.0813 -0.0903 -0.0145
 1065YOPC   C2B14260   4.423  10.691   7.020  0.0714 -0.2174  0.1209
 1065YOPC   D3B14261   4.221  10.515   7.224 -0.1901 -0.1705 -0.4022
 1065YOPC   C4B14262   3.896  10.549   7.568  0.1878 -0.3384 -0.0375
 1066YOPC   NC314263   9.611  13.049   5.470  0.3202 -0.0511  0.1670
 1066YOPC   PO414264   9.314  13.257   5.716  0.1849  0.1449 -0.3654
 1066YOPC   GL114265   9.611  13.514   5.780 -0.1436  0.1379 -0.1375
 1066YOPC   GL214266   9.922  13.348   5.730 -0.1094 -0.1800  0.0354
 1066YOPC   C1A14267   9.785  13.596   6.249 -0.1950  0.3256 -0.1183
 1066YOPC   D2A14268   9.954  13.435   6.627 -0.1533  0.0218 -0.0001
 1066YOPC   C3A14269   9.773  13.218   6.926 -0.0533  0.3328 -0.0483
 1066YOPC   C4A14270   9.835  13.222   7.386  0.0316  0.2627  0.2691
 1066YOPC   C1B14271  10.149  13.265   6.143 -0.1230 -0.1215  0.3060
 1066YOPC   C2B14272  10.538  13.251   6.326  0.1321  0.0782  0.2074
 1066YOPC   D3B14273  10.589  13.527   6.638 -0.2835  0.1349 -0.0888
 1066YOPC   C4B14274  10.797  13.635   7.054 -0.1384  0.1287 -0.1495
 1067YOPC   NC314275  16.774   5.039   5.391  0.0588  0.0551  0.0143
 1067YOPC   PO414276  16.814   5.351   5.403 -0.1621  0.2996 -0.0186
 1067YOPC   GL114277  17.019   5.327   5.810 -0.0467 -0.2375  0.1154
 1067YOPC   GL214278  17.112   5.033   5.912 -0.0516  0.1942 -0.2568
 1067YOPC   C1A14279  17.449   5.367   6.085  0.0377 -0.2912 -0.0143
 1067YOPC   D2A14280  17.782   5.191   6.244 -0.0921  0.1557 -0.0389
 1067YOPC   C3A14281  18.043   5.554   6.343  0.1356  0.0350 -0.0034
 1067YOPC   C4A14282  18.078   6.024   6.237 -0.1416 -0.1431  0.0812
 1067YOPC   C1B14283  17.116   4.996   6.302  0.1650 -0.1030 -0.1621
 1067YOPC   C2B14284  16.684   4.949   6.542 -0.4951  0.4233  0.0229
 1067YOPC   D3B14285  16.728   4.943   7.047  0.3371 -0.1749  0.1635
 1067YOPC   C4B14286  16.764   5.027   7.441 -0.0413  0.4030  0.4816
 1068YOPC   NC314287  15.893  18.024   6.173 -0.0874 -0.0115  0.1290
 1068YOPC   PO414288  16.322  18.262   5.883 -0.2438  0.1577 -0.3948
 1068YOPC   GL114289  16.342  18.408   6.295  0.0277 -0.1254 -0.0675
 1068YOPC   GL214290  16.154  18.658   6.430 -0.0504 -0.0606 -0.2419
 1068YOPC   C1A14291  16.530  18.309   6.693  0.2452  0.2742 -0.3285
 1068YOPC   D2A14292  16.410  18.186   7.167 -0.1872  0.1391  0.0822
 1068YOPC   C3A14293  16.697  18.241   7.476 -0.0313  0.0482 -0.1102
 1068YOPC   C4A14294  16.812  18.108   7.838 -0.2146 -0.0265  0.0012
 1068YOPC   C1B14295  16.167  18.593   6.775 -0.2261  0.0054 -0.0229
 1068YOPC   C2B14296  15.938  18.551   7.153 -0.1627  0.0894 -0.3355
 1068YOPC   D3B14297  15.600  18.662   7.132 -0.0270 -0.1509 -0.1318
 1068YOPC   C4B14298  15.317  18.881   7.402 -0.0882  0.1254 -0.0303
 1069YOPC   NC314299   4.293  14.535   5.272  0.2608 -0.0197  0.0474
 1069YOPC   PO414300   4.061  14.152   5.459 -0.1124 -0.4499 -0.2432
 1069YOPC   GL114301   4.280  13.935   5.768  0.2230  0.2678 -0.0395
 1069YOPC   GL214302   4.537  13.790   5.770 -0.0348 -0.2553 -0.2295
 1069YOPC   C1A14303   4.295  14.146   6.189 -0.0589  0.3088 -0.1423
 1069YOPC   D2A14304   4.762  14.256   6.223  0.3331  0.1046  0.0346
 1069YOPC   C3A14305   5.104  14.040   6.368  0.2244 -0.1394  0.1682
 1069YOPC   C4A14306   5.388  14.241   6.531 -0.2498 -0.0923 -0.1748
 1069YOPC   C1B14307   4.602  13.754   6.196  0.0597 -0.0472 -0.2734
 1069YOPC   C2B14308   4.519  13.971   6.572  0.0065  0.5847  0.1424
 1069YOPC   D3B14309   4.834  14.226   6.763  0.2048  0.1988  0.1353
 1069YOPC   C4B14310   4.658  14.559   7.097  0.0287 -0.0996  0.2418
 1070YOPC   NC314311  18.226   7.152   5.505 -0.1482 -0.1697 -0.1435
 1070YOPC   PO414312  17.984   7.346   5.163 -0.1945 -0.3519  0.0670
 1070YOPC   GL114313  17.731   7.388   5.599  0.2085 -0.0782  0.0590
 1070YOPC   GL214314  17.746   7.092   5.674 -0.0782 -0.1386  0.0930
 1070YOPC   C1A14315  17.837   7.449   6.009 -0.1746 -0.0228  0.3180
 1070YOPC   D2A14316  18.018   7.395   6.365 -0.2833  0.1776 -0.1264
 1070YOPC   C3A14317  17.771   7.289   6.839 -0.1595 -0.3180  0.0573
 1070YOPC   C4A14318  17.814   7.295   7.330 -0.1716 -0.0304  0.0198
 1070YOPC   C1B14319  17.822   6.912   6.128  0.1956  0.0101  0.0639
 1070YOPC   C2B14320  17.499   6.850   6.526  0.0068 -0.0361 -0.3055
 1070YOPC   D3B14321  17.622   6.845   6.977  0.1915  0.2918 -0.0810
 1070YOPC   C4B14322  17.428   6.677   7.370 -0.1328  0.1109 -0.0089
 1071YOPC   NC314323   4.400   8.208   5.740  0.4077  0.0869  0.2699
 1071YOPC   PO414324   3.926   8.354   5.601 -0.0940  0.0714  0.0503
 1071YOPC   GL114325   3.797   8.371   6.042 -0.2943 -0.0095 -0.2210
 1071YOPC   GL214326   3.746   8.693   6.128  0.0652  0.0832 -0.0341
 1071YOPC   C1A14327   3.891   8.185   6.493  0.1085 -0.0754 -0.0462
 1071YOPC   D2A14328   3.578   8.061   6.841 -0.0554 -0.0740 -0.1611
 1071YOPC   C3A14329   3.765   8.207   7.324  0.0116 -0.0026  0.0780
 1071YOPC   C4A14330   3.873   8.564   7.605 -0.0227 -0.2307  0.1596
 1071YOPC   C1B14331   4.027   8.666   6.480 -0.5002 -0.1848  0.2923
 1071YOPC   C2B14332   4.125   8.999   6.748  0.0059  0.0422  0.0529
 1071YOPC   D3B14333   4.244   8.872   7.250 -0.0765 -0.0170  0.1506
 1071YOPC   C4B14334   4.339   8.729   7.781 -0.1894 -0.0253  0.1668
 1072YOPC   NC314335  14.475  15.243   5.555 -0.0219  0.3839  0.0131
 1072YOPC   PO414336  14.339  14.884   5.843 -0.1924 -0.0248  0.0043
 1072YOPC   GL114337  14.480  14.902   6.288 -0.0690  0.2949  0.2087
 1072YOPC   GL214338  14.253  14.700   6.432  0.3034  0.1560  0.1203
 1072YOPC   C1A14339  14.455  15.100   6.637 -0.0755  0.1513  0.0399
 1072YOPC   D2A14340  14.295  15.247   7.108 -0.2302  0.4316 -0.2106
 1072YOPC   C3A14341  14.144  15.198   7.555 -0.0740  0.1805 -0.1020
 1072YOPC   C4A14342  13.747  15.053   7.627  0.0433 -0.4440  0.5154
 1072YOPC   C1B14343  14.467  14.592   6.754 -0.3089  0.0275 -0.0404
 1072YOPC   C2B14344  14.860  14.312   6.848  0.0711  0.1351 -0.1594
 1072YOPC   D3B14345  14.949  14.198   7.244  0.1595 -0.0828 -0.2654
 1072YOPC   C4B14346  15.021  13.760   7.381 -0.1097 -0.2803  0.0613
 1073YOPC   NC314347   2.592   2.880   5.896  0.0590 -0.2926 -0.2130
 1073YOPC   PO414348   2.609   3.274   6.051 -0.0599 -0.4056 -0.0390
 1073YOPC   GL114349   2.746   3.197   6.472  0.1558 -0.1658 -0.0370
 1073YOPC   GL214350   3.057   3.100   6.365  0.0961  0.2653  0.0771
 1073YOPC   C1A14351   2.686   3.170   6.881 -0.4498 -0.3312  0.1730
 1073YOPC   D2A14352   2.627   3.180   7.328 -0.3031 -0.0193 -0.1144
 1073YOPC   C3A14353   2.202   3.107   7.509 -0.0662  0.1128 -0.2254
 1073YOPC   C4A14354   2.006   3.185   7.987 -0.1033  0.0198  0.0530
 1073YOPC   C1B14355   3.330   3.239   6.698 -0.1505  0.1447 -0.4393
 1073YOPC   C2B14356   3.586   3.383   7.062  0.3462  0.0067 -0.1476
 1073YOPC   D3B14357   3.445   3.362   7.500  0.0899  0.0113 -0.0985
 1073YOPC   C4B14358   3.461   2.941   7.752  0.1868  0.0310  0.1107
 1074YOPC   NC314359  13.979   4.437   5.690  0.2032  0.4082 -0.0121
 1074YOPC   PO414360  14.267   4.612   5.899 -0.1996  0.0690 -0.1179
 1074YOPC   GL114361  14.322   4.511   6.271 -0.2309  0.2384  0.2722
 1074YOPC   GL214362  14.517   4.246   6.376  0.1093  0.0365 -0.1001
 1074YOPC   C1A14363  14.199   4.518   6.664  0.2901 -0.0537 -0.0079
 1074YOPC   D2A14364  14.159   4.645   7.045 -0.0284  0.0219 -0.3978
 1074YOPC   C3A14365  13.841   4.864   7.044  0.6567  0.2678 -0.2534
 1074YOPC   C4A14366  13.730   5.022   6.571 -0.3441  0.1260  0.0969
 1074YOPC   C1B14367  14.607   4.284   6.834  0.1194 -0.0119  0.2591
 1074YOPC   C2B14368  14.727   4.245   7.235 -0.0551 -0.1844  0.0716
 1074YOPC   D3B14369  14.374   4.369   7.345 -0.1858  0.0593  0.3595
 1074YOPC   C4B14370  14.339   4.763   7.603  0.0150  0.0516 -0.0612
 1075YOPC   NC314371   1.348  17.876   5.554 -0.0917 -0.0366 -0.0736
 1075YOPC   PO414372   1.075  17.969   5.925 -0.0821 -0.0111 -0.1037
 1075YOPC   GL114373   1.385  17.841   6.225  0.2338  0.2071  0.1054
 1075YOPC   GL214374   1.546  18.004   6.361  0.3460 -0.0535 -0.0582
 1075YOPC   C1A14375   1.291  17.671   6.664 -0.0185  0.1017 -0.4390
 1075YOPC   D2A14376   1.468  17.692   7.032  0.1031 -0.0801 -0.0431
 1075YOPC   C3A14377   1.828  17.508   7.169  0.0664  0.0405  0.3476
 1075YOPC   C4A14378   2.050  17.383   7.632  0.3546 -0.0001  0.2365
 1075YOPC   C1B14379   1.661  18.218   6.705 -0.0784 -0.1786  0.1698
 1075YOPC   C2B14380   1.535  18.693   6.793 -0.0247  0.0501 -0.1897
 1075YOPC   D3B14381   1.285  18.674   7.077 -0.2759 -0.2347 -0.0202
 1075YOPC   C4B14382   0.914  18.657   7.357 -0.0383 -0.1863  0.3169
 1076YOPC   NC314383   6.917   0.729   5.846 -0.0057 -0.3063 -0.2149
 1076YOPC   PO414384   6.996   1.147   5.883  0.4112 -0.0126 -0.2092
 1076YOPC   GL114385   6.920   1.413   6.297  0.4355 -0.1748 -0.3126
 1076YOPC   GL214386   7.178   1.191   6.376 -0.0273  0.0839  0.2557
 1076YOPC   C1A14387   6.982   1.621   6.710 -0.0103  0.2407  0.0959
 1076YOPC   D2A14388   7.111   1.504   7.056  0.0749  0.3536 -0.1252
 1076YOPC   C3A14389   6.876   1.495   7.475  0.0726 -0.1637  0.0588
 1076YOPC   C4A14390   6.647   1.477   7.886  0.1452 -0.1774 -0.2725
 1076YOPC   C1B14391   6.883   1.150   6.748  0.0239  0.0295  0.0521
 1076YOPC   C2B14392   6.619   1.133   7.179 -0.0570 -0.1970 -0.2143
 1076YOPC   D3B14393   6.704   1.055   7.610 -0.1959 -0.0505  0.1777
 1076YOPC   C4B14394   6.983   0.990   8.036  0.1779  0.0264 -0.3481
 1077YOPC   NC314395   9.830   7.553   5.576 -0.0474 -0.0737  0.2853
 1077YOPC   PO414396  10.083   7.975   5.491  0.2268  0.2073 -0.0057
 1077YOPC   GL114397  10.362   8.048   5.882  0.0616  0.1291  0.2427
 1077YOPC   GL214398  10.216   8.261   6.094  0.0296 -0.1420 -0.2688
 1077YOPC   C1A14399  10.525   7.907   6.339 -0.0149  0.2005 -0.0286
 1077YOPC   D2A14400  10.382   7.589   6.699  0.1384  0.0114  0.0273
 1077YOPC   C3A14401  10.466   7.700   7.125  0.1718  0.3720 -0.1689
 1077YOPC   C4A14402  10.245   7.774   7.462  0.1074 -0.0815  0.1844
 1077YOPC   C1B14403  10.031   8.181   6.436  0.0146 -0.1229 -0.0189
 1077YOPC   C2B14404   9.677   8.081   6.660 -0.0294 -0.1246  0.1484
 1077YOPC   D3B14405   9.667   8.134   7.008 -0.1983  0.0999  0.2635
 1077YOPC   C4B14406   9.681   8.202   7.367  0.2831 -0.2154 -0.1148
 1078YOPC   NC314407   1.434  16.024   5.633 -0.0166  0.1735 -0.2082
 1078YOPC   PO414408   1.368  15.601   5.556 -0.1485 -0.0363  0.2097
 1078YOPC   GL114409   1.329  15.719   6.024 -0.0209 -0.1244  0.1275
 1078YOPC   GL214410   1.104  15.761   6.180  0.0315 -0.1953 -0.2164
 1078YOPC   C1A14411   1.623  15.865   6.213  0.0024 -0.0517 -0.2660
 1078YOPC   D2A14412   1.868  15.821   6.627 -0.1323 -0.2860 -0.0448
 1078YOPC   C3A14413   1.866  15.948   7.101  0.3519 -0.0086 -0.0042
 1078YOPC   C4A14414   1.765  16.099   7.429 -0.0306  0.1413  0.4130
 1078YOPC   C1B14415   1.226  15.906   6.570  0.3173  0.1917 -0.1925
 1078YOPC   C2B14416   1.391  16.125   6.992 -0.0104  0.3145 -0.1083
 1078YOPC   D3B14417   1.125  15.988   7.317  0.0469  0.1502 -0.5055
 1078YOPC   C4B14418   1.010  15.652   7.658  0.1864  0.0652 -0.0333
 1079YOPC   NC314419   9.938  12.432   5.614 -0.1107  0.0575 -0.1133
 1079YOPC   PO414420  10.034  12.837   5.629 -0.0773 -0.2281 -0.0065
 1079YOPC   GL114421   9.779  12.832   5.936  0.1734  0.0618  0.0551
 1079YOPC   GL214422   9.636  13.065   6.111  0.3374 -0.4250  0.0329
 1079YOPC   C1A14423   9.533  12.599   6.265  0.1502 -0.0457  0.1277
 1079YOPC   D2A14424   9.254  12.432   6.542  0.0375  0.1498  0.0299
 1079YOPC   C3A14425   9.085  12.403   6.921  0.1033 -0.3337 -0.1470
 1079YOPC   C4A14426   8.950  12.732   7.190  0.0758  0.4121 -0.0944
 1079YOPC   C1B14427   9.637  13.063   6.441 -0.1375  0.0274 -0.0318
 1079YOPC   C2B14428   9.770  12.707   6.808  0.2838 -0.2669 -0.1130
 1079YOPC   D3B14429  10.107  12.879   7.075  0.0649 -0.0642  0.2734
 1079YOPC   C4B14430  10.178  12.773   7.492  0.1855 -0.0329 -0.1192
 1080YOPC   NC314431  17.304  15.135   5.952  0.1241 -0.0431  0.0300
 1080YOPC   PO414432  17.005  15.128   6.164  0.0709 -0.1301 -0.1172
 1080YOPC   GL114433  17.031  14.706   6.409 -0.2434 -0.3019  0.0018
 1080YOPC   GL214434  17.372  14.732   6.550  0.1051 -0.1557 -0.1106
 1080YOPC   C1A14435  17.086  14.388   6.781  0.1082 -0.0503 -0.0318
 1080YOPC   D2A14436  17.012  14.282   7.283 -0.2292 -0.2567  0.2045
 1080YOPC   C3A14437  16.596  14.276   7.385  0.0947 -0.0687 -0.1497
 1080YOPC   C4A14438  16.242  14.513   7.253 -0.1166  0.0114 -0.0593
 1080YOPC   C1B14439  17.179  14.987   6.859  0.1701 -0.0023 -0.0856
 1080YOPC   C2B14440  17.327  14.820   7.204 -0.2907  0.1312 -0.2556
 1080YOPC   D3B14441  16.984  14.781   7.524  0.1488 -0.0731  0.1083
 1080YOPC   C4B14442  16.775  14.537   7.869 -0.1332  0.0293  0.2228
 1081YOPC   NC314443  17.643  14.407   5.459  0.0018  0.4662 -0.1593
 1081YOPC   PO414444  17.594  14.785   5.512  0.0310 -0.2889 -0.1236
 1081YOPC   GL114445  17.577  14.730   5.975  0.4604  0.1430 -0.0296
 1081YOPC   GL214446  17.734  14.408   6.034 -0.0129 -0.1572 -0.2503
 1081YOPC   C1A14447  18.054  14.829   6.216  0.1191  0.1496  0.0248
 1081YOPC   D2A14448  18.157  14.678   6.638 -0.2110 -0.0714  0.2744
 1081YOPC   C3A14449  18.580  14.428   6.629  0.2576  0.3590 -0.4724
 1081YOPC   C4A14450  18.651  14.062   6.480 -0.1590 -0.0399 -0.0632
 1081YOPC   C1B14451  17.741  14.518   6.402  0.1352 -0.0920 -0.1836
 1081YOPC   C2B14452  17.644  14.543   6.867  0.2923 -0.0675  0.0136
 1081YOPC   D3B14453  17.651  14.449   7.238 -0.2985  0.1065 -0.0582
 1081YOPC   C4B14454  17.462  14.485   7.566  0.2009 -0.0985 -0.1158
 1082YOPC   NC314455   6.593   3.483   6.109  0.2032  0.2413 -0.0058
 1082YOPC   PO414456   6.252   3.753   6.184  0.2952  0.1053 -0.1752
 1082YOPC   GL114457   6.041   4.048   6.487  0.0273  0.1226 -0.3237
 1082YOPC   GL214458   6.389   4.160   6.640  0.0582  0.2019  0.3018
 1082YOPC   C1A14459   5.710   4.069   6.828 -0.1990 -0.1096 -0.0567
 1082YOPC   D2A14460   5.479   4.036   7.203  0.1445  0.2974 -0.0784
 1082YOPC   C3A14461   5.664   3.915   7.645  0.0422 -0.1651  0.0973
 1082YOPC   C4A14462   5.810   3.575   7.820 -0.1135 -0.2402  0.2632
 1082YOPC   C1B14463   6.200   4.137   6.992  0.3299 -0.0432  0.0273
 1082YOPC   C2B14464   5.920   4.229   7.283 -0.0836  0.0422  0.0928
 1082YOPC   D3B14465   5.936   4.443   7.622  0.0332  0.0238  0.1955
 1082YOPC   C4B14466   5.830   4.331   7.989  0.2202 -0.0183 -0.4604
 1083YOPC   NC314467   1.372  11.090   6.114  0.0650 -0.0019 -0.2057
 1083YOPC   PO414468   1.013  11.160   6.147  0.1821  0.0035 -0.0257
 1083YOPC   GL114469   1.127  11.530   6.293 -0.0831 -0.0233 -0.2243
 1083YOPC   GL214470   1.352  11.656   6.051  0.0837  0.0273 -0.1835
 1083YOPC   C1A14471   1.000  11.978   6.425 -0.0640 -0.1831 -0.0871
 1083YOPC   D2A14472   0.935  12.237   6.618 -0.1165  0.1138  0.0778
 1083YOPC   C3A14473   1.183  12.234   6.971  0.1981  0.0315  0.1727
 1083YOPC   C4A14474   1.523  12.326   7.318  0.1012  0.1066  0.0777
 1083YOPC   C1B14475   1.528  11.946   6.194  0.2010  0.2678  0.0804
 1083YOPC   C2B14476   1.474  12.433   6.321 -0.1459  0.1831  0.3897
 1083YOPC   D3B14477   1.757  12.834   6.567  0.1193  0.0473  0.0662
 1083YOPC   C4B14478   2.160  12.804   6.806  0.0173 -0.1001  0.2737
 1084YOPC   NC314479   0.713   0.008   6.012 -0.0930 -0.5365  0.1250
 1084YOPC   PO414480   0.890   0.436   5.839  0.0290  0.2092 -0.0763
 1084YOPC   GL114481   1.334   0.534   5.978  0.2631 -0.0310  0.0643
 1084YOPC   GL214482   1.484   0.327   6.174  0.0136 -0.0289  0.0428
 1084YOPC   C1A14483   1.605   0.851   6.309  0.2194  0.1106  0.2357
 1084YOPC   D2A14484   1.770   1.188   6.479  0.0346 -0.1229 -0.0407
 1084YOPC   C3A14485   1.916   1.263   6.862  0.0429 -0.1467 -0.0476
 1084YOPC   C4A14486   2.204   1.567   6.965  0.1707  0.0018 -0.1775
 1084YOPC   C1B14487   1.201   0.531   6.485 -0.5717 -0.4775 -0.0335
 1084YOPC   C2B14488   0.946   0.636   6.884 -0.0361  0.1696 -0.0097
 1084YOPC   D3B14489   0.954   1.030   6.991  0.0878 -0.0365 -0.1707
 1084YOPC   C4B14490   1.009   1.458   7.027  0.0749  0.0544  0.0342
 1085YOPC   NC314491   5.089  15.582   5.563 -0.0406 -0.3264 -0.0415
 1085YOPC   PO414492   5.135  15.235   5.547 -0.1470  0.2509 -0.1795
 1085YOPC   GL114493   5.173  15.189   5.970 -0.0303  0.0569 -0.1894
 1085YOPC   GL214494   4.911  15.077   5.988  0.0957  0.0153 -0.3285
 1085YOPC   C1A14495   5.227  15.096   6.445 -0.0265  0.0268 -0.1234
 1085YOPC   D2A14496   5.477  15.098   6.802 -0.0113  0.1021 -0.1035
 1085YOPC   C3A14497   5.357  15.299   7.194 -0.0396 -0.2331  0.2396
 1085YOPC   C4A14498   5.188  15.535   7.499  0.2919  0.2424 -0.0339
 1085YOPC   C1B14499   4.775  14.881   6.408 -0.0747  0.1822  0.3225
 1085YOPC   C2B14500   4.527  14.920   6.713  0.1933  0.2933  0.0714
 1085YOPC   D3B14501   4.359  15.268   6.806  0.1492 -0.1419  0.0117
 1085YOPC   C4B14502   4.356  15.677   6.608 -0.2353  0.1559 -0.0456
 1086YOPC   NC314503  14.483  11.410   5.868 -0.2367 -0.0165  0.1732
 1086YOPC   PO414504  14.500  10.988   5.658 -0.1173 -0.0962 -0.1993
 1086YOPC   GL114505  14.235  11.054   6.092 -0.3097 -0.2424  0.0619
 1086YOPC   GL214506  14.245  11.367   6.307 -0.0766 -0.0265  0.3100
 1086YOPC   C1A14507  14.300  10.827   6.496 -0.0854  0.0002 -0.2424
 1086YOPC   D2A14508  14.241  10.664   7.004 -0.1478 -0.0174  0.0912
 1086YOPC   C3A14509  14.613  10.586   7.258 -0.1398 -0.1541  0.1538
 1086YOPC   C4A14510  14.987  10.395   7.143  0.0162 -0.0696 -0.1694
 1086YOPC   C1B14511  14.447  11.294   6.655 -0.1366 -0.1989 -0.1881
 1086YOPC   C2B14512  14.483  11.095   7.122  0.0216 -0.1258  0.0089
 1086YOPC   D3B14513  14.354  11.171   7.507  0.0926  0.0936 -0.1131
 1086YOPC   C4B14514  14.193  11.116   7.773  0.0646 -0.0548 -0.3280
 1087YOPC   NC314515   4.225   5.396   5.607 -0.4182 -0.0117 -0.2266
 1087YOPC   PO414516   4.072   5.205   5.939 -0.1450  0.3386 -0.0680
 1087YOPC   GL114517   4.360   5.192   6.353  0.2076  0.0097 -0.1957
 1087YOPC   GL214518   4.504   4.939   6.390 -0.2113  0.0791 -0.0368
 1087YOPC   C1A14519   4.509   5.253   6.814 -0.3420  0.1606  0.1691
 1087YOPC   D2A14520   4.559   5.010   7.228  0.1891 -0.1403  0.0409
 1087YOPC   C3A14521   4.787   5.164   7.608 -0.2726 -0.2167 -0.2365
 1087YOPC   C4A14522   5.288   5.293   7.826 -0.0432 -0.0611  0.2331
 1087YOPC   C1B14523   4.280   4.803   6.755  0.0951  0.1206 -0.0253
 1087YOPC   C2B14524   4.198   4.721   7.234  0.3421 -0.0983 -0.1725
 1087YOPC   D3B14525   4.488   4.718   7.583  0.0080  0.2500  0.0889
 1087YOPC   C4B14526   4.722   4.728   7.931  0.2569  0.0112  0.1657
 1088YOPC   NC314527  14.568   6.769   6.001 -0.0679 -0.0708 -0.0962
 1088YOPC   PO414528  14.796   6.530   6.070  0.0888  0.1437  0.1854
 1088YOPC   GL114529  14.568   6.561   6.420  0.1766  0.1987  0.1810
 1088YOPC   GL214530  14.365   6.825   6.499 -0.0654  0.3018 -0.0568
 1088YOPC   C1A14531  14.826   6.916   6.657  0.1706  0.2607 -0.0376
 1088YOPC   D2A14532  14.875   7.139   6.936 -0.3224 -0.0310 -0.0253
 1088YOPC   C3A14533  14.880   7.361   7.387  0.2020 -0.3250 -0.1238
 1088YOPC   C4A14534  15.296   7.379   7.659  0.0495 -0.1430  0.0184
 1088YOPC   C1B14535  14.434   6.827   6.958  0.0740 -0.2285  0.2118
 1088YOPC   C2B14536  14.652   6.851   7.358  0.4048  0.1849  0.2873
 1088YOPC   D3B14537  14.343   6.797   7.734 -0.0559  0.1001  0.1458
 1088YOPC   C4B14538  14.111   6.873   8.148 -0.3854  0.1860 -0.2882
 1089YOPC   NC314539   3.150  12.472   5.712  0.1926 -0.0336 -0.4080
 1089YOPC   PO414540   3.309  12.146   5.519  0.3814 -0.4869 -0.0977
 1089YOPC   GL114541   3.416  11.915   5.903 -0.1318  0.0799  0.0875
 1089YOPC   GL214542   3.399  12.187   6.057 -0.0947 -0.1568 -0.0967
 1089YOPC   C1A14543   3.530  11.813   6.304 -0.2166 -0.3403 -0.1388
 1089YOPC   D2A14544   3.572  11.821   6.725 -0.3086 -0.3381  0.2701
 1089YOPC   C3A14545   3.918  11.921   7.051  0.0301  0.0382 -0.0737
 1089YOPC   C4A14546   4.039  12.029   7.516 -0.1797  0.2044  0.0558
 1089YOPC   C1B14547   3.535  12.294   6.442 -0.1316  0.0407 -0.4050
 1089YOPC   C2B14548   3.730  12.358   6.888  0.1159 -0.1303  0.3102
 1089YOPC   D3B14549   3.502  12.138   7.259  0.3267  0.1495 -0.0448
 1089YOPC   C4B14550   3.070  12.264   7.432 -0.3733 -0.0741 -0.0392
 1090YOPC   NC314551   9.733  14.899   5.771 -0.3428  0.2889 -0.1432
 1090YOPC   PO414552   9.494  14.560   5.962 -0.4755  0.4125  0.3756
 1090YOPC   GL114553   9.794  14.602   6.253 -0.0140  0.4173  0.1383
 1090YOPC   GL214554   9.619  14.654   6.594  0.1925  0.0361 -0.0946
 1090YOPC   C1A14555  10.125  14.685   6.483 -0.0450  0.0341  0.0349
 1090YOPC   D2A14556  10.477  14.525   6.632  0.1495 -0.3118  0.1915
 1090YOPC   C3A14557  10.587  14.384   6.993  0.0748 -0.1466  0.0046
 1090YOPC   C4A14558  11.015  14.449   7.268  0.1754  0.1023  0.0715
 1090YOPC   C1B14559   9.883  14.852   6.887  0.0659 -0.0966 -0.1057
 1090YOPC   C2B14560  10.344  14.902   6.982  0.1056  0.0259 -0.3741
 1090YOPC   D3B14561  10.627  14.788   7.309  0.1641 -0.0902  0.1381
 1090YOPC   C4B14562  10.375  14.688   7.712 -0.0147  0.2211  0.3077
 1091YOPC   NC314563  17.622  10.459   5.979 -0.0627  0.0298 -0.3328
 1091YOPC   PO414564  17.796  10.008   5.937 -0.1584 -0.1285  0.1082
 1091YOPC   GL114565  17.707   9.924   6.430  0.1224 -0.1571  0.3168
 1091YOPC   GL214566  17.539   9.709   6.427 -0.0346 -0.0125  0.0261
 1091YOPC   C1A14567  17.654   9.975   6.915 -0.1752  0.0293 -0.1925
 1091YOPC   D2A14568  17.823  10.133   7.280  0.4008  0.1393  0.2016
 1091YOPC   C3A14569  18.059  10.467   7.436 -0.2962  0.0190  0.1190
 1091YOPC   C4A14570  18.494  10.645   7.406 -0.3087  0.0270  0.0830
 1091YOPC   C1B14571  17.164   9.968   6.501 -0.0609  0.2867 -0.2359
 1091YOPC   C2B14572  16.910  10.272   6.786  0.0873 -0.2599 -0.2093
 1091YOPC   D3B14573  17.043  10.670   6.968 -0.1729  0.1264 -0.0689
 1091YOPC   C4B14574  17.311  10.988   7.152 -0.0829  0.0318 -0.0369
 1092YOPC   NC314575  13.283  10.081   5.519 -0.1874 -0.2378  0.5186
 1092YOPC   PO414576  13.475  10.467   5.668 -0.0056  0.2034 -0.0092
 1092YOPC   GL114577  13.668  10.584   6.098 -0.1125 -0.1794  0.2314
 1092YOPC   GL214578  14.024  10.529   6.143  0.0297 -0.1085 -0.2127
 1092YOPC   C1A14579  13.466  10.674   6.460 -0.2163  0.1106  0.0350
 1092YOPC   D2A14580  13.295  10.884   6.774  0.0948 -0.2782  0.1765
 1092YOPC   C3A14581  13.002  10.828   7.010 -0.1653 -0.2455 -0.3399
 1092YOPC   C4A14582  12.555  10.807   7.046 -0.2110  0.1511  0.1834
 1092YOPC   C1B14583  13.901  10.510   6.535 -0.0624  0.1434  0.1134
 1092YOPC   C2B14584  13.725  10.576   6.882 -0.0844 -0.1133  0.1371
 1092YOPC   D3B14585  13.771  10.496   7.312 -0.1573  0.1391 -0.1194
 1092YOPC   C4B14586  14.070  10.737   7.536 -0.0474 -0.1289 -0.1462
 1093YOPC   NC314587   5.936   2.682   5.782 -0.1602  0.1458 -0.0573
 1093YOPC   PO414588   6.317   2.468   5.832  0.0340  0.0203  0.0136
 1093YOPC   GL114589   6.498   2.317   6.217  0.2579 -0.1649  0.4206
 1093YOPC   GL214590   6.843   2.427   6.354  0.0770  0.2164  0.1157
 1093YOPC   C1A14591   6.262   2.280   6.568  0.3312  0.1391  0.3096
 1093YOPC   D2A14592   6.113   2.437   6.954  0.0851  0.0124  0.1947
 1093YOPC   C3A14593   5.848   2.681   7.282  0.0408  0.0982  0.2150
 1093YOPC   C4A14594   5.527   2.991   7.270 -0.0330  0.0910 -0.2545
 1093YOPC   C1B14595   6.592   2.609   6.697  0.3465  0.0901  0.0975
 1093YOPC   C2B14596   6.303   2.876   6.759  0.0000  0.0318 -0.1496
 1093YOPC   D3B14597   6.299   2.837   7.253 -0.0641  0.1275  0.0525
 1093YOPC   C4B14598   5.970   3.130   7.562 -0.0050  0.0460  0.1235
 1094YOPC   NC314599   5.889   8.157   6.065  0.0212 -0.1228  0.0991
 1094YOPC   PO414600   6.329   8.270   6.107  0.3549 -0.1867  0.0179
 1094YOPC   GL114601   6.580   7.990   6.370  0.0134 -0.4756 -0.0687
 1094YOPC   GL214602   6.827   7.757   6.251 -0.0972  0.2159 -0.3238
 1094YOPC   C1A14603   6.834   8.063   6.706  0.0713 -0.0377  0.2753
 1094YOPC   D2A14604   7.149   7.938   7.004 -0.2969  0.1893 -0.1187
 1094YOPC   C3A14605   7.542   7.845   6.831  0.3776 -0.0324  0.2011
 1094YOPC   C4A14606   7.932   7.611   6.725 -0.0247 -0.0760  0.1567
 1094YOPC   C1B14607   7.077   7.688   6.571  0.3761  0.0628 -0.1582
 1094YOPC   C2B14608   7.240   7.445   6.891 -0.0854  0.1884 -0.1622
 1094YOPC   D3B14609   7.485   7.536   7.232  0.0616  0.0985 -0.1500
 1094YOPC   C4B14610   7.576   7.455   7.636 -0.0610 -0.4100 -0.0264
 1095YOPC   NC314611   7.463  10.490   5.671 -0.0045 -0.0202  0.0021
 1095YOPC   PO414612   7.529  10.942   5.589  0.1280  0.0180 -0.0386
 1095YOPC   GL114613   7.500  10.940   6.115  0.1323  0.0894 -0.1808
 1095YOPC   GL214614   7.548  10.623   6.142  0.0942 -0.0583 -0.0121
 1095YOPC   C1A14615   7.268  11.240   6.350 -0.1724 -0.2030  0.1950
 1095YOPC   D2A14616   7.159  11.370   6.752  0.2267 -0.0508 -0.1845
 1095YOPC   C3A14617   7.023  11.198   7.165 -0.0892  0.1281 -0.0153
 1095YOPC   C4A14618   7.051  11.141   7.508  0.2044  0.0803  0.2192
 1095YOPC   C1B14619   7.126  10.593   6.308  0.3542  0.0257 -0.2755
 1095YOPC   C2B14620   7.124  10.725   6.709  0.2601  0.1296  0.2772
 1095YOPC   D3B14621   7.243  10.481   7.096  0.5330 -0.1934 -0.2890
 1095YOPC   C4B14622   7.315  10.099   7.263  0.1454  0.3866  0.0961
 1096YOPC   NC314623  14.050  15.734   5.873  0.2573 -0.0527 -0.2160
 1096YOPC   PO414624  14.080  16.097   6.001 -0.2300 -0.0562 -0.2288
 1096YOPC   GL114625  14.033  16.009   6.375 -0.1741  0.2802 -0.0029
 1096YOPC   GL214626  13.734  15.781   6.424 -0.0253  0.1597  0.1515
 1096YOPC   C1A14627  14.138  15.876   6.844  0.0992  0.2360  0.1343
 1096YOPC   D2A14628  14.021  15.989   7.124 -0.2085 -0.1274 -0.4214
 1096YOPC   C3A14629  14.206  16.373   7.108 -0.1449  0.0399  0.2269
 1096YOPC   C4A14630  14.207  16.677   6.861 -0.2318 -0.0910  0.1840
 1096YOPC   C1B14631  13.627  15.889   6.823 -0.1575 -0.0089 -0.4638
 1096YOPC   C2B14632  13.445  15.884   7.190 -0.1053  0.0024  0.3373
 1096YOPC   D3B14633  13.635  16.094   7.490 -0.0536  0.0328 -0.2714
 1096YOPC   C4B14634  13.980  16.345   7.570  0.2067  0.1441  0.2133
 1097YOPC   NC314635  15.288   0.520   5.706 -0.2662  0.0392 -0.4197
 1097YOPC   PO414636  15.596   0.688   5.999  0.0686 -0.0606 -0.0407
 1097YOPC   GL114637  15.479   0.848   6.454  0.1194 -0.0308 -0.4409
 1097YOPC   GL214638  15.354   1.145   6.559 -0.0669  0.2221  0.0453
 1097YOPC   C1A14639  15.326   0.731   6.853  0.4973  0.0625 -0.5051
 1097YOPC   D2A14640  14.919   0.857   7.097  0.0679  0.1245 -0.2911
 1097YOPC   C3A14641  14.844   0.847   7.484 -0.1119  0.2057  0.0053
 1097YOPC   C4A14642  15.004   0.530   7.811  0.0699  0.2206  0.0136
 1097YOPC   C1B14643  15.761   1.092   6.764 -0.1666  0.4244  0.1023
 1097YOPC   C2B14644  16.116   1.323   6.939  0.3561 -0.1009  0.2461
 1097YOPC   D3B14645  16.389   1.242   7.276  0.1001 -0.0324 -0.1894
 1097YOPC   C4B14646  16.344   1.150   7.697  0.1150  0.0685  0.0558
 1098YOPC   NC314647  14.953  12.245   5.898  0.0736  0.1371 -0.0584
 1098YOPC   PO414648  14.789  12.719   5.922 -0.1235 -0.0150 -0.1021
 1098YOPC   GL114649  15.097  12.680   6.223 -0.0337  0.0167 -0.0330
 1098YOPC   GL214650  15.158  13.026   6.442  0.1544  0.1654  0.0687
 1098YOPC   C1A14651  15.210  12.412   6.704 -0.1804 -0.0379  0.0785
 1098YOPC   D2A14652  15.554  12.173   6.987  0.2921 -0.1378  0.1695
 1098YOPC   C3A14653  15.542  12.058   7.335 -0.0069 -0.1943  0.0853
 1098YOPC   C4A14654  15.394  12.095   7.722  0.2306  0.0656  0.0464
 1098YOPC   C1B14655  15.205  12.940   6.823  0.0036 -0.1663  0.1687
 1098YOPC   C2B14656  15.156  12.895   7.361 -0.3137  0.0558  0.2527
 1098YOPC   D3B14657  15.456  12.947   7.799 -0.0788  0.1214 -0.1111
 1098YOPC   C4B14658  15.290  13.206   8.164 -0.0806 -0.1114  0.1306
 1099YOPC   NC314659  10.182   2.238   5.688 -0.2734 -0.1170  0.2563
 1099YOPC   PO414660   9.713   2.104   5.624 -0.0704  0.2661 -0.0424
 1099YOPC   GL114661   9.835   2.173   6.071  0.0211 -0.0143 -0.3356
 1099YOPC   GL214662   9.845   1.836   6.213 -0.1085 -0.0715  0.2235
 1099YOPC   C1A14663   9.616   2.225   6.528 -0.1871 -0.2842 -0.0494
 1099YOPC   D2A14664   9.602   2.279   6.972  0.1203  0.1138 -0.0820
 1099YOPC   C3A14665   9.770   2.687   7.070  0.1077 -0.5641 -0.0694
 1099YOPC   C4A14666   9.850   3.108   6.898 -0.1111  0.2323  0.1101
 1099YOPC   C1B14667  10.077   1.941   6.616 -0.1251 -0.0012 -0.1331
 1099YOPC   C2B14668  10.158   1.961   6.980  0.2533  0.2621 -0.1053
 1099YOPC   D3B14669  10.468   1.786   7.214 -0.0269 -0.0195  0.1045
 1099YOPC   C4B14670  10.841   1.487   7.230  0.0360 -0.0711  0.0785
 1100YOPC   NC314671  18.007   4.107   5.619  0.0506 -0.0723  0.1041
 1100YOPC   PO414672  17.636   4.059   5.823 -0.0309  0.2429  0.0125
 1100YOPC   GL114673  17.567   4.385   5.916 -0.1544 -0.2168 -0.0128
 1100YOPC   GL214674  17.556   4.218   6.347  0.3108 -0.2320 -0.2946
 1100YOPC   C1A14675  17.634   4.716   6.257  0.3381  0.2342  0.1466
 1100YOPC   D2A14676  17.464   5.019   6.632  0.0790 -0.1603  0.0085
 1100YOPC   C3A14677  17.507   4.852   7.130  0.0931 -0.2006 -0.0727
 1100YOPC   C4A14678  17.472   4.676   7.575 -0.0534  0.0220 -0.2850
 1100YOPC   C1B14679  17.677   4.548   6.687 -0.1098 -0.2506 -0.0351
 1100YOPC   C2B14680  17.928   4.718   6.960  0.0624 -0.0010  0.2106
 1100YOPC   D3B14681  17.948   4.520   7.340  0.0496 -0.0930  0.0255
 1100YOPC   C4B14682  17.767   4.097   7.520 -0.0487 -0.0967  0.2964
 1101YOPC   NC314683   1.633  15.268   5.815 -0.1951  0.2624 -0.3263
 1101YOPC   PO414684   2.044  15.297   6.031  0.0299 -0.0243 -0.2247
 1101YOPC   GL114685   2.124  15.088   6.380 -0.0231 -0.2194 -0.0265
 1101YOPC   GL214686   1.975  14.734   6.433  0.2361  0.1718  0.2015
 1101YOPC   C1A14687   2.054  15.327   6.741 -0.3391  0.1880  0.1725
 1101YOPC   D2A14688   1.952  15.267   7.017  0.1368 -0.0560 -0.0369
 1101YOPC   C3A14689   2.082  15.573   7.344 -0.0466 -0.0435  0.1125
 1101YOPC   C4A14690   2.534  15.596   7.557  0.1092  0.3307  0.0486
 1101YOPC   C1B14691   2.188  14.356   6.550 -0.0722  0.1517 -0.1686
 1101YOPC   C2B14692   2.197  14.184   6.928 -0.1986  0.1524  0.2273
 1101YOPC   D3B14693   2.513  14.088   7.299 -0.0423  0.4944 -0.1472
 1101YOPC   C4B14694   2.366  14.268   7.708  0.0733  0.2691  0.0672
 1102YOPC   NC314695  14.995  16.990   6.057  0.3019 -0.0156 -0.2496
 1102YOPC   PO414696  14.906  16.590   6.089  0.3082  0.0259 -0.1854
 1102YOPC   GL114697  15.054  16.671   6.492 -0.0656 -0.3564 -0.1176
 1102YOPC   GL214698  15.331  16.773   6.511 -0.1453 -0.1948  0.0003
 1102YOPC   C1A14699  15.148  16.786   6.966 -0.1562  0.1385 -0.0389
 1102YOPC   D2A14700  15.215  16.627   7.312  0.2971 -0.2457  0.0370
 1102YOPC   C3A14701  15.167  16.723   7.725  0.1498 -0.0459 -0.1499
 1102YOPC   C4A14702  15.057  17.134   7.970  0.0528  0.0077 -0.0960
 1102YOPC   C1B14703  15.642  16.858   6.877 -0.0897 -0.1220 -0.1475
 1102YOPC   C2B14704  15.807  16.939   7.312 -0.0398 -0.1277  0.0939
 1102YOPC   D3B14705  15.802  17.337   7.357  0.0443  0.0905 -0.1956
 1102YOPC   C4B14706  15.985  17.515   7.687 -0.3224 -0.1512 -0.0831
 1103YOPC   NC314707  15.714  15.009   5.974  0.0061  0.1377  0.0874
 1103YOPC   PO414708  15.316  14.909   5.809 -0.0986  0.0215 -0.0980
 1103YOPC   GL114709  15.260  14.918   6.232 -0.1564  0.0108 -0.0338
 1103YOPC   GL214710  15.425  15.204   6.315 -0.2168 -0.0361  0.2195
 1103YOPC   C1A14711  15.527  14.843   6.714 -0.0710 -0.2075 -0.1126
 1103YOPC   D2A14712  15.553  14.998   7.121 -0.2236  0.0306  0.2387
 1103YOPC   C3A14713  15.633  14.976   7.543 -0.0239 -0.0684 -0.0127
 1103YOPC   C4A14714  15.982  14.851   7.715 -0.3315  0.0171 -0.0581
 1103YOPC   C1B14715  15.216  15.324   6.729  0.0280  0.0226  0.0627
 1103YOPC   C2B14716  15.022  15.273   7.096 -0.1624  0.1047 -0.2517
 1103YOPC   D3B14717  15.153  15.058   7.452  0.1107 -0.1327  0.0078
 1103YOPC   C4B14718  15.151  14.917   7.949  0.1979  0.2718  0.2405
 1104YOPC   NC314719   9.890  17.783   5.960 -0.0726  0.2864 -0.4247
 1104YOPC   PO414720  10.298  17.621   6.193 -0.0587  0.0610 -0.2842
 1104YOPC   GL114721  10.056  17.714   6.510  0.0368  0.1871  0.1794
 1104YOPC   GL214722  10.181  17.669   6.750 -0.1095 -0.0889 -0.1098
 1104YOPC   C1A14723   9.645  17.525   6.753 -0.0063  0.1753  0.0873
 1104YOPC   D2A14724   9.527  17.354   7.221  0.0156  0.1265  0.0801
 1104YOPC   C3A14725   9.201  17.515   7.539  0.2948 -0.0578 -0.1942
 1104YOPC   C4A14726   8.950  17.870   7.719 -0.1197  0.0839 -0.1996
 1104YOPC   C1B14727  10.036  17.391   7.050  0.2118 -0.0727  0.1058
 1104YOPC   C2B14728  10.023  17.327   7.451  0.0274 -0.3426 -0.4946
 1104YOPC   D3B14729   9.791  17.630   7.664  0.3305 -0.0673 -0.1944
 1104YOPC   C4B14730   9.481  17.927   7.595 -0.1465 -0.1537  0.2465
 1105YOPC   NC314731  13.799  14.099   5.816 -0.0283  0.2157 -0.2248
 1105YOPC   PO414732  13.535  14.516   5.978  0.2965  0.1518  0.1430
 1105YOPC   GL114733  13.292  14.485   6.366  0.1508 -0.0734 -0.2676
 1105YOPC   GL214734  13.348  14.778   6.501 -0.1625  0.1604 -0.0709
 1105YOPC   C1A14735  13.611  14.514   6.776 -0.2296 -0.0521 -0.1637
 1105YOPC   D2A14736  13.641  14.731   7.278  0.1839  0.2898  0.0945
 1105YOPC   C3A14737  13.638  14.387   7.660  0.1579  0.0085  0.1359
 1105YOPC   C4A14738  13.735  14.022   7.873 -0.1986  0.0946 -0.0505
 1105YOPC   C1B14739  13.382  15.032   6.915 -0.1536  0.5568 -0.1407
 1105YOPC   C2B14740  13.306  15.114   7.353 -0.0397 -0.0578  0.1034
 1105YOPC   D3B14741  13.370  15.445   7.553 -0.1299 -0.1445 -0.1322
 1105YOPC   C4B14742  13.284  15.619   7.903 -0.2402  0.0085  0.1491
 1106YOPC   NC314743   9.167  15.808   5.399 -0.0869 -0.0760 -0.3529
 1106YOPC   PO414744   9.251  15.477   5.722 -0.3875  0.3696  0.1339
 1106YOPC   GL114745   8.946  15.452   6.064  0.2317 -0.1558 -0.1776
 1106YOPC   GL214746   8.748  15.268   6.094  0.2234  0.2555  0.0193
 1106YOPC   C1A14747   8.865  15.459   6.623  0.2848 -0.0621 -0.0453
 1106YOPC   D2A14748   8.536  15.405   6.990  0.2078 -0.1353  0.1907
 1106YOPC   C3A14749   8.700  15.566   7.438 -0.0830 -0.0694 -0.1324
 1106YOPC   C4A14750   8.479  15.853   7.754  0.0609  0.0517  0.4611
 1106YOPC   C1B14751   8.428  15.190   6.324 -0.0252  0.0556 -0.0405
 1106YOPC   C2B14752   8.307  14.988   6.670 -0.1807 -0.1343 -0.0069
 1106YOPC   D3B14753   8.675  14.941   6.888 -0.0140  0.0242 -0.0664
 1106YOPC   C4B14754   8.979  14.963   7.211 -0.0199  0.3272  0.1785
 1107YOPC   NC314755  16.635   6.566   5.736 -0.1045 -0.1917  0.0486
 1107YOPC   PO414756  16.427   6.109   5.632 -0.1423 -0.0994 -0.1418
 1107YOPC   GL114757  16.358   6.136   6.032  0.2095 -0.2854 -0.3919
 1107YOPC   GL214758  16.585   6.286   6.120  0.0823 -0.1938 -0.0605
 1107YOPC   C1A14759  16.427   5.848   6.412  0.0326  0.1501  0.1264
 1107YOPC   D2A14760  16.368   5.975   6.771  0.1995  0.1743  0.3008
 1107YOPC   C3A14761  16.679   5.818   7.012  0.2692  0.3167 -0.1594
 1107YOPC   C4A14762  16.828   5.500   7.230  0.1457  0.1131  0.0245
 1107YOPC   C1B14763  16.497   6.351   6.540 -0.0311 -0.0796 -0.2214
 1107YOPC   C2B14764  16.793   6.364   6.958  0.1929 -0.1256 -0.0473
 1107YOPC   D3B14765  16.778   6.702   7.304 -0.0294 -0.1602 -0.0286
 1107YOPC   C4B14766  16.903   6.863   7.640  0.0419 -0.1311  0.0757
 1108YOPC   NC314767   8.259   8.947   6.246 -0.1697 -0.2478 -0.3572
 1108YOPC   PO414768   7.837   8.906   5.964 -0.1438  0.1231 -0.0529
 1108YOPC   GL114769   7.645   8.894   6.361  0.1826 -0.2684 -0.1853
 1108YOPC   GL214770   7.457   9.137   6.440 -0.0434  0.0400 -0.0326
 1108YOPC   C1A14771   7.610   8.755   6.745 -0.3022 -0.0116 -0.0085
 1108YOPC   D2A14772   7.359   8.866   7.081 -0.0811 -0.0670  0.1316
 1108YOPC   C3A14773   6.941   8.836   7.169 -0.0369 -0.0661  0.3107
 1108YOPC   C4A14774   6.828   8.909   7.547  0.0890 -0.1814  0.3263
 1108YOPC   C1B14775   7.561   9.467   6.835  0.2865 -0.0941 -0.1187
 1108YOPC   C2B14776   7.481   9.582   7.280 -0.1563 -0.0824 -0.1695
 1108YOPC   D3B14777   7.734   9.456   7.635  0.1722 -0.0356 -0.0070
 1108YOPC   C4B14778   7.658   9.538   8.099 -0.2689 -0.0397  0.0003
 1109YOPC   NC314779  16.296   8.809   5.966  0.3212  0.4742 -0.2999
 1109YOPC   PO414780  15.841   8.667   5.663  0.1590  0.1443 -0.0294
 1109YOPC   GL114781  15.595   8.550   6.009 -0.1252 -0.1192 -0.1059
 1109YOPC   GL214782  15.345   8.637   5.893  0.2833 -0.0132  0.0529
 1109YOPC   C1A14783  15.859   8.516   6.426 -0.0660  0.0022 -0.4276
 1109YOPC   D2A14784  16.208   8.796   6.607 -0.0130 -0.0951 -0.1777
 1109YOPC   C3A14785  15.989   9.204   6.513  0.2318 -0.2344  0.2082
 1109YOPC   C4A14786  15.777   9.569   6.460 -0.0874 -0.1440  0.2678
 1109YOPC   C1B14787  15.296   8.885   6.242 -0.1058 -0.5137 -0.0993
 1109YOPC   C2B14788  15.529   9.208   6.641 -0.1276  0.1895 -0.2766
 1109YOPC   D3B14789  15.375   8.982   7.043  0.3479 -0.0485  0.1910
 1109YOPC   C4B14790  15.298   8.983   7.428 -0.1875  0.1496  0.0049
 1110YOPC   NC314791   2.396  14.622   6.004  0.2705 -0.2276  0.0581
 1110YOPC   PO414792   2.061  14.352   5.943 -0.4712  0.2435  0.0336
 1110YOPC   GL114793   2.446  14.064   6.029 -0.0543  0.0596  0.0091
 1110YOPC   GL214794   2.402  13.834   5.881 -0.0017  0.0313 -0.3113
 1110YOPC   C1A14795   2.666  13.955   6.370  0.2670 -0.1562  0.0722
 1110YOPC   D2A14796   2.669  14.023   6.812 -0.1567 -0.1871  0.1515
 1110YOPC   C3A14797   3.036  14.178   7.003 -0.0799  0.1224  0.0712
 1110YOPC   C4A14798   3.382  14.302   7.167  0.0097 -0.2568 -0.1692
 1110YOPC   C1B14799   2.131  13.520   6.057 -0.0913 -0.2028 -0.1625
 1110YOPC   C2B14800   2.117  13.322   6.561 -0.0202 -0.4079  0.3280
 1110YOPC   D3B14801   2.368  13.067   6.434 -0.1301 -0.0138 -0.0237
 1110YOPC   C4B14802   2.625  12.810   6.329  0.1205  0.1097  0.0262
 1111YOPC   NC314803   1.754   4.050   5.375 -0.0520 -0.4324  0.2254
 1111YOPC   PO414804   2.061   4.080   5.701 -0.2758  0.1040 -0.0990
 1111YOPC   GL114805   2.060   3.820   6.104  0.1400 -0.1992 -0.0621
 1111YOPC   GL214806   1.909   3.533   6.162  0.3062 -0.1569  0.0470
 1111YOPC   C1A14807   1.937   3.764   6.646  0.1561  0.0695  0.2044
 1111YOPC   D2A14808   1.896   3.578   7.091 -0.0605  0.3159 -0.0356
 1111YOPC   C3A14809   2.097   3.195   7.007  0.3346 -0.1150 -0.1005
 1111YOPC   C4A14810   2.276   2.861   7.091 -0.0361 -0.1534 -0.1592
 1111YOPC   C1B14811   1.784   3.340   6.577 -0.0396  0.1743  0.0149
 1111YOPC   C2B14812   1.504   3.188   6.950  0.2155  0.2234 -0.2507
 1111YOPC   D3B14813   1.651   3.272   7.374  0.2412  0.3754  0.2007
 1111YOPC   C4B14814   2.066   3.566   7.578 -0.2637  0.2494  0.0748
 1112YOPC   NC314815  16.098   0.392   5.950  0.0304 -0.0236  0.3245
 1112YOPC   PO414816  15.810   0.268   6.096 -0.2667 -0.0564  0.0217
 1112YOPC   GL114817  15.767   0.016   6.564  0.1552  0.1383 -0.0195
 1112YOPC   GL214818  15.706   0.245   6.648  0.0610  0.3204  0.1203
 1112YOPC   C1A14819  15.522  -0.109   6.906 -0.1306  0.0289  0.1460
 1112YOPC   D2A14820  15.513  -0.024   7.364 -0.1035  0.5142  0.2310
 1112YOPC   C3A14821  15.269   0.118   7.660  0.0945  0.0931 -0.0077
 1112YOPC   C4A14822  15.402   0.236   8.031  0.0229 -0.0058 -0.1487
 1112YOPC   C1B14823  15.843   0.628   6.776 -0.3247  0.3178 -0.0489
 1112YOPC   C2B14824  16.211   0.801   7.007  0.0505  0.1849  0.1018
 1112YOPC   D3B14825  16.229   0.707   7.407 -0.2773 -0.0992  0.1766
 1112YOPC   C4B14826  16.593   0.714   7.789  0.2569  0.0906  0.1332
 1113YOPC   NC314827  12.834  10.346   5.814  0.0460 -0.1650 -0.0459
 1113YOPC   PO414828  12.472  10.136   5.833 -0.3074  0.0385  0.1358
 1113YOPC   GL114829  12.550  10.133   6.146  0.1502  0.2436 -0.1040
 1113YOPC   GL214830  12.390  10.053   6.325  0.1742 -0.2188  0.1420
 1113YOPC   C1A14831  12.713  10.273   6.611  0.1097 -0.1903 -0.0143
 1113YOPC   D2A14832  12.781  10.353   7.049  0.2956  0.1451  0.0504
 1113YOPC   C3A14833  12.835  10.432   7.434 -0.1079 -0.0785 -0.2397
 1113YOPC   C4A14834  13.133  10.740   7.645  0.2047  0.2795 -0.1583
 1113YOPC   C1B14835  12.272   9.927   6.609  0.3069  0.0425  0.0009
 1113YOPC   C2B14836  12.314   9.939   7.042 -0.1131 -0.2944 -0.0942
 1113YOPC   D3B14837  12.349  10.349   7.280  0.0325 -0.0292  0.1569
 1113YOPC   C4B14838  12.493  10.483   7.735  0.1907 -0.3235 -0.1954
 1114YOPC   NC314839   4.318  11.530   5.573  0.0481 -0.3641 -0.0382
 1114YOPC   PO414840   4.140  11.976   5.578 -0.2276  0.1376 -0.0115
 1114YOPC   GL114841   4.121  12.116   6.006  0.1637 -0.0318 -0.1458
 1114YOPC   GL214842   3.917  12.020   6.110 -0.0979  0.1657 -0.3183
 1114YOPC   C1A14843   4.539  12.104   6.209  0.0409 -0.3013 -0.0150
 1114YOPC   D2A14844   4.713  12.126   6.704 -0.2303  0.1179 -0.4577
 1114YOPC   C3A14845   4.755  12.389   7.064 -0.0620  0.0391  0.2289
 1114YOPC   C4A14846   4.826  12.833   7.312 -0.1599 -0.1639 -0.1645
 1114YOPC   C1B14847   4.036  12.155   6.490  0.2216  0.0623 -0.0287
 1114YOPC   C2B14848   4.221  12.241   6.813 -0.0410 -0.2930 -0.0571
 1114YOPC   D3B14849   4.459  12.048   7.222  0.2074  0.0089 -0.0220
 1114YOPC   C4B14850   4.510  11.824   7.573 -0.0461 -0.0293  0.3176
 1115YOPC   NC314851  10.875  10.727   5.300  0.1357  0.1794  0.2143
 1115YOPC   PO414852  10.762  10.728   5.745 -0.0784  0.2844 -0.2280
 1115YOPC   GL114853  10.803  11.117   5.997  0.1970  0.2311 -0.1681
 1115YOPC   GL214854  10.991  11.005   6.298 -0.3246  0.0917 -0.0498
 1115YOPC   C1A14855  10.569  11.302   6.382  0.0571  0.0275 -0.2706
 1115YOPC   D2A14856  10.433  11.736   6.480 -0.0643  0.1189  0.0714
 1115YOPC   C3A14857  10.165  11.964   6.525  0.1847  0.1998 -0.3314
 1115YOPC   C4A14858   9.800  12.164   6.635  0.1558 -0.0735 -0.0514
 1115YOPC   C1B14859  11.153  10.793   6.697 -0.0491 -0.4749  0.0549
 1115YOPC   C2B14860  10.939  10.369   6.925 -0.1495 -0.1410 -0.0802
 1115YOPC   D3B14861  10.727  10.383   7.276  0.4484 -0.1389  0.0037
 1115YOPC   C4B14862  10.323  10.382   7.278 -0.1012  0.2361 -0.0891
 1116YOPC   NC314863   0.671  13.826   5.297  0.0052 -0.3042  0.1941
 1116YOPC   PO414864   0.849  13.362   5.456 -0.0733  0.0402  0.1746
 1116YOPC   GL114865   0.890  13.486   5.935 -0.0688  0.0398 -0.0351
 1116YOPC   GL214866   0.946  13.688   6.184  0.0265 -0.0780 -0.0433
 1116YOPC   C1A14867   0.736  13.221   6.240  0.0992 -0.1757  0.1614
 1116YOPC   D2A14868   0.491  13.067   6.585 -0.1288  0.0206 -0.3504
 1116YOPC   C3A14869   0.562  12.841   6.880  0.4280  0.1292 -0.4623
 1116YOPC   C4A14870   0.912  12.662   7.047  0.0643 -0.0209  0.3469
 1116YOPC   C1B14871   0.682  13.651   6.544  0.2601 -0.2477 -0.0658
 1116YOPC   C2B14872   0.706  13.430   6.826 -0.0974  0.1474 -0.1171
 1116YOPC   D3B14873   0.483  13.421   7.227  0.3411 -0.0086 -0.1251
 1116YOPC   C4B14874   0.402  13.419   7.655 -0.1119  0.1886  0.0335
 1117YOPC   NC314875  13.037   6.392   5.871  0.0829  0.1488 -0.1273
 1117YOPC   PO414876  13.431   6.277   5.850  0.1700  0.0665  0.1151
 1117YOPC   GL114877  13.351   6.535   6.307  0.0693  0.1392 -0.1194
 1117YOPC   GL214878  13.019   6.367   6.382  0.2337  0.0098 -0.0650
 1117YOPC   C1A14879  13.466   6.688   6.684 -0.2665  0.1425  0.4885
 1117YOPC   D2A14880  13.532   6.769   7.122  0.1696  0.0343  0.1692
 1117YOPC   C3A14881  13.263   6.696   7.357 -0.4711  0.3572  0.4013
 1117YOPC   C4A14882  13.333   6.775   7.691  0.0163  0.1307 -0.1990
 1117YOPC   C1B14883  13.125   6.395   6.849 -0.2916 -0.0447  0.0188
 1117YOPC   C2B14884  13.447   6.260   7.040 -0.1249 -0.1348  0.2016
 1117YOPC   D3B14885  13.443   6.182   7.485  0.0624  0.1988 -0.0801
 1117YOPC   C4B14886  13.786   6.087   7.737 -0.1538 -0.1318 -0.3267
 1118YOPC   NC314887  13.438   1.251   6.051  0.2539 -0.2049 -0.0098
 1118YOPC   PO414888  13.724   1.011   5.861  0.2504  0.1341  0.1411
 1118YOPC   GL114889  13.689   0.872   6.374 -0.2131 -0.3313 -0.0993
 1118YOPC   GL214890  13.313   1.079   6.571  0.2733  0.2782 -0.0690
 1118YOPC   C1A14891  13.603   0.645   6.787  0.3594 -0.0736  0.1429
 1118YOPC   D2A14892  13.558   0.463   7.075  0.1868 -0.2757  0.0653
 1118YOPC   C3A14893  13.677   0.337   7.411  0.1349 -0.0361 -0.1899
 1118YOPC   C4A14894  13.893   0.313   7.798 -0.0052  0.0254 -0.1225
 1118YOPC   C1B14895  13.333   1.016   7.021 -0.0622  0.1004  0.0530
 1118YOPC   C2B14896  13.510   0.876   7.356  0.1689 -0.2680  0.2384
 1118YOPC   D3B14897  13.268   1.104   7.697 -0.1734  0.2208  0.0319
 1118YOPC   C4B14898  13.283   1.272   8.135 -0.0038  0.1227 -0.2076
 1119YOPC   NC314899  10.918   3.570   5.591 -0.1950  0.0543 -0.0957
 1119YOPC   PO414900  11.076   3.213   5.574 -0.2031 -0.0644  0.0928
 1119YOPC   GL114901  11.154   3.081   6.040  0.1330  0.2012 -0.3923
 1119YOPC   GL214902  11.527   3.165   6.076 -0.0544  0.0430 -0.2050
 1119YOPC   C1A14903  11.240   2.778   6.337 -0.0941  0.0021  0.3678
 1119YOPC   D2A14904  11.258   2.812   6.781  0.3454  0.2541 -0.0825
 1119YOPC   C3A14905  10.949   2.487   6.988  0.0305 -0.1317 -0.0935
 1119YOPC   C4A14906  10.672   2.186   6.927  0.2618  0.1902  0.0864
 1119YOPC   C1B14907  11.498   3.171   6.571 -0.0819  0.2909  0.3120
 1119YOPC   C2B14908  11.762   3.121   6.909  0.3284  0.1813 -0.0406
 1119YOPC   D3B14909  11.534   2.955   7.233 -0.1806 -0.3164 -0.1784
 1119YOPC   C4B14910  11.551   3.017   7.562 -0.0945  0.0956 -0.2344
 1120YOPC   NC314911  12.982   2.340   5.403  0.1191 -0.2003 -0.0719
 1120YOPC   PO414912  12.975   2.070   5.721 -0.1009 -0.2198 -0.2618
 1120YOPC   GL114913  12.856   2.015   6.179 -0.0455 -0.1565  0.0025
 1120YOPC   GL214914  12.688   1.791   6.281  0.1463  0.3135 -0.1348
 1120YOPC   C1A14915  12.895   1.990   6.670 -0.0161  0.2834 -0.2725
 1120YOPC   D2A14916  12.584   1.987   7.018  0.2565  0.0947 -0.3056
 1120YOPC   C3A14917  12.578   2.104   7.424  0.2990  0.0320 -0.3028
 1120YOPC   C4A14918  12.632   1.996   7.832  0.2948 -0.0208  0.0805
 1120YOPC   C1B14919  12.571   1.486   6.577 -0.0212  0.0170 -0.3264
 1120YOPC   C2B14920  12.429   1.493   7.023  0.2644  0.1458  0.0126
 1120YOPC   D3B14921  12.362   1.201   7.313  0.2807  0.1046  0.1309
 1120YOPC   C4B14922  12.395   1.034   7.700  0.0060 -0.0215 -0.1260
 1121YOPC   NC314923  11.161   6.879   5.566 -0.0488  0.0426 -0.3022
 1121YOPC   PO414924  11.286   6.633   5.940  0.0455  0.0276 -0.2667
 1121YOPC   GL114925  11.113   6.924   6.184 -0.0174 -0.0057 -0.0181
 1121YOPC   GL214926  10.738   6.940   6.287 -0.1057 -0.1708 -0.0104
 1121YOPC   C1A14927  11.224   6.862   6.605  0.3221 -0.1600 -0.0019
 1121YOPC   D2A14928  11.383   6.759   7.063  0.3459  0.0819 -0.3923
 1121YOPC   C3A14929  11.410   6.477   7.342 -0.2340  0.1788 -0.0764
 1121YOPC   C4A14930  11.588   6.324   7.755 -0.4224 -0.0509 -0.0890
 1121YOPC   C1B14931  10.779   7.076   6.691 -0.1174  0.1005 -0.0347
 1121YOPC   C2B14932  10.811   7.460   6.847 -0.0777 -0.4047 -0.1866
 1121YOPC   D3B14933  10.903   7.562   7.281  0.0762  0.1230  0.1555
 1121YOPC   C4B14934  11.063   7.538   7.791 -0.0311  0.1487 -0.2538
 1122YOPC   NC314935   4.784   6.996   6.043  0.4663 -0.2090  0.0596
 1122YOPC   PO414936   4.553   6.578   5.935  0.0839 -0.5279  0.0815
 1122YOPC   GL114937   4.239   6.624   6.190 -0.2714  0.3060  0.0398
 1122YOPC   GL214938   4.255   6.374   6.411 -0.1043 -0.0361 -0.2110
 1122YOPC   C1A14939   4.214   6.832   6.654 -0.1376  0.1263 -0.0412
 1122YOPC   D2A14940   4.267   7.110   6.946 -0.0702  0.0003  0.1359
 1122YOPC   C3A14941   3.907   7.233   7.059  0.1610  0.0373  0.1325
 1122YOPC   C4A14942   3.579   7.278   7.319 -0.1588 -0.0423  0.2733
 1122YOPC   C1B14943   3.994   6.315   6.754 -0.0975 -0.4869 -0.2955
 1122YOPC   C2B14944   4.103   6.221   7.216 -0.0203  0.0071  0.3462
 1122YOPC   D3B14945   3.739   6.169   7.281  0.2483  0.1487 -0.1877
 1122YOPC   C4B14946   3.359   6.354   7.424  0.0548 -0.1024 -0.1037
 1123YOPC   NC314947   5.201  13.138   5.295  0.1842 -0.0718 -0.1348
 1123YOPC   PO414948   5.336  13.615   5.367 -0.1063 -0.0119 -0.2105
 1123YOPC   GL114949   5.565  13.758   5.743  0.1039  0.4969  0.1836
 1123YOPC   GL214950   5.661  13.562   5.931 -0.1755 -0.1659 -0.2074
 1123YOPC   C1A14951   5.555  13.970   6.131  0.0818  0.3632  0.1400
 1123YOPC   D2A14952   5.663  13.856   6.538  0.0536 -0.1110  0.2751
 1123YOPC   C3A14953   6.035  13.923   6.637  0.2007 -0.0367 -0.0668
 1123YOPC   C4A14954   6.471  14.021   6.480  0.2865 -0.2467 -0.2332
 1123YOPC   C1B14955   5.511  13.368   6.280 -0.2986 -0.3187 -0.0041
 1123YOPC   C2B14956   5.405  13.356   6.721 -0.0029 -0.1955 -0.2195
 1123YOPC   D3B14957   5.639  13.286   7.102  0.1331  0.2013 -0.2350
 1123YOPC   C4B14958   5.947  13.406   7.404 -0.2546 -0.2074 -0.0687
 1124YOPC   NC314959   0.254   3.498   5.838  0.0342 -0.3498  0.2773
 1124YOPC   PO414960   0.496   3.805   5.612 -0.0332 -0.1719 -0.0343
 1124YOPC   GL114961   0.735   3.695   6.160 -0.3756 -0.3166 -0.0138
 1124YOPC   GL214962   1.009   3.589   6.209  0.2021  0.0385  0.3176
 1124YOPC   C1A14963   0.754   3.914   6.555 -0.0316  0.2856  0.0314
 1124YOPC   D2A14964   0.875   4.123   6.878 -0.1902 -0.2358 -0.1733
 1124YOPC   C3A14965   1.133   4.084   7.251 -0.1416 -0.1910  0.1245
 1124YOPC   C4A14966   1.312   4.120   7.663 -0.0048  0.1490  0.1404
 1124YOPC   C1B14967   0.760   3.195   6.292 -0.2198 -0.0834 -0.1900
 1124YOPC   C2B14968   0.917   2.801   6.566  0.2842  0.1760  0.1031
 1124YOPC   D3B14969   0.741   2.660   7.005  0.1313 -0.0789  0.0788
 1124YOPC   C4B14970   0.684   2.744   7.470  0.1821 -0.2625  0.4350
 1125YOPC   NC314971  11.144  10.548   6.030 -0.1334 -0.1638 -0.0494
 1125YOPC   PO414972  11.508  10.274   6.125  0.0292  0.0847  0.0041
 1125YOPC   GL114973  11.500  10.621   6.348 -0.1431  0.0817  0.0652
 1125YOPC   GL214974  11.811  10.549   6.512 -0.3130 -0.1574 -0.1038
 1125YOPC   C1A14975  11.628  10.986   6.564  0.0623  0.2229 -0.0621
 1125YOPC   D2A14976  11.783  10.995   6.935 -0.1003 -0.3446  0.0881
 1125YOPC   C3A14977  11.558  11.065   7.162 -0.0989  0.0898  0.4440
 1125YOPC   C4A14978  11.351  11.191   7.372  0.1437  0.1109  0.0377
 1125YOPC   C1B14979  11.555  10.578   6.923 -0.1261 -0.2823 -0.2009
 1125YOPC   C2B14980  11.236  10.620   7.217 -0.2954  0.0209  0.2493
 1125YOPC   D3B14981  11.007  10.882   7.554  0.1150 -0.1423  0.0504
 1125YOPC   C4B14982  10.873  11.095   7.908  0.1707  0.2308 -0.0642
 1126YOPC   NC314983   9.308  14.915   5.576  0.1663  0.0026 -0.0455
 1126YOPC   PO414984   9.009  14.615   5.661 -0.2591 -0.0261 -0.0659
 1126YOPC   GL114985   9.051  14.552   6.096  0.0926 -0.1040 -0.1092
 1126YOPC   GL214986   9.217  14.326   6.318  0.0328 -0.0038 -0.1428
 1126YOPC   C1A14987   8.821  14.431   6.524  0.0979  0.0871  0.3145
 1126YOPC   D2A14988   8.449  14.498   6.771  0.3757  0.0999  0.1503
 1126YOPC   C3A14989   8.448  14.601   7.189 -0.5235  0.0141 -0.0078
 1126YOPC   C4A14990   8.591  14.536   7.595 -0.0240  0.2019  0.0159
 1126YOPC   C1B14991   9.252  14.320   6.792 -0.0820  0.0721 -0.0360
 1126YOPC   C2B14992   9.511  14.578   7.169  0.0959  0.1118 -0.0397
 1126YOPC   D3B14993   9.496  15.020   7.229 -0.0822 -0.0172  0.0252
 1126YOPC   C4B14994   9.292  15.290   7.509  0.0021  0.1995  0.0673
 1127YOPC   NC314995   4.781   2.960   5.410 -0.0301 -0.3468  0.1986
 1127YOPC   PO414996   4.704   2.621   5.837 -0.1789  0.2443 -0.0224
 1127YOPC   GL114997   4.544   2.592   6.239  0.3452 -0.2464  0.0137
 1127YOPC   GL214998   4.341   2.886   6.149 -0.1413  0.1320 -0.3265
 1127YOPC   C1A14999   4.665   2.524   6.664 -0.0500  0.0728  0.0449
 1127YOPC   D2A15000   4.989   2.523   7.061  0.0884  0.1028  0.1729
 1127YOPC   C3A15001   5.203   2.623   7.448 -0.1751  0.3515  0.0006
 1127YOPC   C4A15002   5.134   2.683   7.904 -0.1658  0.0169 -0.3055
 1127YOPC   C1B15003   4.306   2.884   6.580  0.2081  0.0653  0.1424
 1127YOPC   C2B15004   4.240   2.769   6.945 -0.0307 -0.3467 -0.1614
 1127YOPC   D3B15005   4.517   2.571   7.197 -0.1542  0.2995 -0.0414
 1127YOPC   C4B15006   4.826   2.340   7.577 -0.1555  0.0227 -0.2481
 1128YOPC   NC315007   7.003   9.859   5.358 -0.0874 -0.5169 -0.0911
 1128YOPC   PO415008   6.617   9.935   5.530 -0.4382 -0.0991  0.1950
 1128YOPC   GL115009   6.686   9.917   5.955 -0.2431 -0.1529  0.0940
 1128YOPC   GL215010   6.441   9.838   6.211 -0.3083  0.3082  0.2666
 1128YOPC   C1A15011   6.885   9.923   6.426 -0.1119 -0.0860  0.3213
 1128YOPC   D2A15012   6.977  10.163   6.752 -0.0067  0.1723 -0.0836
 1128YOPC   C3A15013   6.720  10.432   6.866 -0.2719 -0.1346  0.2401
 1128YOPC   C4A15014   6.434  10.763   6.872  0.0939  0.0306 -0.0844
 1128YOPC   C1B15015   6.456  10.052   6.605 -0.0204  0.1073 -0.4429
 1128YOPC   C2B15016   6.607   9.982   7.002  0.2036  0.0230 -0.0454
 1128YOPC   D3B15017   6.829  10.197   7.292 -0.1671 -0.1971  0.0924
 1128YOPC   C4B15018   7.116  10.223   7.708  0.3395  0.2786  0.0150
 1129YOPC   NC315019   5.055   1.990   5.922 -0.0921  0.1249  0.2239
 1129YOPC   PO415020   5.480   2.052   6.026 -0.0036 -0.0964  0.2876
 1129YOPC   GL115021   5.537   2.242   6.454  0.2411  0.1190  0.1622
 1129YOPC   GL215022   5.712   2.118   6.719  0.1334 -0.1521  0.1949
 1129YOPC   C1A15023   5.740   2.578   6.500 -0.2423  0.1135  0.0337
 1129YOPC   D2A15024   5.786   2.928   6.657  0.0393 -0.0165 -0.0403
 1129YOPC   C3A15025   5.909   3.168   7.025 -0.0363 -0.1710 -0.1091
 1129YOPC   C4A15026   5.724   3.590   7.263 -0.2757 -0.0096 -0.0664
 1129YOPC   C1B15027   6.074   1.907   6.726 -0.0811  0.3395 -0.2063
 1129YOPC   C2B15028   6.415   2.054   7.028  0.1110  0.3250  0.1369
 1129YOPC   D3B15029   6.296   2.295   7.371  0.1072 -0.2742 -0.2059
 1129YOPC   C4B15030   6.253   2.354   7.830 -0.1100  0.2452 -0.0832
 1130YOPC   NC315031   5.215   8.718   5.560 -0.1435  0.0803 -0.4947
 1130YOPC   PO415032   5.270   9.051   5.826  0.0940  0.3668 -0.0565
 1130YOPC   GL115033   5.465   8.906   6.233  0.1835 -0.2188 -0.1048
 1130YOPC   GL215034   5.481   8.614   6.370  0.0336 -0.1560 -0.0933
 1130YOPC   C1A15035   5.822   9.023   6.545 -0.0665  0.2105  0.0833
 1130YOPC   D2A15036   6.067   9.234   6.837 -0.3843  0.3049 -0.2165
 1130YOPC   C3A15037   6.189   8.827   7.077  0.1122  0.2281  0.1127
 1130YOPC   C4A15038   6.482   8.642   7.297 -0.0631  0.2518  0.2569
 1130YOPC   C1B15039   5.340   8.411   6.786 -0.2773 -0.0413 -0.2408
 1130YOPC   C2B15040   5.102   8.538   7.079 -0.1329 -0.2693 -0.2003
 1130YOPC   D3B15041   5.147   8.888   7.204  0.2000 -0.0345  0.1942
 1130YOPC   C4B15042   5.012   9.235   7.493 -0.0281  0.0140 -0.0008
 1131YOPC   NC315043  16.557   0.964   5.634 -0.0903 -0.0055  0.3519
 1131YOPC   PO415044  16.747   1.164   6.004 -0.0583 -0.0002 -0.0493
 1131YOPC   GL115045  16.810   1.033   6.445 -0.0248  0.0104 -0.1039
 1131YOPC   GL215046  17.190   1.109   6.481 -0.1005  0.3022 -0.0469
 1131YOPC   C1A15047  16.741   0.966   6.879 -0.1079  0.0526  0.1964
 1131YOPC   D2A15048  16.700   0.915   7.293  0.2033 -0.0327 -0.1033
 1131YOPC   C3A15049  16.877   1.111   7.602  0.2085 -0.0809 -0.1749
 1131YOPC   C4A15050  16.757   1.358   7.827  0.1532  0.0433 -0.1661
 1131YOPC   C1B15051  17.355   1.071   6.873  0.0612  0.1552  0.1812
 1131YOPC   C2B15052  17.220   0.869   7.376 -0.0175 -0.1644 -0.0786
 1131YOPC   D3B15053  17.100   0.713   7.828  0.1095  0.3300  0.0493
 1131YOPC   C4B15054  16.911   0.767   8.279 -0.1341 -0.0352  0.0342
 1132YOPC   NC315055   7.921  15.941   5.344 -0.1795  0.0402  0.1040
 1132YOPC   PO415056   8.022  16.393   5.414  0.1422  0.0557  0.0228
 1132YOPC   GL115057   8.137  16.143   5.827 -0.1105  0.1474  0.0072
 1132YOPC   GL215058   8.207  15.804   5.705 -0.1595 -0.1076 -0.1913
 1132YOPC   C1A15059   8.361  16.276   6.205 -0.3627 -0.2005 -0.1284
 1132YOPC   D2A15060   8.300  16.182   6.714 -0.1549 -0.0122  0.1370
 1132YOPC   C3A15061   8.217  15.860   6.983  0.3082 -0.1724 -0.1360
 1132YOPC   C4A15062   8.244  15.689   7.296 -0.1777 -0.3000  0.2199
 1132YOPC   C1B15063   8.040  15.902   6.192  0.4197 -0.0527  0.4030
 1132YOPC   C2B15064   7.669  15.909   6.456  0.0485 -0.1039  0.3043
 1132YOPC   D3B15065   7.391  15.783   6.146  0.3695  0.1332  0.1252
 1132YOPC   C4B15066   7.167  15.465   6.039 -0.1716 -0.1275  0.0554
 1133YOPC   NC315067   2.602  17.584   5.683  0.1166 -0.0839  0.0965
 1133YOPC   PO415068   2.764  17.853   5.863 -0.4694  0.1018 -0.1724
 1133YOPC   GL115069   2.355  17.998   6.044  0.2767  0.0733 -0.1336
 1133YOPC   GL215070   2.185  17.702   6.036 -0.1609  0.1754  0.0480
 1133YOPC   C1A15071   2.072  18.032   6.427  0.1615  0.3084 -0.1238
 1133YOPC   D2A15072   1.821  17.734   6.675  0.2128  0.1742 -0.0630
 1133YOPC   C3A15073   2.110  17.448   6.761  0.1276  0.2501  0.1440
 1133YOPC   C4A15074   2.480  17.266   6.768 -0.1370 -0.1113 -0.3607
 1133YOPC   C1B15075   1.824  17.518   6.249 -0.1524 -0.4693  0.1998
 1133YOPC   C2B15076   1.600  17.350   6.363  0.0493  0.0490  0.1679
 1133YOPC   D3B15077   1.640  17.259   6.739 -0.0734 -0.0826  0.1763
 1133YOPC   C4B15078   1.561  17.045   7.072 -0.0345  0.2123  0.1064
 1134YOPC   NC315079   3.013  18.216   5.687 -0.3838 -0.1967 -0.0715
 1134YOPC   PO415080   2.577  18.272   5.473 -0.0095 -0.2221 -0.0899
 1134YOPC   GL115081   2.642  18.376   5.947 -0.1045  0.0618  0.0447
 1134YOPC   GL215082   2.853  18.216   6.138  0.0181 -0.3341  0.0107
 1134YOPC   C1A15083   2.320  18.467   6.255  0.0318 -0.2379  0.1332
 1134YOPC   D2A15084   1.980  18.535   6.601 -0.0712 -0.2445 -0.0479
 1134YOPC   C3A15085   1.934  18.498   7.062  0.2094 -0.0598 -0.2170
 1134YOPC   C4A15086   1.672  18.481   7.348 -0.0747  0.2529  0.1327
 1134YOPC   C1B15087   2.769  18.350   6.582  0.3136  0.3774  0.0224
 1134YOPC   C2B15088   2.395  18.453   6.909 -0.1226  0.3259 -0.1682
 1134YOPC   D3B15089   2.372  18.404   7.290 -0.1564 -0.0128 -0.0079
 1134YOPC   C4B15090   2.599  18.500   7.662  0.2728  0.0850 -0.0190
 1135YOPC   NC315091   0.777   1.514   5.790  0.0632 -0.2273 -0.0338
 1135YOPC   PO415092   1.201   1.303   5.896 -0.4710  0.0568  0.0276
 1135YOPC   GL115093   1.317   1.380   6.287 -0.1489 -0.1280  0.1800
 1135YOPC   GL215094   1.144   1.103   6.547  0.0865  0.1613  0.0689
 1135YOPC   C1A15095   1.440   1.461   6.712 -0.2722  0.1484 -0.3511
 1135YOPC   D2A15096   1.459   1.274   7.065 -0.2374  0.1431 -0.1573
 1135YOPC   C3A15097   1.652   1.328   7.539 -0.1425 -0.2782  0.1546
 1135YOPC   C4A15098   2.025   1.336   7.824  0.1906 -0.2358  0.1157
 1135YOPC   C1B15099   1.423   0.892   6.767 -0.0346 -0.3091 -0.1111
 1135YOPC   C2B15100   1.314   0.843   7.280 -0.0340 -0.0932  0.1585
 1135YOPC   D3B15101   1.269   0.547   7.643 -0.0808 -0.0729  0.1644
 1135YOPC   C4B15102   0.960   0.301   7.991 -0.2904 -0.1154  0.3520
 1136YOPC   NC315103  11.667   4.120   5.762  0.1561 -0.1044 -0.1004
 1136YOPC   PO415104  11.832   3.679   5.857 -0.3611 -0.0224  0.0498
 1136YOPC   GL115105  12.096   3.691   6.363  0.0438  0.0948 -0.1429
 1136YOPC   GL215106  12.332   3.423   6.334 -0.0251  0.4558  0.1346
 1136YOPC   C1A15107  12.230   3.882   6.666 -0.0751  0.0768  0.0116
 1136YOPC   D2A15108  11.989   4.077   6.878  0.5035 -0.1500 -0.2546
 1136YOPC   C3A15109  11.501   4.060   6.906 -0.1493  0.1286  0.2692
 1136YOPC   C4A15110  11.090   4.015   7.039 -0.2703  0.0299 -0.2786
 1136YOPC   C1B15111  12.209   3.349   6.828  0.1173  0.1839 -0.1072
 1136YOPC   C2B15112  11.985   3.312   7.371  0.1622  0.1259 -0.2397
 1136YOPC   D3B15113  11.973   3.566   7.734 -0.2010  0.1675 -0.0407
 1136YOPC   C4B15114  11.871   3.567   8.096  0.0014 -0.3189 -0.1739
 1137YOPC   NC315115  14.611  13.550   6.024 -0.0387 -0.2789 -0.0637
 1137YOPC   PO415116  15.013  13.661   6.187 -0.1082 -0.0875 -0.1207
 1137YOPC   GL115117  15.203  13.632   6.487 -0.0898  0.0495  0.1339
 1137YOPC   GL215118  15.083  13.439   6.695 -0.0080  0.0955 -0.0497
 1137YOPC   C1A15119  15.217  13.954   6.839 -0.3367 -0.0672 -0.2935
 1137YOPC   D2A15120  15.560  14.021   7.234  0.1783  0.1744  0.0679
 1137YOPC   C3A15121  15.310  14.056   7.584 -0.2346  0.2425 -0.0077
 1137YOPC   C4A15122  15.439  13.705   8.054  0.2082  0.1758 -0.1160
 1137YOPC   C1B15123  14.794  13.768   6.964 -0.2415 -0.0876  0.0950
 1137YOPC   C2B15124  14.550  13.791   7.300 -0.0233 -0.0101 -0.2177
 1137YOPC   D3B15125  14.739  13.976   7.710  0.1668 -0.0139 -0.0920
 1137YOPC   C4B15126  14.956  13.800   7.959  0.0633  0.0097 -0.1444
 1138YOPC   NC315127  16.972  12.970   6.059 -0.4240 -0.1544  0.3498
 1138YOPC   PO415128  16.663  12.681   5.932  0.0907 -0.3161 -0.1001
 1138YOPC   GL115129  16.482  12.989   6.234  0.2994 -0.0342  0.1264
 1138YOPC   GL215130  16.218  12.798   6.288  0.0828  0.0378  0.2235
 1138YOPC   C1A15131  16.601  13.086   6.621  0.0817  0.0946 -0.1988
 1138YOPC   D2A15132  16.469  13.234   7.042 -0.4499 -0.0335  0.2723
 1138YOPC   C3A15133  16.503  12.987   7.454  0.2873  0.0883  0.2017
 1138YOPC   C4A15134  16.663  12.826   7.901 -0.0387 -0.4863  0.1735
 1138YOPC   C1B15135  16.351  12.624   6.626 -0.0686 -0.0210  0.1451
 1138YOPC   C2B15136  16.256  12.594   7.009  0.3855 -0.1095  0.4230
 1138YOPC   D3B15137  16.153  12.637   7.420  0.1945 -0.2099  0.2593
 1138YOPC   C4B15138  16.223  12.591   7.923  0.1030  0.1950 -0.0513
 1139YOPC   NC315139   3.428   6.809   5.671  0.0565 -0.0851  0.2253
 1139YOPC   PO415140   3.539   7.006   6.061 -0.2223 -0.0881  0.0475
 1139YOPC   GL115141   3.394   7.257   6.416  0.0817 -0.1080  0.1560
 1139YOPC   GL215142   3.259   7.527   6.347  0.2558 -0.1733  0.0634
 1139YOPC   C1A15143   2.954   7.259   6.687 -0.0215 -0.2276  0.1708
 1139YOPC   D2A15144   2.800   7.303   7.038  0.0183  0.1677 -0.0539
 1139YOPC   C3A15145   3.087   7.368   7.431 -0.0586 -0.0663  0.1687
 1139YOPC   C4A15146   3.484   7.324   7.804  0.0046  0.0672  0.0452
 1139YOPC   C1B15147   3.344   7.584   6.770  0.2097  0.2941 -0.0827
 1139YOPC   C2B15148   3.373   7.780   7.208  0.0858  0.1462 -0.0080
 1139YOPC   D3B15149   3.379   7.822   7.658  0.0913  0.1714  0.4091
 1139YOPC   C4B15150   3.564   7.754   8.103 -0.1129  0.1719  0.0487
 1140YOPC   NC315151   0.665  10.760   5.969 -0.2123  0.1287  0.0486
 1140YOPC   PO415152   0.893  10.315   5.941  0.0118  0.1615 -0.2313
 1140YOPC   GL115153   0.724  10.217   6.413 -0.2030  0.2529 -0.1754
 1140YOPC   GL215154   0.830  10.395   6.738  0.0042 -0.1397  0.0714
 1140YOPC   C1A15155   0.453   9.940   6.636 -0.2375  0.2256  0.1159
 1140YOPC   D2A15156   0.390   9.686   6.993  0.3150  0.1816  0.3477
 1140YOPC   C3A15157   0.242   9.717   7.393 -0.1864  0.0346  0.2285
 1140YOPC   C4A15158   0.102  10.144   7.547  0.0516  0.0342  0.0650
 1140YOPC   C1B15159   1.001  10.202   7.187  0.1870  0.1819  0.3902
 1140YOPC   C2B15160   1.231   9.783   7.388 -0.3493 -0.1481  0.1456
 1140YOPC   D3B15161   1.521   9.793   7.715 -0.2575  0.1864 -0.2566
 1140YOPC   C4B15162   1.757   9.974   8.027 -0.0320 -0.0316 -0.3559
 1141YOPC   NC315163  11.404   4.956   5.745  0.0220 -0.0715 -0.2792
 1141YOPC   PO415164  11.066   5.005   5.948  0.1866  0.0999  0.3790
 1141YOPC   GL115165  10.909   4.762   6.289 -0.3760 -0.1504  0.1707
 1141YOPC   GL215166  10.904   4.479   6.297 -0.0685 -0.1020  0.0036
 1141YOPC   C1A15167  10.934   4.962   6.782  0.0663  0.2047 -0.2827
 1141YOPC   D2A15168  10.819   4.879   7.203  0.0304  0.1496  0.0607
 1141YOPC   C3A15169  10.649   4.681   7.555 -0.2075  0.3622  0.3451
 1141YOPC   C4A15170  10.937   4.540   7.912 -0.0108 -0.0677 -0.1621
 1141YOPC   C1B15171  10.762   4.405   6.750  0.0303 -0.0057  0.0982
 1141YOPC   C2B15172  10.614   4.383   7.164  0.1295  0.1369 -0.0578
 1141YOPC   D3B15173  10.544   4.077   7.468  0.0587  0.0817  0.2223
 1141YOPC   C4B15174  10.465   3.658   7.595  0.0095 -0.0645 -0.0332
 1142YOPC   NC315175   9.286   3.674   5.593 -0.0037  0.0823  0.0116
 1142YOPC   PO415176   9.342   4.073   5.742 -0.2068 -0.3331  0.0179
 1142YOPC   GL115177   9.261   4.133   6.159  0.0610  0.0656  0.1191
 1142YOPC   GL215178   8.971   4.050   6.288 -0.0931 -0.1108 -0.2349
 1142YOPC   C1A15179   9.527   4.190   6.489 -0.0725  0.1031  0.2186
 1142YOPC   D2A15180   9.655   4.116   6.914  0.1364  0.1884 -0.2187
 1142YOPC   C3A15181   9.831   4.143   7.342  0.0616 -0.1042  0.2753
 1142YOPC   C4A15182   9.864   4.307   7.822  0.0690  0.2008 -0.0418
 1142YOPC   C1B15183   9.075   4.305   6.703 -0.2917 -0.2105 -0.1349
 1142YOPC   C2B15184   8.952   4.305   7.055 -0.0305 -0.0200 -0.1696
 1142YOPC   D3B15185   8.587   4.557   7.105  0.0393  0.0868  0.1861
 1142YOPC   C4B15186   8.510   4.985   6.998  0.2452 -0.1049  0.0863
 1143YOPC   NC315187  10.304   7.589   5.240  0.2181 -0.0794 -0.0092
 1143YOPC   PO415188  10.337   7.513   5.649  0.0061 -0.1767 -0.0357
 1143YOPC   GL115189  10.208   7.525   6.078 -0.1288 -0.2990 -0.0250
 1143YOPC   GL215190  10.451   7.320   6.282 -0.0243  0.0407  0.3673
 1143YOPC   C1A15191  10.049   7.670   6.387 -0.3688 -0.1752 -0.1577
 1143YOPC   D2A15192   9.966   7.745   6.835  0.1312  0.1759 -0.2706
 1143YOPC   C3A15193  10.166   8.106   7.023  0.1779 -0.1451 -0.2225
 1143YOPC   C4A15194  10.398   8.403   7.064  0.0294 -0.0366  0.0004
 1143YOPC   C1B15195  10.859   7.479   6.360 -0.1146 -0.1540  0.1611
 1143YOPC   C2B15196  11.046   7.826   6.557 -0.1584 -0.1980 -0.1143
 1143YOPC   D3B15197  11.185   7.791   6.992  0.1617 -0.0651  0.3660
 1143YOPC   C4B15198  11.311   7.855   7.398 -0.1329 -0.0545 -0.1082
 1144ERGO   ROH15199   4.193   3.853   6.161 -0.0012  0.1589  0.0955
 1144ERGO    R115200   4.120   3.904   6.430 -0.0795 -0.0383  0.1137
 1144ERGO    R215201   4.085   3.702   6.615  0.1219 -0.1633  0.0235
 1144ERGO    R315202   4.265   3.847   6.758 -0.0420 -0.0295  0.0976
 1144ERGO    R415203   4.180   3.632   6.940  0.3138 -0.3057 -0.0617
 1144ERGO    R515204   4.177   3.846   6.981  0.0210 -0.3443  0.1232
 1144ERGO    C115205   4.405   3.727   7.263  0.2716 -0.2630 -0.0418
 1144ERGO    C215206   4.534   3.449   7.514  0.3163 -0.0922 -0.0566
 1145ERGO   ROH15207  14.581  13.414   6.537  0.1964  0.0534  0.0877
 1145ERGO    R115208  14.568  13.257   6.773  0.3866  0.0010  0.0640
 1145ERGO    R215209  14.749  13.285   6.981  0.1418  0.4574  0.2213
 1145ERGO    R315210  14.524  13.319   7.129 -0.0898 -0.1261  0.0361
 1145ERGO    R415211  14.736  13.284   7.326 -0.0602  0.7329  0.2194
 1145ERGO    R515212  14.551  13.171   7.314  0.2820  0.1078  0.1883
 1145ERGO    C115213  14.518  13.315   7.666 -0.3953  0.3455  0.0444
 1145ERGO    C215214  14.283  13.157   8.011 -0.3024  0.0704  0.0723
 1146ERGO   ROH15215  11.978  17.082   9.994 -0.1858 -0.0590 -0.1547
 1146ERGO    R115216  11.913  17.128   9.723 -0.1681  0.0692 -0.1383
 1146ERGO    R215217  11.968  17.366   9.595  0.1318  0.0195 -0.1116
 1146ERGO    R315218  12.094  17.204   9.416 -0.1099 -0.1263 -0.1536
 1146ERGO    R415219  11.998  17.431   9.256  0.3607  0.1429 -0.0692
 1146ERGO    R515220  11.960  17.219   9.218 -0.0223  0.2267 -0.1908
 1146ERGO    C115221  12.134  17.316   8.892  0.2671  0.0777 -0.0841
 1146ERGO    C215222  12.269  17.552   8.722  0.2371 -0.2309  0.0585
 1147ERGO   ROH15223   7.715  16.003   9.635  0.0891 -0.2014 -0.1042
 1147ERGO    R115224   7.595  16.021   9.380  0.0858 -0.2197 -0.1038
 1147ERGO    R215225   7.637  16.235   9.210 -0.1953 -0.0566  0.0237
 1147ERGO    R315226   7.709  16.040   9.035  0.0942  0.1405 -0.0842
 1147ERGO    R415227   7.623  16.265   8.866 -0.6008 -0.0135  0.0382
 1147ERGO    R515228   7.550  16.060   8.856 -0.1336 -0.1924  0.0736
 1147ERGO    C115229   7.683  16.100   8.501 -0.5650  0.1966 -0.0546
 1147ERGO    C215230   7.715  16.230   8.160  0.0340  0.1148 -0.0113
 1148ERGO   ROH15231   7.595   3.393   6.557  0.0692 -0.0819 -0.0140
 1148ERGO    R115232   7.572   3.372   6.838  0.0996 -0.1382 -0.0156
 1148ERGO    R215233   7.692   3.169   6.983  0.1949 -0.1138 -0.0584
 1148ERGO    R315234   7.799   3.377   7.123  0.1206 -0.0920 -0.0336
 1148ERGO    R415235   7.753   3.169   7.323  0.0579 -0.0734 -0.0330
 1148ERGO    R515236   7.683   3.375   7.332  0.0374 -0.0804 -0.0806
 1148ERGO    C115237   7.889   3.363   7.652 -0.0916 -0.0295  0.0052
 1148ERGO    C215238   8.092   3.402   7.706 -0.1886 -0.0634 -0.0228
 1149ERGO   ROH15239   1.370   8.900  10.001  0.2092  0.1761 -0.0126
 1149ERGO    R115240   1.566   8.891   9.797  0.1482  0.2581 -0.0781
 1149ERGO    R215241   1.545   8.723   9.578  0.3867 -0.1355  0.1713
 1149ERGO    R315242   1.578   8.954   9.438 -0.1455 -0.2599 -0.1850
 1149ERGO    R415243   1.644   8.742   9.247  0.3895 -0.3808  0.1576
 1149ERGO    R515244   1.768   8.913   9.300 -0.0305 -0.0028 -0.0877
 1149ERGO    C115245   1.732   8.969   8.924 -0.1085 -0.6405 -0.1849
 1149ERGO    C215246   1.958   9.024   8.606 -0.1621  0.0474  0.0276
 1150ERGO   ROH15247   5.639   0.742   9.892 -0.4017 -0.0319  0.0610
 1150ERGO    R115248   5.668   0.662   9.622 -0.0831  0.0106  0.0783
 1150ERGO    R215249   5.528   0.450   9.513 -0.0063  0.0646 -0.1389
 1150ERGO    R315250   5.453   0.636   9.329  0.2727  0.1209 -0.1992
 1150ERGO    R415251   5.441   0.379   9.187 -0.1606  0.0862 -0.1024
 1150ERGO    R515252   5.550   0.557   9.124  0.1236 -0.1121 -0.1812
 1150ERGO    C115253   5.319   0.511   8.824  0.0116  0.1517 -0.1380
 1150ERGO    C215254   5.185   0.583   8.434 -0.1497 -0.0111  0.1057
 1151ERGO   ROH15255  12.963   8.496   6.698  0.2281 -0.3629  0.3399
 1151ERGO    R115256  13.027   8.641   6.933  0.2230 -0.2936  0.3008
 1151ERGO    R215257  12.900   8.877   7.002  0.4842 -0.0510  0.0290
 1151ERGO    R315258  12.854   8.745   7.235  0.0848  0.1541  0.0727
 1151ERGO    R415259  12.900   9.023   7.314  0.6255  0.0838 -0.0344
 1151ERGO    R515260  13.003   8.848   7.392  0.2145 -0.0938  0.1021
 1151ERGO    C115261  12.857   8.986   7.716  0.3330  0.3547 -0.0302
 1151ERGO    C215262  12.806   9.315   7.865 -0.0025 -0.1648  0.2349
 1152ERGO   ROH15263  17.939   2.499   6.272  0.0617 -0.1522 -0.0326
 1152ERGO    R115264  17.901   2.640   6.514  0.1001  0.0035 -0.1152
 1152ERGO    R215265  17.807   2.519   6.744 -0.2286  0.2253 -0.1207
 1152ERGO    R315266  18.033   2.625   6.853 -0.1429 -0.0505 -0.0219
 1152ERGO    R415267  17.874   2.535   7.083 -0.3569  0.1542 -0.0918
 1152ERGO    R515268  17.956   2.735   7.052 -0.0945  0.0509 -0.0615
 1152ERGO    C115269  18.124   2.644   7.382 -0.3512 -0.1461  0.0177
 1152ERGO    C215270  17.933   2.441   7.611  0.0685  0.0291  0.0990
 1153ERGO   ROH15271  12.076  10.562   9.397 -0.0424 -0.1144 -0.0691
 1153ERGO    R115272  12.129  10.470   9.135  0.0190 -0.1676 -0.0385
 1153ERGO    R215273  11.946  10.323   8.989  0.0053 -0.0959 -0.0965
 1153ERGO    R315274  11.984  10.518   8.804  0.1737 -0.1330 -0.1015
 1153ERGO    R415275  11.912  10.281   8.648 -0.2371 -0.0234 -0.0833
 1153ERGO    R515276  12.088  10.405   8.620 -0.0787 -0.2625 -0.1677
 1153ERGO    C115277  11.928  10.440   8.275 -0.2202 -0.0159 -0.0800
 1153ERGO    C215278  12.018  10.456   7.941 -0.0850 -0.0181 -0.0005
 1154ERGO   ROH15279   8.607   2.272  10.069  0.0321 -0.1452  0.0977
 1154ERGO    R115280   8.702   2.415   9.843  0.0147 -0.0599  0.1432
 1154ERGO    R215281   8.843   2.293   9.639  0.0468  0.0262  0.1106
 1154ERGO    R315282   8.649   2.404   9.483  0.0301  0.0359  0.1387
 1154ERGO    R415283   8.874   2.360   9.301  0.0328  0.1264  0.1292
 1154ERGO    R515284   8.768   2.548   9.334  0.0025  0.0968  0.1788
 1154ERGO    C115285   8.711   2.504   8.959  0.0090  0.1940  0.1665
 1154ERGO    C215286   8.612   2.501   8.715 -0.2304 -0.1565 -0.1306
 1155ERGO   ROH15287   4.005  18.231   6.273  0.0575  0.1331 -0.0040
 1155ERGO    R115288   3.944  18.435   6.460 -0.0371  0.0450  0.0610
 1155ERGO    R215289   3.716  18.429   6.617 -0.0078 -0.1363  0.0941
 1155ERGO    R315290   3.894  18.457   6.820  0.0052 -0.0812  0.0761
 1155ERGO    R415291   3.646  18.574   6.922 -0.0370 -0.1889  0.1130
 1155ERGO    R515292   3.841  18.670   6.917 -0.0730 -0.1075  0.0980
 1155ERGO    C115293   3.772  18.685   7.291 -0.0417 -0.1679  0.1071
 1155ERGO    C215294   3.642  18.572   7.637  0.0407 -0.1899 -0.0408
 1156ERGO   ROH15295  15.452  17.173  10.138  0.4206  0.0255  0.0085
 1156ERGO    R115296  15.351  17.244   9.883  0.2417  0.1824  0.1201
 1156ERGO    R215297  15.498  17.388   9.700  0.2335  0.0254 -0.0143
 1156ERGO    R315298  15.439  17.180   9.536 -0.1946  0.1146  0.0156
 1156ERGO    R415299  15.418  17.417   9.365  0.4220  0.1376 -0.0507
 1156ERGO    R515300  15.266  17.263   9.394  0.0453  0.4908 -0.0683
 1156ERGO    C115301  15.316  17.238   9.016  0.1300  0.2864 -0.0439
 1156ERGO    C215302  15.402  17.469   8.832  0.0977  0.0975 -0.0167
 1157ERGO   ROH15303  15.816   3.174   9.684  0.1191 -0.1435 -0.1487
 1157ERGO    R115304  15.896   3.212   9.415  0.1251 -0.1297 -0.1454
 1157ERGO    R215305  15.811   3.048   9.210  0.0266 -0.0428 -0.1771
 1157ERGO    R315306  15.733   3.283   9.098  0.1444  0.0230 -0.1216
 1157ERGO    R415307  15.871   3.140   8.882  0.1473  0.0425 -0.1314
 1157ERGO    R515308  15.914   3.342   8.952  0.2046  0.0034 -0.0544
 1157ERGO    C115309  15.833   3.413   8.586  0.3283  0.1540 -0.0526
 1157ERGO    C215310  16.049   3.488   8.285  0.1172  0.4057  0.1332
 1158ERGO   ROH15311   6.290   1.113   9.930 -0.0174  0.1493 -0.0712
 1158ERGO    R115312   6.414   1.068   9.680  0.0295  0.1124 -0.0421
 1158ERGO    R215313   6.325   0.874   9.503  0.1325  0.0072  0.0160
 1158ERGO    R315314   6.315   1.084   9.330  0.0578 -0.0574 -0.0581
 1158ERGO    R415315   6.329   0.846   9.158 -0.0173 -0.1155  0.0236
 1158ERGO    R515316   6.460   1.020   9.150 -0.0220 -0.1204 -0.0981
 1158ERGO    C115317   6.321   1.027   8.795 -0.1746 -0.2477 -0.0415
 1158ERGO    C215318   6.167   0.983   8.508  0.3566 -0.1667 -0.0855
 1159ERGO   ROH15319  15.173   0.269   6.808 -0.1122  0.1149 -0.2206
 1159ERGO    R115320  15.006   0.374   7.010 -0.0268  0.0337 -0.1065
 1159ERGO    R215321  14.771   0.252   7.087 -0.0536  0.0647 -0.1396
 1159ERGO    R315322  14.882   0.265   7.335  0.0093 -0.1517 -0.1538
 1159ERGO    R415323  14.610   0.165   7.381 -0.1208  0.1953 -0.1369
 1159ERGO    R515324  14.703   0.338   7.476  0.1266  0.0486 -0.1034
 1159ERGO    C115325  14.621   0.127   7.784 -0.1009  0.0682 -0.1487
 1159ERGO    C215326  14.262  -0.015   7.921 -0.0539  0.0856  0.0872
 1160ERGO   ROH15327   9.160   8.034   6.503 -0.1370  0.1269  0.0875
 1160ERGO    R115328   9.175   8.019   6.785 -0.1122  0.0115  0.0805
 1160ERGO    R215329   9.138   8.239   6.948 -0.0390 -0.0428  0.1714
 1160ERGO    R315330   8.952   8.080   7.066 -0.0682 -0.0414  0.1274
 1160ERGO    R415331   9.163   8.110   7.268 -0.1445  0.0112  0.2018
 1160ERGO    R515332   9.080   7.922   7.193 -0.0994 -0.0091  0.2005
 1160ERGO    C115333   9.002   7.885   7.564 -0.2334  0.0440  0.1782
 1160ERGO    C215334   8.930   7.605   7.910  0.0161 -0.0731  0.0335
 1161ERGO   ROH15335  15.050   1.085   9.685  0.0484 -0.0735  0.0837
 1161ERGO    R115336  15.172   0.972   9.456  0.0526 -0.1939  0.1433
 1161ERGO    R215337  15.090   0.732   9.346 -0.2280 -0.0495  0.0165
 1161ERGO    R315338  15.069   0.880   9.119  0.1581  0.0536  0.0423
 1161ERGO    R415339  15.170   0.620   9.029 -0.0825 -0.0367  0.0486
 1161ERGO    R515340  15.258   0.815   8.987  0.1953 -0.1327  0.1899
 1161ERGO    C115341  15.196   0.694   8.631  0.3647  0.0676  0.0914
 1161ERGO    C215342  15.239   0.578   8.390 -0.0270  0.0867  0.3303
 1162ERGO   ROH15343   0.904   6.951  10.218 -0.2732  0.0503  0.0857
 1162ERGO    R115344   0.753   7.024   9.989 -0.0998  0.0411 -0.0357
 1162ERGO    R215345   0.860   7.170   9.780  0.1021 -0.0841 -0.0322
 1162ERGO    R315346   0.769   6.961   9.631  0.0943 -0.1008 -0.0017
 1162ERGO    R415347   0.794   7.183   9.441  0.0737 -0.1360 -0.0277
 1162ERGO    R515348   0.617   7.061   9.476  0.0841 -0.1303 -0.0021
 1162ERGO    C115349   0.671   6.995   9.104  0.0499 -0.1820  0.0037
 1162ERGO    C215350   0.689   7.013   8.790 -0.2646 -0.4653 -0.0446
 1163ERGO   ROH15351   5.707  13.960   9.569 -0.0757  0.0605 -0.1791
 1163ERGO    R115352   5.772  13.919   9.297 -0.2327 -0.1439 -0.1880
 1163ERGO    R215353   5.588  13.831   9.111 -0.4854  0.2336 -0.1212
 1163ERGO    R315354   5.665  14.054   8.977 -0.0110  0.0399 -0.1894
 1163ERGO    R415355   5.598  13.862   8.767 -0.4614  0.1075 -0.1326
 1163ERGO    R515356   5.785  13.971   8.787 -0.2061 -0.2850 -0.1847
 1163ERGO    C115357   5.677  14.090   8.441 -0.0023 -0.1479 -0.2035
 1163ERGO    C215358   5.599  14.345   8.205  0.0663 -0.3152 -0.2537
 1164ERGO   ROH15359  13.418  16.722  10.536 -0.1234 -0.1556  0.1256
 1164ERGO    R115360  13.181  16.696  10.383  0.0064 -0.3009 -0.0551
 1164ERGO    R215361  13.014  16.909  10.330 -0.1981 -0.4437  0.0055
 1164ERGO    R315362  13.051  16.833  10.072  0.0639 -0.1982 -0.0344
 1164ERGO    R415363  12.913  17.092  10.055 -0.2964 -0.3736  0.0869
 1164ERGO    R515364  12.851  16.906   9.960  0.0226 -0.3956 -0.0933
 1164ERGO    C115365  12.889  17.127   9.652 -0.1077 -0.1025  0.0968
 1164ERGO    C215366  13.073  17.330   9.490  0.1364 -0.2216  0.2165
 1165ERGO   ROH15367   5.402  11.231   9.631 -0.0871  0.0342  0.0481
 1165ERGO    R115368   5.280  11.278   9.381 -0.2699 -0.0475  0.1205
 1165ERGO    R215369   5.418  11.259   9.142 -0.3526  0.2222  0.0522
 1165ERGO    R315370   5.217  11.087   9.077 -0.1511 -0.0328  0.0846
 1165ERGO    R415371   5.357  11.138   8.824 -0.2679  0.1820  0.0507
 1165ERGO    R515372   5.143  11.161   8.862 -0.2979 -0.0968  0.1075
 1165ERGO    C115373   5.133  10.906   8.578 -0.0295 -0.0809  0.0801
 1165ERGO    C215374   4.981  10.800   8.257 -0.0643  0.0106  0.1215
 1166ERGO   ROH15375  16.836  14.577   9.974  0.1145  0.0191  0.0882
 1166ERGO    R115376  16.858  14.466   9.714  0.1165  0.1158  0.0473
 1166ERGO    R215377  16.657  14.314   9.600  0.1798  0.0358  0.0509
 1166ERGO    R315378  16.679  14.495   9.398  0.0225  0.1120  0.0986
 1166ERGO    R415379  16.625  14.241   9.264  0.0690  0.1262  0.0400
 1166ERGO    R515380  16.791  14.376   9.224  0.0008  0.2092  0.0134
 1166ERGO    C115381  16.628  14.367   8.879 -0.1432  0.2503  0.0784
 1166ERGO    C215382  16.738  14.189   8.532  0.2695 -0.2604  0.1354
 1167ERGO   ROH15383   1.496   6.842   6.829 -0.2548  0.0397 -0.2363
 1167ERGO    R115384   1.512   6.847   7.112 -0.0830  0.0288 -0.2444
 1167ERGO    R215385   1.288   6.834   7.273  0.0070  0.1082 -0.1085
 1167ERGO    R315386   1.421   6.625   7.385 -0.0012  0.0565 -0.1952
 1167ERGO    R415387   1.218   6.700   7.584  0.1356  0.1099 -0.0783
 1167ERGO    R515388   1.433   6.680   7.618  0.1470  0.0355 -0.1981
 1167ERGO    C115389   1.302   6.425   7.870  0.2028  0.0623 -0.1421
 1167ERGO    C215390   1.257   6.164   8.036 -0.0195  0.4124  0.0352
 1168ERGO   ROH15391  16.331  13.461   6.449 -0.1011 -0.3763  0.0310
 1168ERGO    R115392  16.180  13.619   6.628  0.2503 -0.3421  0.3100
 1168ERGO    R215393  15.914  13.682   6.583  0.4075  0.4553  0.3275
 1168ERGO    R315394  15.882  13.576   6.832  0.0524 -0.0011  0.1023
 1168ERGO    R415395  15.617  13.678   6.760  0.2595  0.5514  0.0861
 1168ERGO    R515396  15.729  13.725   6.941  0.1971  0.0198  0.2778
 1168ERGO    C115397  15.414  13.577   7.097 -0.1599  0.1788 -0.2658
 1168ERGO    C215398  15.224  13.360   7.187 -0.0599  0.1058 -0.0328
 1169ERGO   ROH15399  11.056  17.544   6.651  0.0345  0.0847 -0.0325
 1169ERGO    R115400  11.224  17.399   6.828  0.0163  0.1483  0.0372
 1169ERGO    R215401  11.335  17.513   7.055 -0.0435  0.2173  0.0301
 1169ERGO    R315402  11.217  17.302   7.178 -0.0412  0.2337  0.0609
 1169ERGO    R415403  11.412  17.400   7.372  0.0506  0.1904 -0.0022
 1169ERGO    R515404  11.395  17.196   7.299 -0.0150  0.1946 -0.0073
 1169ERGO    C115405  11.347  17.136   7.672  0.1075  0.1901  0.0079
 1169ERGO    C215406  11.335  17.192   8.041  0.1741  0.0401 -0.1273
 1170ERGO   ROH15407  18.008  10.511   9.805  0.1806  0.1648 -0.1149
 1170ERGO    R115408  18.058  10.348   9.580  0.0216 -0.0503  0.0019
 1170ERGO    R215409  17.859  10.205   9.452 -0.1557  0.1927 -0.0025
 1170ERGO    R315410  17.950  10.336   9.232  0.1570 -0.0763 -0.0395
 1170ERGO    R415411  17.868  10.073   9.133 -0.1065 -0.0454  0.0955
 1170ERGO    R515412  18.062  10.167   9.105  0.0328 -0.3095  0.1540
 1170ERGO    C115413  17.959  10.119   8.741  0.2157 -0.4365  0.1178
 1170ERGO    C215414  18.109  10.233   8.557  0.0978  0.0548  0.3370
 1171ERGO   ROH15415  15.547  13.861  10.088  0.2031 -0.1257 -0.0664
 1171ERGO    R115416  15.468  13.845   9.816  0.2549 -0.0605 -0.0851
 1171ERGO    R215417  15.481  14.061   9.644  0.1692  0.0122  0.0051
 1171ERGO    R315418  15.626  13.889   9.492  0.2822  0.1499 -0.0465
 1171ERGO    R415419  15.515  14.082   9.301 -0.1045 -0.0321 -0.0270
 1171ERGO    R515420  15.497  13.865   9.291  0.1618 -0.0657  0.0488
 1171ERGO    C115421  15.670  13.932   8.958 -0.1578  0.0712 -0.0941
 1171ERGO    C215422  15.675  13.897   8.686  0.0910  0.0062  0.1371
 1172ERGO   ROH15423   7.924   1.772   9.728 -0.1307  0.2372 -0.0107
 1172ERGO    R115424   7.852   1.860   9.469 -0.3712 -0.0571 -0.0487
 1172ERGO    R215425   8.039   1.917   9.274 -0.5022  0.4559 -0.0337
 1172ERGO    R315426   7.893   1.740   9.128  0.0440 -0.0508 -0.0079
 1172ERGO    R415427   8.029   1.907   8.929 -0.6029  0.5039 -0.0332
 1172ERGO    R515428   7.815   1.868   8.941 -0.4925 -0.2617  0.0499
 1172ERGO    C115429   7.886   1.735   8.591 -0.1488  0.0562 -0.0087
 1172ERGO    C215430   8.080   1.757   8.366  0.2317  0.0048  0.0534
 1173ERGO   ROH15431  12.028   5.338   6.566  0.1996 -0.2189 -0.0021
 1173ERGO    R115432  12.100   5.183   6.792 -0.0647 -0.2554  0.0591
 1173ERGO    R215433  12.111   5.288   7.047 -0.0628 -0.2197  0.0368
 1173ERGO    R315434  11.943   5.082   7.104 -0.3084 -0.0326  0.0148
 1173ERGO    R415435  12.068   5.150   7.361  0.1002 -0.4591 -0.0426
 1173ERGO    R515436  12.061   4.953   7.267 -0.2972 -0.3718 -0.2414
 1173ERGO    C115437  11.885   4.875   7.597 -0.0353 -0.4229 -0.1094
 1173ERGO    C215438  11.679   4.884   8.011 -0.1822 -0.1008 -0.3338
 1174ERGO   ROH15439  17.866  14.373   9.748 -0.0549  0.1699 -0.0927
 1174ERGO    R115440  17.712  14.223   9.564  0.1222 -0.2203  0.0675
 1174ERGO    R215441  17.606  14.333   9.334 -0.3993 -0.4763  0.1760
 1174ERGO    R315442  17.739  14.129   9.213 -0.0037 -0.1535  0.0381
 1174ERGO    R415443  17.582  14.253   8.999 -0.4710 -0.4569  0.1759
 1174ERGO    R515444  17.582  14.042   9.054  0.0628 -0.4864  0.1399
 1174ERGO    C115445  17.692  14.014   8.690 -0.1414 -0.1425  0.0464
 1174ERGO    C215446  17.772  13.982   8.330  0.4623  0.1029  0.1512
 1175ERGO   ROH15447   2.794  13.039   5.971  0.3140 -0.2358 -0.1212
 1175ERGO    R115448   2.980  13.038   6.185  0.2525 -0.0149 -0.0652
 1175ERGO    R215449   3.026  13.260   6.342 -0.1081  0.0231 -0.0075
 1175ERGO    R315450   2.969  13.089   6.545  0.0717 -0.0987 -0.0570
 1175ERGO    R415451   3.103  13.316   6.674 -0.1227 -0.0104  0.0018
 1175ERGO    R515452   3.159  13.106   6.691  0.0757  0.0308 -0.0731
 1175ERGO    C115453   3.095  13.188   7.058  0.0375 -0.1442 -0.0392
 1175ERGO    C215454   3.144  13.150   7.430  0.2736 -0.2504 -0.2993
 1176ERGO   ROH15455   7.879   0.002   6.435  0.2092  0.4186  0.0971
 1176ERGO    R115456   7.782  -0.067   6.692  0.0679  0.2374 -0.0028
 1176ERGO    R215457   7.831   0.087   6.916  0.0545  0.0144  0.1575
 1176ERGO    R315458   7.560   0.082   6.939  0.0409  0.1295  0.0377
 1176ERGO    R415459   7.657   0.147   7.208 -0.0411 -0.1677  0.1399
 1176ERGO    R515460   7.521  -0.015   7.155 -0.1014 -0.0502 -0.0670
 1176ERGO    C115461   7.302   0.178   7.401 -0.1096 -0.1656  0.0171
 1176ERGO    C215462   7.180   0.350   7.796 -0.3853 -0.1105 -0.0921
 1177ERGO   ROH15463  15.203   8.384   9.555  0.1617 -0.0445 -0.0127
 1177ERGO    R115464  15.136   8.216   9.338  0.1533 -0.1048  0.0360
 1177ERGO    R215465  14.976   8.300   9.128  0.0706 -0.1902  0.0615
 1177ERGO    R315466  15.187   8.216   8.977  0.0568 -0.1541  0.0225
 1177ERGO    R415467  14.962   8.230   8.789  0.0279 -0.1707  0.0595
 1177ERGO    R515468  15.091   8.058   8.824  0.0542 -0.1554  0.0276
 1177ERGO    C115469  15.151   8.111   8.451 -0.0099 -0.1253  0.0218
 1177ERGO    C215470  15.286   8.285   8.173  0.1136  0.1692  0.0244
 1178ERGO   ROH15471   6.550   3.691   6.679 -0.1135 -0.0526  0.0177
 1178ERGO    R115472   6.675   3.780   6.917 -0.2595  0.0516  0.0585
 1178ERGO    R215473   6.558   3.754   7.165 -0.2464 -0.2027  0.0470
 1178ERGO    R315474   6.792   3.629   7.227 -0.0670  0.1106  0.0141
 1178ERGO    R415475   6.669   3.689   7.486 -0.1990 -0.2290  0.0242
 1178ERGO    R515476   6.871   3.743   7.422 -0.2697  0.1107  0.0921
 1178ERGO    C115477   6.954   3.535   7.731 -0.0030  0.0499 -0.0199
 1178ERGO    C215478   6.987   3.389   8.072  0.2069  0.0177  0.4027
 1179ERGO   ROH15479   1.147   1.642   9.837  0.0559  0.1475  0.1320
 1179ERGO    R115480   1.068   1.792   9.610  0.0075  0.1025  0.1180
 1179ERGO    R215481   1.250   1.913   9.441 -0.0276  0.0563  0.0445
 1179ERGO    R315482   1.118   1.772   9.250 -0.0828  0.0212  0.1092
 1179ERGO    R415483   1.218   2.011   9.112 -0.1303  0.0057  0.0401
 1179ERGO    R515484   1.011   1.940   9.116 -0.1284 -0.0008  0.1161
 1179ERGO    C115485   1.074   1.937   8.740 -0.2420 -0.0567  0.0984
 1179ERGO    C215486   1.165   1.898   8.441  0.0040 -0.0676  0.2643
 1180ERGO   ROH15487   0.464  14.057   9.873 -0.1480  0.0946  0.0868
 1180ERGO    R115488   0.520  14.112   9.601 -0.2008  0.0364  0.0650
 1180ERGO    R215489   0.653  13.934   9.438 -0.1516  0.0423  0.1052
 1180ERGO    R315490   0.434  13.967   9.279 -0.1802 -0.0901  0.1150
 1180ERGO    R415491   0.657  13.925   9.092 -0.1556  0.0481  0.1041
 1180ERGO    R515492   0.516  14.091   9.091 -0.2607 -0.0355  0.1123
 1180ERGO    C115493   0.455  13.950   8.742 -0.1848 -0.0728  0.1129
 1180ERGO    C215494   0.424  13.858   8.428 -0.0612 -0.0489  0.1776
 1181ERGO   ROH15495   4.080  14.008   9.527  0.0463 -0.0138  0.0664
 1181ERGO    R115496   3.942  13.934   9.292  0.1460 -0.0265  0.0121
 1181ERGO    R215497   3.751  14.096   9.175 -0.0045 -0.1568  0.0843
 1181ERGO    R315498   3.906  14.064   8.954  0.0481  0.1223  0.0773
 1181ERGO    R415499   3.641  14.133   8.849 -0.0977 -0.3561  0.0908
 1181ERGO    R515500   3.762  13.960   8.794  0.2201 -0.1466  0.0864
 1181ERGO    C115501   3.723  14.125   8.452 -0.1026 -0.2103  0.0880
 1181ERGO    C215502   3.607  14.140   8.081 -0.0549  0.1050 -0.1245
 1182ERGO   ROH15503   2.067  10.045   9.899 -0.0069  0.1753 -0.1392
 1182ERGO    R115504   1.953  10.018   9.641  0.0055  0.5471 -0.1881
 1182ERGO    R215505   2.030  10.175   9.427  0.7806  0.1835 -0.2060
 1182ERGO    R315506   2.072   9.935   9.307 -0.1305 -0.0700 -0.0980
 1182ERGO    R415507   2.029  10.122   9.086  0.7492  0.0787 -0.1909
 1182ERGO    R515508   1.923   9.935   9.120 -0.0582  0.4885 -0.1787
 1182ERGO    C115509   2.069   9.866   8.774 -0.1242 -0.2202 -0.0810
 1182ERGO    C215510   2.048  10.067   8.439 -0.0491 -0.0013 -0.3791
 1183ERGO   ROH15511   9.888  12.262   6.203 -0.1142  0.0544 -0.0266
 1183ERGO    R115512  10.064  12.482   6.233 -0.2797  0.1862 -0.0022
 1183ERGO    R215513   9.984  12.723   6.343 -0.4133  0.0510  0.2042
 1183ERGO    R315514  10.196  12.680   6.508 -0.2679  0.1218  0.0390
 1183ERGO    R415515  10.147  12.968   6.524 -0.4270  0.0937  0.1575
 1183ERGO    R515516  10.336  12.871   6.477 -0.4017  0.2151 -0.0086
 1183ERGO    C115517  10.440  13.070   6.785 -0.2986  0.1851 -0.0247
 1183ERGO    C215518  10.580  13.133   7.116 -0.2262 -0.1897  0.0581
 1184ERGO   ROH15519  11.382  14.572   9.655  0.1064 -0.3781  0.0557
 1184ERGO    R115520  11.560  14.659   9.454  0.1081 -0.2348  0.1174
 1184ERGO    R215521  11.550  14.564   9.194  0.2400 -0.2041  0.0967
 1184ERGO    R315522  11.534  14.828   9.133  0.0873 -0.2041  0.1364
 1184ERGO    R415523  11.603  14.697   8.880  0.2985 -0.1059  0.1483
 1184ERGO    R515524  11.709  14.863   8.974  0.1377 -0.0511  0.2275
 1184ERGO    C115525  11.619  15.023   8.639  0.1892 -0.0486  0.2156
 1184ERGO    C215526  11.598  15.045   8.274 -0.0857  0.3280  0.1922
 1185ERGO   ROH15527   3.222  17.960   9.510  0.0912  0.1323 -0.0636
 1185ERGO    R115528   3.217  17.845   9.251  0.1361  0.1586 -0.0756
 1185ERGO    R215529   3.007  17.690   9.162  0.2535 -0.0168 -0.0452
 1185ERGO    R315530   3.005  17.867   8.956  0.0495  0.0071 -0.0266
 1185ERGO    R415531   2.897  17.619   8.842  0.2950 -0.0957 -0.0429
 1185ERGO    R515532   3.065  17.735   8.765  0.1690  0.0882 -0.0473
 1185ERGO    C115533   2.832  17.744   8.462  0.1277 -0.1195 -0.0242
 1185ERGO    C215534   2.618  17.634   8.201 -0.0707  0.2003  0.0571
 1186ERGO   ROH15535  12.640   3.364   9.853  0.1579 -0.0241  0.0516
 1186ERGO    R115536  12.476   3.289   9.634 -0.1485  0.1156  0.2282
 1186ERGO    R215537  12.299   3.463   9.514  0.2307  0.4266  0.1129
 1186ERGO    R315538  12.433   3.393   9.288 -0.0553 -0.1968  0.1173
 1186ERGO    R415539  12.202   3.547   9.194  0.4524  0.6291  0.0948
 1186ERGO    R515540  12.259   3.347   9.129 -0.2880  0.3483  0.1843
 1186ERGO    C115541  12.270   3.530   8.795  0.3130  0.1619  0.0885
 1186ERGO    C215542  12.229   3.646   8.542  0.2623 -0.1267 -0.0408
 1187ERGO   ROH15543   0.170  16.121   6.221 -0.1902 -0.0968  0.0273
 1187ERGO    R115544   0.292  16.013   6.453 -0.3634 -0.3140  0.0205
 1187ERGO    R215545   0.362  16.169   6.670  0.1908 -0.3730 -0.1004
 1187ERGO    R315546   0.211  15.989   6.807 -0.2571  0.1125  0.0795
 1187ERGO    R415547   0.335  16.154   7.014  0.4422 -0.1927 -0.0692
 1187ERGO    R515548   0.341  15.936   7.001 -0.2353 -0.2346 -0.0232
 1187ERGO    C115549   0.177  15.975   7.343  0.1681  0.3683  0.1179
 1187ERGO    C215550   0.122  15.959   7.667  0.1322  0.0044  0.3056
 1188ERGO   ROH15551  14.262  17.325  10.195 -0.2226  0.0959 -0.0596
 1188ERGO    R115552  14.403  17.244   9.964  0.1245  0.2719  0.0843
 1188ERGO    R215553  14.276  17.158   9.734  0.4677 -0.1527  0.0429
 1188ERGO    R315554  14.427  17.352   9.617  0.1207  0.1242  0.0361
 1188ERGO    R415555  14.258  17.248   9.400  0.3309 -0.2342  0.0273
 1188ERGO    R515556  14.475  17.266   9.399  0.3098  0.1781  0.0519
 1188ERGO    C115557  14.389  17.482   9.097 -0.0746 -0.0218  0.0118
 1188ERGO    C215558  14.359  17.611   8.802 -0.1660 -0.0250  0.0366
 1189ERGO   ROH15559   1.312   6.529   6.509 -0.1957 -0.0298 -0.0173
 1189ERGO    R115560   1.221   6.363   6.719 -0.2962 -0.0673 -0.0907
 1189ERGO    R215561   1.240   6.435   6.985 -0.1390 -0.2474 -0.0544
 1189ERGO    R315562   0.973   6.384   6.985 -0.1933  0.0187  0.0011
 1189ERGO    R415563   1.041   6.413   7.268 -0.1137  0.0284 -0.0121
 1189ERGO    R515564   0.938   6.245   7.176 -0.2989  0.1022  0.0474
 1189ERGO    C115565   0.675   6.353   7.431 -0.1497  0.4389  0.0647
 1189ERGO    C215566   0.530   6.452   7.551 -0.0456  0.0527  0.0706
 1190ERGO   ROH15567  13.598   1.979   6.555  0.0540  0.1733  0.0333
 1190ERGO    R115568  13.369   1.973   6.721  0.0169  0.2516 -0.0138
 1190ERGO    R215569  13.353   1.814   6.946 -0.1692  0.0814 -0.1412
 1190ERGO    R315570  13.291   2.049   7.068  0.0285  0.0451  0.0353
 1190ERGO    R415571  13.209   1.843   7.259 -0.0759 -0.0257 -0.0877
 1190ERGO    R515572  13.086   2.005   7.182  0.0232  0.1173  0.0516
 1190ERGO    C115573  13.068   2.081   7.555  0.1641 -0.1222  0.1091
 1190ERGO    C215574  13.052   2.173   7.878 -0.0075 -0.1742 -0.0919
 1191ERGO   ROH15575   6.034   6.360  10.177 -0.1149  0.1067  0.0194
 1191ERGO    R115576   6.138   6.388   9.916  0.0568  0.0975  0.0839
 1191ERGO    R215577   6.044   6.242   9.702  0.2878 -0.0113  0.0467
 1191ERGO    R315578   6.010   6.487   9.589  0.2302 -0.0561 -0.0308
 1191ERGO    R415579   6.063   6.307   9.363  0.2414 -0.1117  0.0255
 1191ERGO    R515580   6.169   6.492   9.410  0.2077 -0.0799 -0.0465
 1191ERGO    C115581   6.042   6.575   9.060  0.1603 -0.2121 -0.0597
 1191ERGO    C215582   6.101   6.511   8.703  0.0244  0.1290  0.1909
 1192ERGO   ROH15583  13.736  11.048   6.316  0.0892 -0.2893 -0.0189
 1192ERGO    R115584  13.850  10.981   6.567 -0.0433 -0.2850  0.0437
 1192ERGO    R215585  13.970  11.169   6.730  0.1173 -0.3266 -0.0216
 1192ERGO    R315586  13.795  11.072   6.915 -0.0350 -0.0482 -0.0155
 1192ERGO    R415587  13.990  11.227   7.070  0.2513 -0.3943 -0.0177
 1192ERGO    R515588  13.932  11.020   7.104 -0.1032 -0.3039 -0.0341
 1192ERGO    C115589  13.838  11.171   7.442  0.1864 -0.1723 -0.0098
 1192ERGO    C215590  13.680  11.374   7.702  0.1481 -0.1791  0.1315
 1193ERGO   ROH15591   6.881   4.279   6.739  0.0544 -0.2895  0.1249
 1193ERGO    R115592   6.710   4.238   6.961 -0.0726 -0.1150  0.0604
 1193ERGO    R215593   6.803   4.155   7.207 -0.2468 -0.1825  0.1021
 1193ERGO    R315594   6.673   4.377   7.295 -0.0791 -0.0551  0.0356
 1193ERGO    R415595   6.625   4.176   7.503 -0.0765  0.0956  0.1895
 1193ERGO    R515596   6.474   4.293   7.398 -0.0720  0.1134  0.1976
 1193ERGO    C115597   6.399   4.397   7.757  0.1800  0.3771  0.1780
 1193ERGO    C215598   6.333   4.332   7.931  0.0692 -0.1487  0.1993
 1194ERGO   ROH15599   2.664  16.718   6.287  0.1663  0.1304 -0.0859
 1194ERGO    R115600   2.584  16.821   6.539  0.0828 -0.0123 -0.0523
 1194ERGO    R215601   2.405  16.689   6.703  0.0313 -0.1089 -0.1781
 1194ERGO    R315602   2.604  16.714   6.886 -0.0272 -0.2074 -0.1064
 1194ERGO    R415603   2.383  16.587   7.032 -0.1732 -0.0033 -0.1584
 1194ERGO    R515604   2.490  16.768   7.090 -0.0655 -0.0710 -0.1671
 1194ERGO    C115605   2.557  16.550   7.396 -0.3472 -0.0344 -0.0796
 1194ERGO    C215606   2.596  16.284   7.665  0.0122 -0.0343  0.0560
 1195ERGO   ROH15607   6.254   4.846   9.871 -0.1693  0.0261 -0.2057
 1195ERGO    R115608   6.416   4.765   9.654 -0.1640 -0.0523 -0.1724
 1195ERGO    R215609   6.317   4.623   9.439 -0.1803 -0.0382 -0.1728
 1195ERGO    R315610   6.428   4.825   9.295 -0.0864 -0.0920 -0.1772
 1195ERGO    R415611   6.347   4.627   9.095 -0.1437 -0.0797 -0.1702
 1195ERGO    R515612   6.546   4.714   9.118 -0.1103 -0.1539 -0.1563
 1195ERGO    C115613   6.469   4.819   8.759 -0.0343 -0.1544 -0.1729
 1195ERGO    C215614   6.277   4.875   8.572 -0.1054 -0.1708 -0.0663
 1196ERGO   ROH15615   1.599  11.452   9.733 -0.0249 -0.0752  0.0830
 1196ERGO    R115616   1.769  11.407   9.511  0.1148  0.0333  0.1667
 1196ERGO    R215617   1.676  11.310   9.270  0.3294 -0.2410  0.1906
 1196ERGO    R315618   1.798  11.532   9.171  0.0514 -0.1231  0.1026
 1196ERGO    R415619   1.807  11.338   8.951  0.3131 -0.2133  0.1862
 1196ERGO    R515620   1.976  11.447   9.035  0.1722  0.0437  0.1516
 1196ERGO    C115621   1.997  11.563   8.672  0.0426 -0.0866  0.1011
 1196ERGO    C215622   2.101  11.666   8.312  0.2226  0.0891 -0.2404
 1197ERGO   ROH15623   7.611   0.308   9.558  0.0123 -0.0544 -0.0279
 1197ERGO    R115624   7.485   0.279   9.307 -0.0503  0.1458 -0.0197
 1197ERGO    R215625   7.455   0.490   9.131  0.4019  0.1692 -0.0753
 1197ERGO    R315626   7.578   0.321   8.957  0.0461 -0.1495 -0.0324
 1197ERGO    R415627   7.401   0.484   8.789  0.3382  0.1471 -0.0660
 1197ERGO    R515628   7.408   0.266   8.797 -0.0943  0.1247  0.0141
 1197ERGO    C115629   7.486   0.322   8.428 -0.0329 -0.1650 -0.0206
 1197ERGO    C215630   7.504   0.221   8.189  0.3103  0.1490  0.4047
 1198ERGO   ROH15631   4.627  14.772   9.846 -0.1162  0.1036  0.0007
 1198ERGO    R115632   4.503  14.810   9.595 -0.0259 -0.2568 -0.1037
 1198ERGO    R215633   4.541  15.037   9.442 -0.6277 -0.0809 -0.0181
 1198ERGO    R315634   4.611  14.857   9.250  0.1415  0.1628  0.0016
 1198ERGO    R415635   4.535  15.098   9.102 -0.6068 -0.0616 -0.0153
 1198ERGO    R515636   4.457  14.897   9.072  0.1074 -0.3559 -0.0992
 1198ERGO    C115637   4.598  14.966   8.724  0.1274  0.1786  0.0050
 1198ERGO    C215638   4.674  15.143   8.583 -0.2201 -0.1661  0.0908
 1199ERGO   ROH15639   9.948  16.963   9.789  0.0487 -0.3028  0.1188
 1199ERGO    R115640   9.933  17.068   9.527 -0.4072 -0.2076  0.1745
 1199ERGO    R215641  10.123  17.013   9.334 -0.2722  0.5311  0.0738
 1199ERGO    R315642   9.907  16.934   9.190 -0.0779 -0.1391  0.1171
 1199ERGO    R415643  10.133  16.905   9.006  0.0103  0.4997  0.0897
 1199ERGO    R515644   9.949  17.015   8.969 -0.3429 -0.0381  0.0966
 1199ERGO    C115645   9.935  16.767   8.679  0.3571 -0.1479  0.1397
 1199ERGO    C215646   9.975  16.705   8.469 -0.1122  0.0497  0.2220
 1200ERGO   ROH15647   9.083  17.708  10.041 -0.0881  0.1770 -0.0280
 1200ERGO    R115648   9.024  17.789   9.776 -0.0920  0.0311 -0.0722
 1200ERGO    R215649   9.221  17.861   9.596 -0.1073  0.1063 -0.0558
 1200ERGO    R315650   9.103  17.672   9.441  0.0657 -0.0415 -0.0116
 1200ERGO    R415651   9.241  17.847   9.251 -0.3259  0.2176 -0.0751
 1200ERGO    R515652   9.031  17.791   9.246 -0.2528 -0.1000  0.0629
 1200ERGO    C115653   9.142  17.661   8.905 -0.2909  0.1438 -0.0446
 1200ERGO    C215654   9.080  17.692   8.587 -0.1818  0.0652 -0.0726
 1201ERGO   ROH15655  14.906  14.794   6.676  0.0798 -0.3452  0.0046
 1201ERGO    R115656  14.896  14.822   6.958  0.1677 -0.3675  0.0100
 1201ERGO    R215657  14.668  14.900   7.092  0.3318  0.0800  0.0456
 1201ERGO    R315658  14.711  14.672   7.233 -0.1153 -0.0388  0.0058
 1201ERGO    R415659  14.555  14.842   7.414  0.3718  0.3213  0.1053
 1201ERGO    R515660  14.746  14.746   7.457  0.1851 -0.1269 -0.0079
 1201ERGO    C115661  14.531  14.594   7.733 -0.0247  0.3505  0.1027
 1201ERGO    C215662  14.407  14.689   8.085  0.3613  0.1497 -0.0280
 1202ERGO   ROH15663   9.989  16.670   6.364  0.2442 -0.1746 -0.0762
 1202ERGO    R115664  10.030  16.506   6.591  0.1032 -0.0506  0.0443
 1202ERGO    R215665   9.867  16.516   6.815 -0.0331  0.0843 -0.0473
 1202ERGO    R315666   9.844  16.249   6.769 -0.0192  0.0630  0.0761
 1202ERGO    R415667   9.721  16.289   7.031 -0.1020  0.1783  0.0032
 1202ERGO    R515668   9.879  16.148   6.982 -0.0939  0.1596  0.1266
 1202ERGO    C115669   9.614  15.907   7.113 -0.1289  0.2131  0.1486
 1202ERGO    C215670   9.574  15.635   7.227  0.0266 -0.0803  0.3587
 1203ERGO   ROH15671   0.796   1.444   6.555 -0.1162 -0.0364  0.1089
 1203ERGO    R115672   0.677   1.671   6.675 -0.1471 -0.0234  0.0533
 1203ERGO    R215673   0.614   1.682   6.944 -0.1519  0.0319  0.0485
 1203ERGO    R315674   0.764   1.908   6.937 -0.1822  0.0511 -0.0012
 1203ERGO    R415675   0.648   1.904   7.207  0.0774 -0.0789  0.1147
 1203ERGO    R515676   0.637   2.067   7.063 -0.0809 -0.0167  0.1931
 1203ERGO    C115677   0.810   2.245   7.353  0.1825 -0.1254  0.1067
 1203ERGO    C215678   0.792   2.283   7.722  0.2037 -0.1391  0.1110
 1204ERGO   ROH15679   9.239   6.138  10.098 -0.1317 -0.1321 -0.0539
 1204ERGO    R115680   9.418   6.106   9.881 -0.0356  0.2151 -0.0316
 1204ERGO    R215681   9.385   5.910   9.688  0.4313  0.0670  0.0290
 1204ERGO    R315682   9.398   6.122   9.518 -0.0521  0.0538 -0.0389
 1204ERGO    R415683   9.403   5.889   9.343  0.3387  0.0027  0.0275
 1204ERGO    R515684   9.546   6.051   9.344  0.0250  0.2928 -0.0752
 1204ERGO    C115685   9.426   6.075   8.983 -0.1690 -0.0472 -0.0371
 1204ERGO    C215686   9.521   6.064   8.579 -0.2064  0.0566  0.0180
 1205ERGO   ROH15687   6.581  11.033   5.700 -0.2752  0.1087 -0.2430
 1205ERGO    R115688   6.419  11.202   5.859 -0.3477 -0.0765 -0.1159
 1205ERGO    R215689   6.227  11.104   6.032 -0.0436 -0.3053  0.1061
 1205ERGO    R315690   6.361  11.255   6.214 -0.0566 -0.0814 -0.0658
 1205ERGO    R415691   6.138  11.139   6.364  0.1631 -0.2213  0.1540
 1205ERGO    R515692   6.189  11.350   6.351 -0.0498 -0.1775  0.0080
 1205ERGO    C115693   6.212  11.301   6.728  0.2712  0.0379  0.0206
 1205ERGO    C215694   6.285  11.319   7.063  0.0006  0.0249 -0.5172
 1206ERGO   ROH15695   3.847   2.866   6.389  0.0768 -0.2238  0.0044
 1206ERGO    R115696   3.834   2.652   6.573 -0.0238 -0.2552 -0.0359
 1206ERGO    R215697   3.786   2.690   6.843  0.2170 -0.2625  0.0169
 1206ERGO    R315698   3.585   2.512   6.799 -0.0164 -0.0271  0.1137
 1206ERGO    R415699   3.701   2.432   7.056  0.3083 -0.4358 -0.1562
 1206ERGO    R515700   3.671   2.305   6.882 -0.0784 -0.2060 -0.2623
 1206ERGO    C115701   3.464   2.114   7.139  0.1423 -0.3157 -0.1662
 1206ERGO    C215702   3.305   2.080   7.528  0.1737 -0.0308  0.2475
 1207ERGO   ROH15703   2.292   3.443   6.536  0.1392 -0.1234 -0.0696
 1207ERGO    R115704   2.438   3.568   6.744 -0.0446 -0.0096 -0.0087
 1207ERGO    R215705   2.321   3.743   6.923 -0.2929 -0.2355  0.0460
 1207ERGO    R315706   2.427   3.575   7.107 -0.0825 -0.1623 -0.0042
 1207ERGO    R415707   2.418   3.835   7.242 -0.6356 -0.2356  0.1558
 1207ERGO    R515708   2.592   3.706   7.220 -0.3757  0.0867  0.1643
 1207ERGO    C115709   2.575   3.730   7.600 -0.6376 -0.1670  0.1726
 1207ERGO    C215710   2.469   3.926   7.901 -0.2272  0.0104  0.0121
 1208ERGO   ROH15711  16.437   7.033   9.595  0.0132 -0.1251 -0.0406
 1208ERGO    R115712  16.542   7.104   9.341  0.1076 -0.1847 -0.0179
 1208ERGO    R215713  16.617   6.916   9.154 -0.1827 -0.2282 -0.0897
 1208ERGO    R315714  16.448   7.055   8.993  0.0164  0.0877 -0.0352
 1208ERGO    R415715  16.644   6.936   8.810 -0.2434 -0.2820 -0.0981
 1208ERGO    R515716  16.590   7.147   8.823  0.1445 -0.1704 -0.0778
 1208ERGO    C115717  16.501   7.078   8.459 -0.0918 -0.0169 -0.0519
 1208ERGO    C215718  16.490   7.071   8.208  0.0534  0.0635 -0.0799
 1209ERGO   ROH15719   5.275   8.881   9.753 -0.1272 -0.3380  0.0840
 1209ERGO    R115720   5.170   8.737   9.533 -0.0905 -0.2590  0.0147
 1209ERGO    R215721   5.024   8.857   9.332 -0.1644 -0.2083  0.1006
 1209ERGO    R315722   5.210   8.741   9.172 -0.1342 -0.0392  0.0105
 1209ERGO    R415723   4.996   8.825   8.989 -0.1137  0.1365  0.0607
 1209ERGO    R515724   5.081   8.625   9.006 -0.1065  0.1198 -0.1270
 1209ERGO    C115725   5.155   8.698   8.639 -0.0559  0.4957 -0.0470
 1209ERGO    C215726   5.223   8.675   8.303 -0.5357  0.0645  0.0547
 1210ERGO   ROH15727   8.833   4.849   6.608  0.5588 -0.0096 -0.1677
 1210ERGO    R115728   8.944   4.798   6.863  0.4289 -0.0426 -0.1174
 1210ERGO    R215729   9.126   4.968   6.982  0.1385  0.1007  0.1304
 1210ERGO    R315730   8.948   4.963   7.188 -0.0118 -0.2468  0.0006
 1210ERGO    R415731   9.212   4.950   7.317 -0.0506  0.4071  0.1998
 1210ERGO    R515732   9.045   4.812   7.346  0.2356  0.0190  0.1165
 1210ERGO    C115733   9.095   4.935   7.704 -0.3019  0.2594  0.1183
 1210ERGO    C215734   9.165   4.983   8.006 -0.1139  0.0270 -0.0995
 1211ERGO   ROH15735   0.486   0.599   9.508  0.1880 -0.0091  0.1543
 1211ERGO    R115736   0.416   0.787   9.308  0.1356  0.0590  0.2392
 1211ERGO    R215737   0.601   0.955   9.190  0.1377 -0.0529  0.1041
 1211ERGO    R315738   0.502   0.848   8.960 -0.1315  0.0480  0.1661
 1211ERGO    R415739   0.622   1.103   8.878  0.4904 -0.2551  0.0247
 1211ERGO    R515740   0.418   1.036   8.838  0.3097  0.2037  0.0703
 1211ERGO    C115741   0.541   1.088   8.481  0.4431 -0.2781  0.0367
 1211ERGO    C215742   0.642   1.131   8.203  0.1880 -0.4197 -0.2118
 1212ERGO   ROH15743  15.997   4.591   9.743  0.2372  0.0856 -0.0672
 1212ERGO    R115744  16.066   4.489   9.489  0.2090  0.3253 -0.1753
 1212ERGO    R215745  15.911   4.303   9.357  0.5573 -0.1150  0.0008
 1212ERGO    R315746  15.919   4.486   9.155 -0.2343 -0.0346  0.0139
 1212ERGO    R415747  15.849   4.231   9.025  0.6763 -0.3176  0.0222
 1212ERGO    R515748  16.014   4.365   8.971  0.1587  0.3395 -0.0413
 1212ERGO    C115749  15.820   4.360   8.642  0.0024 -0.3601  0.0470
 1212ERGO    C215750  15.701   4.312   8.270  0.1395  0.0617  0.2039
 1213ERGO   ROH15751   9.794   8.056   9.868 -0.1983 -0.0503  0.0217
 1213ERGO    R115752   9.670   7.904   9.665 -0.4449  0.0446  0.0961
 1213ERGO    R215753   9.486   8.012   9.489 -0.1068  0.3226 -0.1072
 1213ERGO    R315754   9.654   7.911   9.301 -0.2211 -0.2474  0.0782
 1213ERGO    R415755   9.416   7.994   9.151  0.1622  0.4729 -0.1734
 1213ERGO    R515756   9.510   7.797   9.148 -0.4383  0.1628 -0.0338
 1213ERGO    C115757   9.533   7.888   8.778  0.2116  0.0255 -0.0379
 1213ERGO    C215758   9.547   8.034   8.423  0.2010 -0.1814  0.1280
 1214ERGO   ROH15759   5.910  17.237   9.718  0.0651  0.1517  0.0260
 1214ERGO    R115760   5.969  17.331   9.458  0.1098  0.1151  0.0255
 1214ERGO    R215761   6.205  17.271   9.328 -0.0886 -0.3263 -0.1220
 1214ERGO    R315762   6.038  17.184   9.133 -0.3744  0.0785 -0.0718
 1214ERGO    R415763   6.260  17.311   8.989 -0.0661 -0.4480 -0.1348
 1214ERGO    R515764   6.048  17.355   8.965  0.0083  0.0801 -0.0718
 1214ERGO    C115765   6.134  17.252   8.608 -0.3212 -0.1390 -0.0951
 1214ERGO    C215766   6.200  17.368   8.312  0.1733  0.0183  0.1983
 1215ERGO   ROH15767  14.930   7.264   9.542 -0.3020 -0.1914 -0.0143
 1215ERGO    R115768  14.876   7.189   9.274 -0.1567 -0.1532 -0.0561
 1215ERGO    R215769  14.869   7.372   9.067 -0.1079 -0.1119 -0.0269
 1215ERGO    R315770  15.051   7.204   8.955 -0.0087 -0.0417  0.0298
 1215ERGO    R415771  14.870   7.273   8.736 -0.0909 -0.2878  0.0252
 1215ERGO    R515772  14.924   7.072   8.801  0.0618 -0.2134  0.1197
 1215ERGO    C115773  15.042   7.058   8.438  0.0121 -0.3242  0.1087
 1215ERGO    C215774  15.193   7.036   8.085 -0.0047 -0.0347  0.2679
 1216ERGO   ROH15775   4.895  16.435   9.503  0.1822  0.0092  0.0320
 1216ERGO    R115776   4.801  16.387   9.241  0.1065 -0.0023  0.0604
 1216ERGO    R215777   4.740  16.590   9.064  0.1552 -0.0091  0.0316
 1216ERGO    R315778   4.914  16.458   8.902  0.0673 -0.1147  0.0238
 1216ERGO    R415779   4.764  16.634   8.722  0.1951  0.0042  0.0366
 1216ERGO    R515780   4.790  16.419   8.701  0.0464 -0.0106  0.0177
 1216ERGO    C115781   4.941  16.536   8.371  0.1358 -0.0869  0.0322
 1216ERGO    C215782   4.894  16.643   8.053 -0.3363  0.1430  0.3314
 1217ERGO   ROH15783  15.241   3.580   6.479  0.0805 -0.0156  0.0574
 1217ERGO    R115784  15.263   3.474   6.741  0.0888 -0.0444  0.0460
 1217ERGO    R215785  15.503   3.469   6.880  0.0495  0.1568  0.1311
 1217ERGO    R315786  15.358   3.600   7.069 -0.1442 -0.0131  0.1016
 1217ERGO    R415787  15.563   3.456   7.220 -0.0168  0.2199  0.1447
 1217ERGO    R515788  15.348   3.447   7.253 -0.0136 -0.0263  0.0949
 1217ERGO    C115789  15.461   3.571   7.595 -0.2373  0.0973  0.1250
 1217ERGO    C215790  15.708   3.527   7.786 -0.1779 -0.2627  0.1263
 1218ERGO   ROH15791  15.380   6.502   9.735  0.3455 -0.1720  0.0769
 1218ERGO    R115792  15.422   6.498   9.455  0.2085 -0.1060  0.0543
 1218ERGO    R215793  15.652   6.595   9.337  0.1485 -0.0699 -0.0373
 1218ERGO    R315794  15.661   6.348   9.226  0.1029 -0.0446 -0.0974
 1218ERGO    R415795  15.817   6.517   9.044  0.1405 -0.0338 -0.0513
 1218ERGO    R515796  15.649   6.388   8.990  0.1178  0.0131 -0.0872
 1218ERGO    C115797  15.921   6.239   8.768  0.0929  0.0110 -0.1159
 1218ERGO    C215798  16.241   6.183   8.628  0.2109  0.1223  0.1204
 1219ERGO   ROH15799  12.288  14.611   9.777 -0.0462 -0.0171 -0.1052
 1219ERGO    R115800  12.488  14.674   9.587  0.0249 -0.1586 -0.0813
 1219ERGO    R215801  12.553  14.506   9.378 -0.1456 -0.1607 -0.1429
 1219ERGO    R315802  12.503  14.726   9.227  0.0784 -0.0530 -0.0627
 1219ERGO    R415803  12.645  14.544   9.047 -0.2376 -0.1879 -0.1705
 1219ERGO    R515804  12.698  14.751   9.090  0.0508 -0.2696 -0.1379
 1219ERGO    C115805  12.651  14.773   8.712 -0.0808 -0.1027 -0.1114
 1219ERGO    C215806  12.673  14.902   8.365  0.1812  0.4338  0.2454
 1220ERGO   ROH15807   0.356   4.356   9.876  0.0777  0.0163  0.1130
 1220ERGO    R115808   0.442   4.399   9.609  0.0911  0.1781  0.1421
 1220ERGO    R215809   0.590   4.213   9.469  0.1426  0.2845  0.0530
 1220ERGO    R315810   0.391   4.239   9.286  0.1521  0.3404  0.0511
 1220ERGO    R415811   0.614   4.124   9.136  0.0392  0.0321  0.1112
 1220ERGO    R515812   0.503   4.304   9.085  0.1981  0.1007 -0.0035
 1220ERGO    C115813   0.440   4.097   8.770 -0.0120 -0.0623  0.1431
 1220ERGO    C215814   0.415   3.864   8.453 -0.0049  0.0711 -0.0493
 1221ERGO   ROH15815   6.594  16.953   6.092  0.0880 -0.1764  0.0183
 1221ERGO    R115816   6.526  16.906   6.363  0.0561 -0.0363  0.0367
 1221ERGO    R215817   6.493  16.653   6.466 -0.1525  0.0145  0.1209
 1221ERGO    R315818   6.676  16.737   6.648 -0.0719 -0.0744  0.0793
 1221ERGO    R415819   6.470  16.603   6.808 -0.0947  0.0478  0.1285
 1221ERGO    R515820   6.546  16.805   6.837  0.0142  0.0017  0.1038
 1221ERGO    C115821   6.629  16.653   7.177  0.0146 -0.0162  0.0938
 1221ERGO    C215822   6.648  16.286   7.430  0.0188  0.2833 -0.2395
 1222ERGO   ROH15823  17.607  12.781   9.775 -0.0298  0.2206  0.1295
 1222ERGO    R115824  17.724  12.798   9.518 -0.0346  0.0875  0.1180
 1222ERGO    R215825  17.749  12.580   9.351 -0.2576  0.0483  0.1345
 1222ERGO    R315826  17.618  12.740   9.175 -0.1201  0.1596  0.1314
 1222ERGO    R415827  17.756  12.543   9.007 -0.3187  0.0109  0.1368
 1222ERGO    R515828  17.769  12.760   8.989 -0.1135  0.0007  0.1175
 1222ERGO    C115829  17.638  12.673   8.642 -0.2251  0.0934  0.1352
 1222ERGO    C215830  17.530  12.563   8.370 -0.1728 -0.1441 -0.0271
 1223ERGO   ROH15831  17.947  12.854   6.339 -0.0142  0.2148  0.0513
 1223ERGO    R115832  17.846  12.777   6.592 -0.2160 -0.2522 -0.1572
 1223ERGO    R215833  17.802  12.513   6.661  0.6070 -0.4811 -0.3536
 1223ERGO    R315834  17.960  12.576   6.873  0.0244  0.0409 -0.0431
 1223ERGO    R415835  17.839  12.318   6.943  0.8310 -0.4414 -0.3563
 1223ERGO    R515836  17.836  12.500   7.063 -0.0465 -0.4723 -0.2867
 1223ERGO    C115837  18.009  12.263   7.307  0.4145  0.0718 -0.0664
 1223ERGO    C215838  18.064  12.026   7.522  0.0207  0.0586  0.0035
 1224ERGO   ROH15839  12.238  12.301   9.495 -0.0457 -0.0936 -0.0405
 1224ERGO    R115840  12.330  12.441   9.267 -0.2454  0.0226 -0.0514
 1224ERGO    R215841  12.563  12.372   9.134 -0.0928  0.4026  0.0126
 1224ERGO    R315842  12.398  12.362   8.918 -0.0343  0.0639 -0.0225
 1224ERGO    R415843  12.654  12.259   8.820  0.1184  0.2905  0.1116
 1224ERGO    R515844  12.537  12.422   8.733 -0.0539  0.1022 -0.0286
 1224ERGO    C115845  12.552  12.184   8.435  0.2960 -0.0927  0.1363
 1224ERGO    C215846  12.416  12.008   8.144  0.0300 -0.0993 -0.1317
 1225ERGO   ROH15847  10.988  11.525   6.223 -0.1698 -0.1873  0.0583
 1225ERGO    R115848  11.084  11.439   6.475 -0.2446 -0.1080  0.1161
 1225ERGO    R215849  11.349  11.469   6.551 -0.1878 -0.3694  0.0618
 1225ERGO    R315850  11.239  11.595   6.765 -0.0200 -0.0586 -0.0305
 1225ERGO    R415851  11.511  11.532   6.849 -0.1404 -0.4253  0.0468
 1225ERGO    R515852  11.328  11.481   6.954 -0.2303 -0.0708  0.0548
 1225ERGO    C115853  11.502  11.687   7.224  0.0447 -0.1660 -0.0486
 1225ERGO    C215854  11.616  11.713   7.574 -0.2025  0.1013  0.0827
 1226ERGO   ROH15855  17.083   6.028   9.749 -0.4661 -0.0685 -0.2233
 1226ERGO    R115856  17.221   6.152   9.535 -0.2876  0.0218 -0.0590
 1226ERGO    R215857  17.320   6.010   9.320 -0.0165  0.1012  0.0170
 1226ERGO    R315858  17.173   6.188   9.176  0.0725  0.0771 -0.1067
 1226ERGO    R415859  17.359   6.070   8.982  0.4396  0.2812  0.0935
 1226ERGO    R515860  17.329   6.283   9.021  0.2469  0.2513  0.1600
 1226ERGO    C115861  17.243   6.272   8.650  0.7888  0.3634  0.0218
 1226ERGO    C215862  17.239   6.312   8.265  0.4018 -0.0010  0.0435
 1227ERGO   ROH15863   2.228   5.974  10.033 -0.0494  0.2377 -0.0077
 1227ERGO    R115864   2.109   6.090   9.804 -0.0672  0.0950 -0.0683
 1227ERGO    R215865   2.257   6.209   9.603 -0.0947  0.0202 -0.1117
 1227ERGO    R315866   2.120   6.036   9.444 -0.0533 -0.0765 -0.0481
 1227ERGO    R415867   2.259   6.215   9.257 -0.1273 -0.0386 -0.1151
 1227ERGO    R515868   2.045   6.171   9.260 -0.1292 -0.1253 -0.0717
 1227ERGO    C115869   2.132   6.055   8.907 -0.1073 -0.1637 -0.0572
 1227ERGO    C215870   2.218   5.837   8.633  0.1058  0.0517  0.2671
 1228ERGO   ROH15871  16.244  14.950   9.904 -0.0648 -0.0685 -0.0636
 1228ERGO    R115872  16.353  14.872   9.655  0.0813 -0.1383  0.0230
 1228ERGO    R215873  16.274  14.643   9.523 -0.0220 -0.0401 -0.0731
 1228ERGO    R315874  16.229  14.815   9.317  0.3266  0.0278 -0.1002
 1228ERGO    R415875  16.286  14.558   9.188 -0.3468 -0.1749 -0.0553
 1228ERGO    R515876  16.386  14.748   9.149  0.1176 -0.4127 -0.1400
 1228ERGO    C115877  16.251  14.670   8.800 -0.2081 -0.1896 -0.0705
 1228ERGO    C215878  16.259  14.473   8.516  0.2792  0.3295 -0.0280
 1229ERGO   ROH15879   2.773   5.487   6.562  0.2299 -0.1153  0.0677
 1229ERGO    R115880   2.871   5.385   6.807  0.2207 -0.0368  0.1045
 1229ERGO    R215881   2.935   5.548   7.021 -0.0060  0.0159  0.1371
 1229ERGO    R315882   2.764   5.384   7.155  0.0791 -0.1376  0.0606
 1229ERGO    R415883   2.981   5.438   7.345  0.0013 -0.0455  0.1153
 1229ERGO    R515884   2.907   5.242   7.284  0.1469 -0.0767  0.0486
 1229ERGO    C115885   2.847   5.220   7.660  0.0855 -0.2253  0.0308
 1229ERGO    C215886   2.872   5.061   7.986  0.0025 -0.2280 -0.1358
 1230ERGO   ROH15887  10.521  17.261   6.552  0.1150  0.0217 -0.2185
 1230ERGO    R115888  10.628  17.437   6.746  0.1382 -0.0328 -0.1796
 1230ERGO    R215889  10.531  17.450   7.006  0.0594  0.0106 -0.2035
 1230ERGO    R315890  10.791  17.404   7.070  0.0161 -0.1223 -0.1290
 1230ERGO    R415891  10.694  17.583   7.280  0.0577 -0.0826 -0.1588
 1230ERGO    R515892  10.869  17.613   7.155  0.1034 -0.1715 -0.1033
 1230ERGO    C115893  11.032  17.618   7.500  0.0161 -0.2618 -0.0627
 1230ERGO    C215894  11.226  17.745   7.770 -0.2588 -0.2168 -0.2738
 1231ERGO   ROH15895   9.768   0.491   6.510  0.0288 -0.1417 -0.1580
 1231ERGO    R115896   9.815   0.321   6.731  0.0200 -0.0629 -0.0962
 1231ERGO    R215897   9.902   0.415   6.976 -0.0635  0.0324 -0.1074
 1231ERGO    R315898   9.683   0.283   7.068 -0.0495  0.0019 -0.1147
 1231ERGO    R415899   9.835   0.353   7.309 -0.1260  0.1383 -0.0987
 1231ERGO    R515900   9.765   0.154   7.252 -0.0545  0.0932 -0.0445
 1231ERGO    C115901   9.590   0.192   7.589 -0.1492  0.1713 -0.1005
 1231ERGO    C215902   9.338   0.234   7.861 -0.0830  0.1677 -0.1112
 1232ERGO   ROH15903  14.052   7.227   6.499  0.0923  0.2238 -0.1388
 1232ERGO    R115904  14.239   7.241   6.711  0.0771  0.1551 -0.1209
 1232ERGO    R215905  14.293   7.475   6.847  0.0590  0.1089 -0.0336
 1232ERGO    R315906  14.231   7.325   7.065  0.0498  0.0288 -0.0908
 1232ERGO    R415907  14.401   7.540   7.169 -0.1059  0.0978  0.0251
 1232ERGO    R515908  14.431   7.326   7.197 -0.0035  0.1071 -0.0093
 1232ERGO    C115909  14.406   7.438   7.561 -0.2106  0.0162  0.0056
 1232ERGO    C215910  14.377   7.496   7.892  0.0782  0.0403  0.4210
 1233ERGO   ROH15911   1.302   0.599   9.792 -0.0234 -0.1191 -0.0166
 1233ERGO    R115912   1.412   0.606   9.531 -0.0998  0.0202 -0.0445
 1233ERGO    R215913   1.440   0.380   9.375 -0.0387  0.0884 -0.1253
 1233ERGO    R315914   1.299   0.527   9.195 -0.1553  0.0829 -0.0422
 1233ERGO    R415915   1.346   0.269   9.061 -0.4175 -0.0028  0.0128
 1233ERGO    R515916   1.395   0.467   8.983 -0.3987 -0.0549 -0.1205
 1233ERGO    C115917   1.160   0.343   8.709 -0.7475 -0.0610  0.1713
 1233ERGO    C215918   1.084   0.263   8.449  0.1030 -0.0359  0.3121
 1234ERGO   ROH15919   7.514   2.817   9.927 -0.1194  0.0183  0.0806
 1234ERGO    R115920   7.380   2.827   9.677 -0.1125  0.2327  0.0832
 1234ERGO    R215921   7.422   3.030   9.494  0.1827  0.1916  0.0961
 1234ERGO    R315922   7.476   2.824   9.326 -0.1206  0.1191  0.0824
 1234ERGO    R415923   7.444   3.057   9.151 -0.0020  0.1284  0.0787
 1234ERGO    R515924   7.339   2.866   9.134 -0.1971  0.2288  0.1623
 1234ERGO    C115925   7.508   2.878   8.792 -0.3943  0.0236  0.0555
 1234ERGO    C215926   7.601   2.992   8.550 -0.2736 -0.3187 -0.0059
 1235ERGO   ROH15927   3.944   9.224  10.052 -0.2037 -0.0449  0.0688
 1235ERGO    R115928   3.722   9.144   9.897 -0.1172 -0.3253  0.0847
 1235ERGO    R215929   3.622   9.297   9.689 -0.5777 -0.2413  0.3537
 1235ERGO    R315930   3.658   9.069   9.546 -0.1363  0.0263  0.0100
 1235ERGO    R415931   3.556   9.264   9.352 -0.4892  0.1299  0.2947
 1235ERGO    R515932   3.474   9.066   9.393 -0.1224 -0.0943 -0.0020
 1235ERGO    C115933   3.552   9.030   9.021 -0.0231  0.5971 -0.0623
 1235ERGO    C215934   3.701   8.931   8.728 -0.0683  0.0588 -0.0977
 1236ERGO   ROH15935   6.939  13.684   5.895 -0.0982  0.0588  0.0088
 1236ERGO    R115936   6.908  13.865   6.110 -0.1773 -0.0619  0.0983
 1236ERGO    R215937   6.895  13.782   6.374  0.2551 -0.1742  0.0832
 1236ERGO    R315938   7.099  13.959   6.405 -0.0114  0.1768 -0.0779
 1236ERGO    R415939   6.976  13.939   6.670  0.5032 -0.4323  0.1582
 1236ERGO    R515940   7.013  14.122   6.558 -0.0583 -0.1876  0.3159
 1236ERGO    C115941   7.215  14.197   6.873  0.3975 -0.2530  0.0507
 1236ERGO    C215942   7.294  14.190   7.183 -0.0413  0.1008 -0.0982
 1237ERGO   ROH15943   9.849   9.174   6.522 -0.0865 -0.0588  0.0390
 1237ERGO    R115944   9.731   9.064   6.754 -0.2678  0.0611  0.0059
 1237ERGO    R215945   9.872   9.026   6.989 -0.3020 -0.3111 -0.0265
 1237ERGO    R315946   9.670   9.173   7.096 -0.0149  0.0345  0.0611
 1237ERGO    R415947   9.814   9.065   7.327 -0.0781 -0.1788 -0.0010
 1237ERGO    R515948   9.601   9.047   7.288 -0.1304  0.1667  0.1056
 1237ERGO    C115949   9.590   9.225   7.625  0.3217  0.2226  0.0959
 1237ERGO    C215950   9.656   9.469   7.884  0.0433 -0.0904 -0.1262
 1238ERGO   ROH15951  14.319  10.520   9.829  0.0133  0.1462 -0.0156
 1238ERGO    R115952  14.324  10.389   9.578  0.2845  0.0448  0.0403
 1238ERGO    R215953  14.197  10.490   9.354  0.1044 -0.2893 -0.0123
 1238ERGO    R315954  14.444  10.464   9.243  0.1716  0.1328  0.0181
 1238ERGO    R415955  14.268  10.537   9.020  0.0027 -0.4242 -0.0543
 1238ERGO    R515956  14.402  10.365   9.029  0.3738 -0.1466  0.0988
 1238ERGO    C115957  14.541  10.540   8.720  0.0065 -0.1066 -0.0502
 1238ERGO    C215958  14.694  10.728   8.380  0.0292 -0.2242 -0.0390
 1239ERGO   ROH15959   9.973   0.149   9.851 -0.2060 -0.0701  0.0075
 1239ERGO    R115960   9.996   0.229   9.580  0.0394 -0.1160  0.0119
 1239ERGO    R215961  10.149   0.089   9.396 -0.1995 -0.4509  0.0531
 1239ERGO    R315962   9.917   0.086   9.255 -0.1814  0.0450 -0.0065
 1239ERGO    R415963  10.125   0.072   9.052 -0.1484 -0.5810  0.0562
 1239ERGO    R515964   9.963   0.215   9.060  0.1938 -0.1679 -0.0666
 1239ERGO    C115965   9.894   0.058   8.719 -0.1014 -0.1913  0.0021
 1239ERGO    C215966   9.696  -0.077   8.509  0.1304  0.1204  0.3499
 1240ERGO   ROH15967  11.500   7.986   6.339  0.0107 -0.2969  0.1934
 1240ERGO    R115968  11.509   7.979   6.622  0.1263 -0.1735  0.1942
 1240ERGO    R215969  11.739   7.918   6.763  0.2734  0.2214  0.1371
 1240ERGO    R315970  11.688   8.155   6.886 -0.0323  0.1987  0.0606
 1240ERGO    R415971  11.778   7.977   7.101  0.2196  0.3823  0.1156
 1240ERGO    R515972  11.593   8.092   7.097  0.0620  0.1399  0.0872
 1240ERGO    C115973  11.753   8.233   7.413 -0.0987  0.4546  0.0312
 1240ERGO    C215974  11.981   8.341   7.570  0.0098 -0.0985  0.3845
 1241ERGO   ROH15975  14.660   3.822   9.695 -0.2167  0.2818  0.0328
 1241ERGO    R115976  14.709   3.910   9.431 -0.0850  0.1376  0.0085
 1241ERGO    R215977  14.878   3.776   9.258 -0.0365  0.0193  0.1526
 1241ERGO    R315978  14.661   3.778   9.095  0.0380 -0.0225  0.0512
 1241ERGO    R415979  14.860   3.615   8.953  0.1567  0.0397  0.1290
 1241ERGO    R515980  14.754   3.788   8.874  0.1453  0.0230  0.0939
 1241ERGO    C115981  14.646   3.522   8.622  0.3392  0.0124  0.0201
 1241ERGO    C215982  14.687   3.352   8.310 -0.1005  0.0520  0.0901
 1242ERGO   ROH15983   3.294   0.492   9.486 -0.0564 -0.0968 -0.0119
 1242ERGO    R115984   3.398   0.561   9.232  0.0374 -0.0783  0.0314
 1242ERGO    R215985   3.533   0.381   9.073 -0.0100 -0.1001  0.0173
 1242ERGO    R315986   3.348   0.454   8.888  0.0693  0.0370 -0.0095
 1242ERGO    R415987   3.533   0.276   8.744 -0.0705 -0.1442  0.0309
 1242ERGO    R515988   3.475   0.478   8.685  0.1105 -0.0992 -0.0015
 1242ERGO    C115989   3.359   0.284   8.378 -0.0313 -0.0411  0.0135
 1242ERGO    C215990   3.349   0.081   8.049 -0.1116  0.1218 -0.3880
 1243ERGO   ROH15991   3.915  13.780   6.224  0.0720 -0.0614 -0.2563
 1243ERGO    R115992   4.059  13.713   6.458  0.0410 -0.0337 -0.2293
 1243ERGO    R215993   4.029  13.852   6.695  0.0026 -0.0112 -0.2467
 1243ERGO    R315994   3.978  13.604   6.796 -0.0037 -0.0032 -0.2303
 1243ERGO    R415995   3.992  13.778   7.031 -0.1418  0.0354 -0.2516
 1243ERGO    R515996   4.105  13.595   6.999 -0.0968  0.0491 -0.1696
 1243ERGO    C115997   3.923  13.503   7.321 -0.2317  0.0700 -0.2391
 1243ERGO    C215998   3.808  13.315   7.642  0.3078 -0.1562 -0.2284
 1244ERGO   ROH15999   9.588  13.962   6.022 -0.0130 -0.2497 -0.0196
 1244ERGO    R116000   9.590  14.047   6.292  0.0230 -0.0968 -0.0668
 1244ERGO    R216001   9.481  13.897   6.496  0.0223  0.0315  0.0304
 1244ERGO    R316002   9.728  13.927   6.607  0.0370  0.0627 -0.0112
 1244ERGO    R416003   9.588  13.743   6.787  0.1622 -0.1169 -0.0975
 1244ERGO    R516004   9.688  13.928   6.843  0.0962 -0.1118  0.0006
 1244ERGO    C116005   9.881  13.681   7.060  0.2574 -0.1741 -0.2110
 1244ERGO    C216006  10.238  13.437   7.207  0.3508  0.1758 -0.0554
 1245ERGO   ROH16007  13.441   9.565   6.364 -0.0279  0.0659 -0.1693
 1245ERGO    R116008  13.597   9.459   6.575 -0.3322 -0.1190 -0.0296
 1245ERGO    R216009  13.782   9.609   6.714  0.2343 -0.4885 -0.3392
 1245ERGO    R316010  13.641   9.524   6.931 -0.0344  0.3525 -0.1457
 1245ERGO    R416011  13.910   9.583   7.034  0.2428 -0.4563 -0.3403
 1245ERGO    R516012  13.800   9.396   7.057 -0.4485 -0.0451 -0.0051
 1245ERGO    C116013  13.853   9.488   7.423 -0.0045  0.3520 -0.1594
 1245ERGO    C216014  14.064   9.604   7.690 -0.1130 -0.0418 -0.5861
 1246ERGO   ROH16015   2.569   2.195   6.439  0.1367 -0.1388  0.0538
 1246ERGO    R116016   2.388   2.286   6.637  0.1791  0.0316  0.0164
 1246ERGO    R216017   2.238   2.114   6.793 -0.0800  0.1693 -0.0686
 1246ERGO    R316018   2.352   2.252   6.997  0.0248 -0.0107 -0.0033
 1246ERGO    R416019   2.099   2.153   7.106 -0.0340  0.1094 -0.0410
 1246ERGO    R516020   2.168   2.359   7.106  0.1065  0.0611  0.0605
 1246ERGO    C116021   2.124   2.306   7.481  0.0912 -0.0945  0.0363
 1246ERGO    C216022   1.995   2.210   7.801 -0.0524  0.0335  0.0558
 1247ERGO   ROH16023   0.401  17.341   9.920 -0.1788  0.3280  0.0485
 1247ERGO    R116024   0.359  17.483   9.678 -0.1728  0.2282 -0.0119
 1247ERGO    R216025   0.546  17.490   9.475 -0.0728  0.3269  0.0808
 1247ERGO    R316026   0.338  17.401   9.324  0.0751  0.1131 -0.0012
 1247ERGO    R416027   0.542  17.481   9.130  0.0872  0.2790  0.0797
 1247ERGO    R516028   0.335  17.548   9.135  0.0211  0.0865 -0.0201
 1247ERGO    C116029   0.345  17.392   8.787  0.3191  0.0508  0.0021
 1247ERGO    C216030   0.327  17.471   8.509 -0.1830  0.5714  0.1660
 1248ERGO   ROH16031  10.549  16.224   9.976  0.0872 -0.3073  0.1481
 1248ERGO    R116032  10.448  16.171   9.717  0.0795 -0.1944  0.1283
 1248ERGO    R216033  10.589  16.234   9.487  0.0602 -0.0703  0.1529
 1248ERGO    R316034  10.550  15.972   9.430  0.0845 -0.0477  0.0263
 1248ERGO    R416035  10.651  16.088   9.180  0.3258  0.0299  0.1553
 1248ERGO    R516036  10.468  15.972   9.204  0.2886  0.0389 -0.0514
 1248ERGO    C116037  10.650  15.756   8.947  0.5032  0.1095  0.0378
 1248ERGO    C216038  10.814  15.591   8.601 -0.2591 -0.2055  0.0155
 1249ERGO   ROH16039  14.877   9.689   6.869 -0.1574 -0.3596 -0.0277
 1249ERGO    R116040  14.864   9.558   7.119  0.0473 -0.2699  0.0320
 1249ERGO    R216041  15.090   9.469   7.252  0.1871  0.1014  0.0548
 1249ERGO    R316042  14.989   9.618   7.456 -0.0051  0.0530 -0.0033
 1249ERGO    R416043  15.249   9.528   7.553 -0.0323  0.1504  0.1635
 1249ERGO    R516044  15.058   9.504   7.654 -0.0901  0.0711  0.0371
 1249ERGO    C116045  15.247   9.701   7.920 -0.3404  0.1334  0.1722
 1249ERGO    C216046  15.131   9.801   8.353 -0.4447 -0.0347 -0.3044
 1250ERGO   ROH16047   1.135  18.286   6.300 -0.1327 -0.0189  0.0039
 1250ERGO    R116048   1.229  18.302   6.566  0.0704 -0.2015 -0.0537
 1250ERGO    R216049   1.061  18.345   6.781  0.2797  0.1119  0.0565
 1250ERGO    R316050   1.178  18.119   6.876 -0.0807 -0.1190 -0.0290
 1250ERGO    R416051   1.073  18.254   7.114  0.4709  0.1674  0.0655
 1250ERGO    R516052   1.278  18.186   7.083  0.3032 -0.2734 -0.1559
 1250ERGO    C116053   1.190  17.990   7.398  0.2438 -0.0171 -0.0096
 1250ERGO    C216054   1.228  17.839   7.746 -0.0726 -0.2954  0.0128
 1251ERGO   ROH16055   2.662   4.391   9.860  0.0179  0.0143 -0.0768
 1251ERGO    R116056   2.618   4.497   9.601  0.0097  0.0712 -0.0528
 1251ERGO    R216057   2.825   4.549   9.425  0.0019  0.0832 -0.0589
 1251ERGO    R316058   2.680   4.390   9.259 -0.0287  0.1331 -0.0792
 1251ERGO    R416059   2.864   4.536   9.082  0.1197 -0.0019 -0.0424
 1251ERGO    R516060   2.647   4.525   9.063  0.1180  0.1171 -0.1171
 1251ERGO    C116061   2.751   4.380   8.726  0.1595 -0.0046 -0.0519
 1251ERGO    C216062   2.604   4.302   8.457 -0.0711  0.0494  0.0278
 1252ERGO   ROH16063  16.127  16.963   6.846  0.2844 -0.1416 -0.1380
 1252ERGO    R116064  16.236  16.760   7.010  0.3789  0.0415  0.0279
 1252ERGO    R216065  16.349  16.813   7.256 -0.1066  0.2387  0.2173
 1252ERGO    R316066  16.171  16.626   7.342  0.0738 -0.0809 -0.0762
 1252ERGO    R416067  16.413  16.577   7.501 -0.0883  0.3702  0.3423
 1252ERGO    R516068  16.305  16.431   7.381  0.3719  0.1560  0.1575
 1252ERGO    C116069  16.284  16.264   7.723  0.0918  0.1467  0.1396
 1252ERGO    C216070  16.319  16.120   8.039  0.3398 -0.0414  0.2080
 1253ERGO   ROH16071   0.609   8.111  10.179 -0.1293 -0.1230  0.1355
 1253ERGO    R116072   0.546   8.102   9.903  0.1089 -0.0414  0.0770
 1253ERGO    R216073   0.705   8.219   9.710  0.4059 -0.2004  0.2295
 1253ERGO    R316074   0.699   7.970   9.601  0.2415 -0.1886  0.2041
 1253ERGO    R416075   0.682   8.152   9.371  0.2429 -0.1395  0.2265
 1253ERGO    R516076   0.545   7.988   9.418  0.1742 -0.0839  0.2625
 1253ERGO    C116077   0.663   7.879   9.072 -0.0064 -0.0930  0.2011
 1253ERGO    C216078   0.831   7.813   8.698  0.1624  0.0357 -0.0427
 1254ERGO   ROH16079  17.993  11.821  10.152 -0.0623 -0.3978  0.1420
 1254ERGO    R116080  18.022  11.766   9.876 -0.0759 -0.2724  0.1152
 1254ERGO    R216081  18.008  11.510   9.773 -0.1260 -0.2190 -0.0053
 1254ERGO    R316082  17.818  11.620   9.612 -0.1058 -0.1086  0.0451
 1254ERGO    R416083  17.954  11.424   9.443  0.0140  0.0974 -0.1147
 1254ERGO    R516084  17.923  11.635   9.398 -0.0329  0.1411  0.0907
 1254ERGO    C116085  17.745  11.477   9.099  0.1144  0.3852 -0.1310
 1254ERGO    C216086  17.657  11.298   8.903 -0.1877 -0.0469  0.0175
 1255ERGO   ROH16087  15.865  11.496   6.327 -0.1013  0.1772 -0.0231
 1255ERGO    R116088  15.796  11.611   6.576 -0.1832  0.1389 -0.0266
 1255ERGO    R216089  15.575  11.532   6.721 -0.0917 -0.0634  0.0131
 1255ERGO    R316090  15.758  11.497   6.920 -0.0264  0.1354 -0.0106
 1255ERGO    R416091  15.510  11.573   7.058 -0.0827 -0.1227  0.0215
 1255ERGO    R516092  15.705  11.668   7.079 -0.1820  0.0833 -0.0085
 1255ERGO    C116093  15.644  11.563   7.441 -0.0162  0.0294  0.0042
 1255ERGO    C216094  15.624  11.423   7.832  0.1196  0.2109  0.3610
 1256ERGO   ROH16095   8.684   3.152   6.634 -0.0405  0.0382  0.0425
 1256ERGO    R116096   8.777   2.974   6.833 -0.0282 -0.0769 -0.0628
 1256ERGO    R216097   8.847   3.058   7.088  0.1242 -0.1987 -0.0548
 1256ERGO    R316098   8.668   2.869   7.164  0.0696 -0.1455 -0.0548
 1256ERGO    R416099   8.810   2.938   7.410 -0.0097 -0.1104 -0.0375
 1256ERGO    R516100   8.784   2.739   7.328 -0.0166 -0.1207  0.0161
 1256ERGO    C116101   8.620   2.690   7.668 -0.1390 -0.0090 -0.0274
 1256ERGO    C216102   8.430   2.628   7.935  0.1211  0.4725  0.0933
 1257ERGO   ROH16103   7.964  10.987   6.373  0.1552  0.0245 -0.0507
 1257ERGO    R116104   7.824  11.041   6.613  0.0602  0.0875 -0.1190
 1257ERGO    R216105   7.556  10.983   6.645  0.0475  0.0803 -0.2031
 1257ERGO    R316106   7.644  10.847   6.863 -0.0220  0.1490 -0.1322
 1257ERGO    R416107   7.408  10.994   6.957 -0.1011  0.0934 -0.2731
 1257ERGO    R516108   7.607  10.998   7.046 -0.1509  0.1670 -0.1778
 1257ERGO    C116109   7.405  10.874   7.344 -0.2530  0.1656 -0.2473
 1257ERGO    C216110   7.152  10.665   7.564 -0.0310 -0.1581  0.2083
 1258ERGO   ROH16111  12.415  11.482   6.187  0.3579 -0.0436 -0.0182
 1258ERGO    R116112  12.454  11.465   6.467  0.1728 -0.0636  0.0068
 1258ERGO    R216113  12.639  11.619   6.602  0.1716 -0.1644  0.1220
 1258ERGO    R316114  12.424  11.689   6.752  0.1148 -0.0471 -0.0113
 1258ERGO    R416115  12.652  11.820   6.883  0.1331 -0.2901  0.2147
 1258ERGO    R516116  12.506  11.688   6.977 -0.0514 -0.2101  0.0524
 1258ERGO    C116117  12.457  12.003   7.188  0.0572 -0.2532  0.1435
 1258ERGO    C216118  12.454  12.077   7.568 -0.2344  0.1863 -0.0329
 1259ERGO   ROH16119  10.671  10.753   9.886 -0.0539  0.0800 -0.0479
 1259ERGO    R116120  10.750  10.799   9.618 -0.0618  0.2896 -0.0152
 1259ERGO    R216121  10.684  10.628   9.412  0.3784  0.1648 -0.0602
 1259ERGO    R316122  10.584  10.854   9.299 -0.0820 -0.0288 -0.0628
 1259ERGO    R416123  10.677  10.693   9.073  0.4483  0.2365 -0.0485
 1259ERGO    R516124  10.732  10.899   9.116 -0.0594  0.3644  0.0440
 1259ERGO    C116125  10.579  10.943   8.769  0.0569  0.0965 -0.0442
 1259ERGO    C216126  10.324  11.049   8.575 -0.4454  0.4032  0.2958
 1260ERGO   ROH16127   3.565   6.782   6.557 -0.2186 -0.1545  0.0262
 1260ERGO    R116128   3.695   6.872   6.791 -0.0574 -0.1039 -0.0808
 1260ERGO    R216129   3.582   6.849   7.043  0.0481  0.0876 -0.0133
 1260ERGO    R316130   3.815   6.722   7.101  0.0069 -0.0106 -0.0604
 1260ERGO    R416131   3.670   6.731   7.355  0.1078  0.1477 -0.0075
 1260ERGO    R516132   3.873   6.802   7.319  0.1301  0.0336 -0.1087
 1260ERGO    C116133   3.941   6.544   7.592  0.1038  0.0906 -0.0484
 1260ERGO    C216134   3.916   6.181   7.719  0.0088  0.2668  0.1608
 1261ERGO   ROH16135   1.960  10.021   6.754 -0.1717  0.0266  0.2529
 1261ERGO    R116136   2.176  10.072   6.930 -0.1573 -0.0708  0.2648
 1261ERGO    R216137   2.387  10.236   6.863 -0.0100 -0.2680  0.2272
 1261ERGO    R316138   2.320  10.363   7.094  0.0514 -0.1150  0.1598
 1261ERGO    R416139   2.609  10.407   7.066  0.0492 -0.1740  0.0840
 1261ERGO    R516140   2.506  10.324   7.240  0.0688 -0.0500  0.1515
 1261ERGO    C116141   2.674  10.625   7.402  0.1415  0.0245 -0.0625
 1261ERGO    C216142   2.730  11.041   7.450  0.0739  0.0572  0.2578
 1262ERGO   ROH16143  18.234   1.243   9.899 -0.0276 -0.0467 -0.0320
 1262ERGO    R116144  18.085   1.295   9.664  0.0463  0.1435 -0.0403
 1262ERGO    R216145  18.087   1.540   9.537  0.3109  0.1673 -0.0053
 1262ERGO    R316146  18.157   1.391   9.321  0.1833  0.1237 -0.0164
 1262ERGO    R416147  18.053   1.641   9.208  0.0859  0.0781 -0.0107
 1262ERGO    R516148  17.988   1.440   9.158  0.0749  0.0633  0.0816
 1262ERGO    C116149  18.099   1.560   8.814 -0.1647 -0.0147 -0.0243
 1262ERGO    C216150  18.025   1.597   8.522 -0.0760  0.2407 -0.2198
 1263ERGO   ROH16151   4.780   9.702   9.847  0.0686 -0.2505  0.1331
 1263ERGO    R116152   4.661   9.618   9.605 -0.1320 -0.1201  0.1842
 1263ERGO    R216153   4.418   9.717   9.517  0.0215  0.2899  0.1988
 1263ERGO    R316154   4.560   9.774   9.292  0.0871 -0.0402  0.1523
 1263ERGO    R416155   4.303   9.674   9.194 -0.0139  0.1320  0.2324
 1263ERGO    R516156   4.501   9.601   9.138 -0.0830 -0.1133  0.2967
 1263ERGO    C116157   4.370   9.702   8.795  0.0271 -0.2698  0.2082
 1263ERGO    C216158   4.274   9.600   8.435  0.1361 -0.1261  0.2069
 1264ERGO   ROH16159  10.624  14.968   6.368 -0.3273 -0.3573  0.0186
 1264ERGO    R116160  10.821  14.903   6.561 -0.2537 -0.2110 -0.0047
 1264ERGO    R216161  10.969  15.096   6.693 -0.0864 -0.1079 -0.3184
 1264ERGO    R316162  10.877  14.968   6.914 -0.0374  0.2076 -0.1113
 1264ERGO    R416163  11.129  15.091   6.999  0.2847 -0.1748 -0.5078
 1264ERGO    R516164  11.073  14.882   7.020 -0.0594 -0.0639 -0.2967
 1264ERGO    C116165  11.135  14.969   7.386  0.5470  0.0826 -0.4237
 1264ERGO    C216166  11.000  14.786   7.696  0.1567 -0.1495  0.0562
 1265ERGO   ROH16167   8.863  13.228   6.043 -0.0853  0.0242 -0.0486
 1265ERGO    R116168   8.729  13.298   6.282  0.0204 -0.0864  0.0443
 1265ERGO    R216169   8.796  13.188   6.527  0.2296 -0.0886 -0.0109
 1265ERGO    R316170   8.819  13.449   6.601  0.1311 -0.0865  0.0134
 1265ERGO    R416171   8.741  13.308   6.846  0.1002 -0.1254 -0.0188
 1265ERGO    R516172   8.642  13.482   6.759  0.0748 -0.1491 -0.0365
 1265ERGO    C116173   8.731  13.623   7.102 -0.0677 -0.1448 -0.0007
 1265ERGO    C216174   8.897  13.678   7.440 -0.0891 -0.0246 -0.1698
 1266ERGO   ROH16175   8.780   6.018   9.937 -0.1277  0.0997  0.0615
 1266ERGO    R116176   8.949   6.065   9.715 -0.0707 -0.2341  0.0275
 1266ERGO    R216177   8.954   5.898   9.494 -0.5880 -0.1580 -0.0670
 1266ERGO    R316178   8.905   6.128   9.359 -0.0381  0.0555  0.0754
 1266ERGO    R416179   8.996   5.940   9.154 -0.3558  0.0191 -0.0170
 1266ERGO    R516180   9.078   6.138   9.193  0.0518 -0.1828  0.1606
 1266ERGO    C116181   8.975   6.182   8.829  0.2958  0.3228  0.1458
 1266ERGO    C216182   8.883   6.207   8.502 -0.1000  0.2420 -0.0545
 1267ERGO   ROH16183  12.101   2.460   9.640 -0.1976 -0.0028 -0.0957
 1267ERGO    R116184  12.077   2.266   9.435 -0.1201 -0.0409 -0.0698
 1267ERGO    R216185  11.911   2.300   9.217 -0.1257 -0.1313 -0.0829
 1267ERGO    R316186  12.139   2.250   9.077 -0.1009 -0.0674 -0.0646
 1267ERGO    R416187  11.927   2.256   8.875 -0.0659 -0.0236 -0.0939
 1267ERGO    R516188  12.072   2.096   8.907 -0.0585 -0.0188 -0.1228
 1267ERGO    C116189  12.150   2.184   8.544 -0.0079  0.0992 -0.0832
 1267ERGO    C216190  12.131   2.387   8.230  0.0262 -0.0855  0.0959
 1268ERGO   ROH16191   6.314  11.260   7.716  0.1831  0.0529  0.3370
 1268ERGO    R116192   6.544  11.325   7.566  0.1222 -0.0296  0.2069
 1268ERGO    R216193   6.577  11.570   7.442  0.0517 -0.1141  0.0194
 1268ERGO    R316194   6.810  11.573   7.582  0.1031  0.0124 -0.0667
 1268ERGO    R416195   6.836  11.792   7.388 -0.0310 -0.0610 -0.1687
 1268ERGO    R516196   6.977  11.627   7.419  0.0281 -0.0078 -0.1508
 1268ERGO    C116197   7.206  11.925   7.488 -0.0310  0.0885 -0.3590
 1268ERGO    C216198   7.311  12.239   7.405  0.4424  0.1450  0.0557
 1269ERGO   ROH16199  14.528  15.427  10.437  0.0131  0.0634  0.1121
 1269ERGO    R116200  14.417  15.567  10.217 -0.0323 -0.0965  0.0309
 1269ERGO    R216201  14.570  15.722  10.047 -0.1044 -0.0202  0.0350
 1269ERGO    R316202  14.456  15.566   9.855  0.0896 -0.1756  0.0437
 1269ERGO    R416203  14.602  15.773   9.707 -0.4765  0.2429  0.0336
 1269ERGO    R516204  14.391  15.721   9.684 -0.3898 -0.2159  0.1733
 1269ERGO    C116205  14.514  15.657   9.329 -0.5111  0.2500  0.0410
 1269ERGO    C216206  14.597  15.513   9.122  0.1455 -0.3626  0.0686
 1270ERGO   ROH16207   1.595   5.559   6.514  0.1830 -0.0274 -0.0027
 1270ERGO    R116208   1.698   5.466   6.760  0.1611  0.0842  0.0495
 1270ERGO    R216209   1.721   5.628   6.983 -0.0745  0.1257  0.0474
 1270ERGO    R316210   1.577   5.430   7.102  0.0459  0.0087  0.0008
 1270ERGO    R416211   1.624   5.626   7.315 -0.1145  0.0081  0.0352
 1270ERGO    R516212   1.669   5.413   7.322  0.0303  0.0384  0.0086
 1270ERGO    C116213   1.432   5.439   7.619 -0.0247 -0.1703 -0.0156
 1270ERGO    C216214   1.379   5.498   7.906  0.0886  0.0871 -0.3704
 1271ERGO   ROH16215   9.043  11.188   6.123  0.2199 -0.2929 -0.1593
 1271ERGO    R116216   8.986  11.133   6.395  0.1103 -0.1873 -0.1588
 1271ERGO    R216217   9.146  10.971   6.552  0.0329 -0.1574 -0.0352
 1271ERGO    R316218   9.148  11.187   6.716  0.0013 -0.0938 -0.1206
 1271ERGO    R416219   9.267  10.972   6.876  0.0419 -0.0003 -0.0400
 1271ERGO    R516220   9.099  11.099   6.933  0.0268 -0.0104 -0.0853
 1271ERGO    C116221   9.339  11.177   7.218  0.0174  0.1508 -0.1229
 1271ERGO    C216222   9.555  11.232   7.442 -0.3348  0.2955 -0.0411
 1272ERGO   ROH16223  10.430  12.112   9.553 -0.0577  0.1811  0.0460
 1272ERGO    R116224  10.309  12.078   9.299  0.0062  0.1207  0.0230
 1272ERGO    R216225  10.373  12.237   9.081  0.0075  0.1175  0.0195
 1272ERGO    R316226  10.421  11.998   8.962  0.1024  0.1186  0.0554
 1272ERGO    R416227  10.390  12.186   8.740 -0.0611  0.0542  0.0255
 1272ERGO    R516228  10.282  11.999   8.767  0.0474  0.0024  0.0944
 1272ERGO    C116229  10.445  11.932   8.429 -0.0120  0.0185  0.0627
 1272ERGO    C216230  10.594  12.003   8.078  0.1551  0.1726 -0.1885
 1273ERGO   ROH16231  11.534   5.219  10.093  0.1555 -0.1187 -0.1289
 1273ERGO    R116232  11.407   5.371   9.891  0.0661 -0.1164 -0.0716
 1273ERGO    R216233  11.545   5.481   9.679 -0.0226 -0.0854 -0.1154
 1273ERGO    R316234  11.360   5.347   9.531 -0.0620 -0.0943 -0.0566
 1273ERGO    R416235  11.489   5.528   9.341 -0.1591 -0.0623 -0.0902
 1273ERGO    R516236  11.276   5.510   9.378 -0.1414 -0.0922 -0.0095
 1273ERGO    C116237  11.284   5.429   9.006 -0.2757 -0.0572 -0.0202
 1273ERGO    C216238  11.277   5.385   8.693  0.1947 -0.2549 -0.0742
 1274ERGO   ROH16239  14.188  12.721   6.351  0.0134  0.2800  0.0340
 1274ERGO    R116240  14.306  12.657   6.600 -0.0353  0.0191 -0.0062
 1274ERGO    R216241  14.335  12.843   6.802  0.2102 -0.1092  0.0802
 1274ERGO    R316242  14.202  12.657   6.949 -0.0004 -0.0208  0.0043
 1274ERGO    R416243  14.342  12.821   7.147  0.2073 -0.2685  0.0706
 1274ERGO    R516244  14.351  12.605   7.129 -0.0477 -0.2755 -0.0266
 1274ERGO    C116245  14.220  12.634   7.486  0.0080 -0.2783 -0.0063
 1274ERGO    C216246  14.098  12.626   7.854 -0.0565 -0.1895  0.0778
 1275ERGO   ROH16247   4.519  16.443   6.126 -0.1780  0.0510 -0.0498
 1275ERGO    R116248   4.507  16.549   6.388 -0.0189  0.0587 -0.0448
 1275ERGO    R216249   4.414  16.403   6.604 -0.1419  0.1550 -0.0321
 1275ERGO    R316250   4.654  16.472   6.711 -0.0497 -0.1086 -0.0706
 1275ERGO    R416251   4.479  16.426   6.942 -0.0578  0.0642 -0.0418
 1275ERGO    R516252   4.598  16.605   6.902  0.1263 -0.0603 -0.0515
 1275ERGO    C116253   4.742  16.504   7.241  0.0778 -0.2364 -0.0836
 1275ERGO    C216254   4.854  16.371   7.590  0.0964  0.2324 -0.2279
 1276ERGO   ROH16255   7.829  16.441   6.415  0.1336  0.0487 -0.0181
 1276ERGO    R116256   7.871  16.465   6.694  0.2609  0.0426 -0.0353
 1276ERGO    R216257   8.019  16.669   6.806  0.0847  0.2011 -0.0783
 1276ERGO    R316258   7.794  16.709   6.954  0.1134 -0.0950  0.0513
 1276ERGO    R416259   8.008  16.846   7.103 -0.0165  0.3693 -0.1810
 1276ERGO    R516260   7.870  16.695   7.181  0.2956  0.1769  0.0091
 1276ERGO    C116261   7.790  16.986   7.414 -0.0483  0.1893 -0.1192
 1276ERGO    C216262   7.725  17.234   7.751  0.0046  0.0401 -0.1719
 1277ERGO   ROH16263   6.216   2.991   9.882 -0.0294 -0.0067  0.2083
 1277ERGO    R116264   6.358   2.925   9.646 -0.1055 -0.0962  0.1874
 1277ERGO    R216265   6.244   2.780   9.440 -0.2374  0.0028  0.1911
 1277ERGO    R316266   6.325   2.992   9.290 -0.0958 -0.0466  0.1953
 1277ERGO    R416267   6.296   2.773   9.098 -0.3894  0.0075  0.1674
 1277ERGO    R516268   6.472   2.898   9.127 -0.2535 -0.1646  0.1159
 1277ERGO    C116269   6.401   2.969   8.759 -0.3451 -0.0362  0.1574
 1277ERGO    C216270   6.430   2.883   8.428  0.1408  0.0163  0.1403
 1278ERGO   ROH16271   0.727  17.953   6.369  0.0962 -0.0021 -0.0544
 1278ERGO    R116272   0.843  17.923   6.626 -0.0103  0.0348 -0.0023
 1278ERGO    R216273   0.704  17.973   6.859 -0.1221  0.0165 -0.0695
 1278ERGO    R316274   0.782  17.720   6.921 -0.0949  0.0365 -0.0171
 1278ERGO    R416275   0.807  17.869   7.172 -0.2434  0.0646 -0.0119
 1278ERGO    R516276   0.962  17.750   7.076 -0.1702  0.0900  0.0652
 1278ERGO    C116277   0.941  17.571   7.413 -0.2885  0.1116  0.0709
 1278ERGO    C216278   0.839  17.274   7.651  0.1809 -0.1303 -0.0064
 1279ERGO   ROH16279   5.298  11.313   5.732  0.0331 -0.0162  0.0921
 1279ERGO    R116280   5.319  11.549   5.887 -0.2241  0.0261  0.0652
 1279ERGO    R216281   5.101  11.669   6.007 -0.3143 -0.3723  0.2976
 1279ERGO    R316282   5.252  11.645   6.232 -0.0251 -0.0922  0.1415
 1279ERGO    R416283   5.051  11.846   6.300 -0.3946 -0.4997  0.3633
 1279ERGO    R516284   5.266  11.868   6.318 -0.4000 -0.0553  0.1432
 1279ERGO    C116285   5.164  11.927   6.681 -0.1700 -0.3109  0.2550
 1279ERGO    C216286   5.302  11.987   7.003  0.0167 -0.2574 -0.4086
 1280ERGO   ROH16287   9.976   4.372   6.353 -0.1109  0.0446 -0.0128
 1280ERGO    R116288  10.037   4.469   6.612 -0.1254 -0.0411  0.0239
 1280ERGO    R216289   9.945   4.713   6.705  0.0223  0.0169  0.0323
 1280ERGO    R316290   9.850   4.562   6.910 -0.1603  0.0499 -0.0270
 1280ERGO    R416291   9.894   4.827   7.028  0.2255 -0.0689  0.0953
 1280ERGO    R516292   9.973   4.637   7.101 -0.0283 -0.2142 -0.0067
 1280ERGO    C116293   9.776   4.751   7.408  0.1724 -0.0880  0.0764
 1280ERGO    C216294   9.735   4.803   7.685  0.1067  0.3894  0.0211
 1281ERGO   ROH16295   5.358  18.076   6.097  0.2559  0.1497 -0.0237
 1281ERGO    R116296   5.367  18.154   6.369  0.3231  0.1102 -0.0143
 1281ERGO    R216297   5.198  18.048   6.560  0.1475  0.3189 -0.0491
 1281ERGO    R316298   5.430  17.992   6.689  0.0567 -0.0129 -0.0214
 1281ERGO    R416299   5.235  18.033   6.904  0.0806  0.2331 -0.0453
 1281ERGO    R516300   5.427  18.134   6.882  0.2238 -0.0261 -0.0080
 1281ERGO    C116301   5.475  17.972   7.224 -0.0435 -0.1285 -0.0171
 1281ERGO    C216302   5.422  17.847   7.543 -0.0196  0.1543 -0.3461
 1282ERGO   ROH16303  17.626  15.125   6.328  0.0726  0.0047 -0.2300
 1282ERGO    R116304  17.761  15.037   6.561 -0.1072 -0.2991 -0.2349
 1282ERGO    R216305  17.840  15.210   6.762  0.4177 -0.4356 -0.3094
 1282ERGO    R316306  17.700  15.039   6.919 -0.0284 -0.0128 -0.2196
 1282ERGO    R416307  17.871  15.185   7.105  0.4100 -0.3930 -0.3048
 1282ERGO    R516308  17.856  14.969   7.086 -0.1755 -0.3760 -0.2223
 1282ERGO    C116309  17.759  15.010   7.453 -0.0134  0.0286 -0.2179
 1282ERGO    C216310  17.894  15.100   7.773  0.1272  0.0157 -0.0104
 1283ERGO   ROH16311   3.797   5.451   6.327  0.1464 -0.3302 -0.0736
 1283ERGO    R116312   3.783   5.296   6.563  0.0334 -0.1207  0.0591
 1283ERGO    R216313   4.007   5.228   6.710 -0.0097 -0.2254  0.0676
 1283ERGO    R316314   3.869   5.341   6.914  0.1451  0.0838  0.0088
 1283ERGO    R416315   4.082   5.187   7.045 -0.1248 -0.2436  0.0922
 1283ERGO    R516316   3.868   5.173   7.085 -0.1653  0.1329  0.0658
 1283ERGO    C116317   3.995   5.269   7.432 -0.0465  0.0360  0.0512
 1283ERGO    C216318   4.284   5.352   7.679  0.2069  0.4846 -0.1326
 1284ERGO   ROH16319  17.383  11.438   6.144  0.0276 -0.0445  0.0262
 1284ERGO    R116320  17.323  11.576   6.384  0.0478 -0.0206  0.0170
 1284ERGO    R216321  17.087  11.715   6.421  0.0375 -0.0457  0.0347
 1284ERGO    R316322  17.068  11.559   6.642  0.0902 -0.0180  0.0596
 1284ERGO    R416323  16.818  11.712   6.637  0.0286 -0.1163  0.0237
 1284ERGO    R516324  16.958  11.698   6.804  0.0283 -0.0339  0.0327
 1284ERGO    C116325  16.643  11.565   6.972  0.0728 -0.1315  0.0408
 1284ERGO    C216326  16.252  11.708   6.995 -0.0311 -0.2125 -0.0360
 1285ERGO   ROH16327   5.335   1.805  10.010 -0.0246 -0.1761  0.1333
 1285ERGO    R116328   5.416   1.790   9.739  0.0041 -0.0397  0.1340
 1285ERGO    R216329   5.548   1.571   9.635  0.0731  0.0409  0.0532
 1285ERGO    R316330   5.346   1.576   9.454  0.0892  0.0615  0.0356
 1285ERGO    R416331   5.584   1.510   9.297  0.0781 -0.0868  0.0761
 1285ERGO    R516332   5.444   1.672   9.258  0.1451 -0.0423  0.0110
 1285ERGO    C116333   5.415   1.479   8.930  0.0962 -0.1419  0.0729
 1285ERGO    C216334   5.302   1.446   8.575  0.0355  0.1128 -0.0345
 1286ERGO   ROH16335   0.455  11.759   6.461  0.3655  0.3212  0.2015
 1286ERGO    R116336   0.409  11.847   6.726  0.0659  0.2331  0.1835
 1286ERGO    R216337   0.178  11.787   6.866  0.0402 -0.0825  0.0174
 1286ERGO    R316338   0.353  11.692   7.050  0.0385  0.1199  0.1247
 1286ERGO    R416339   0.121  11.779   7.206 -0.0539  0.0822  0.0063
 1286ERGO    R516340   0.327  11.839   7.238 -0.0969  0.2136  0.0333
 1286ERGO    C116341   0.252  11.685   7.578 -0.1104  0.3684  0.1006
 1286ERGO    C216342  -0.042  11.588   7.859 -0.0741 -0.1244  0.3413
 1287ERGO   ROH16343  10.977   3.618   6.278  0.0341  0.2594 -0.1343
 1287ERGO    R116344  11.101   3.501   6.505 -0.0686  0.0245 -0.1951
 1287ERGO    R216345  11.208   3.652   6.710  0.0982 -0.1790 -0.1250
 1287ERGO    R316346  11.045   3.500   6.864 -0.0512 -0.0899 -0.1933
 1287ERGO    R416347  11.279   3.553   7.033 -0.1532 -0.1149 -0.0485
 1287ERGO    R516348  11.195   3.357   6.986 -0.1771 -0.1008 -0.0521
 1287ERGO    C116349  11.168   3.351   7.366 -0.4398  0.0061 -0.0680
 1287ERGO    C216350  11.018   3.212   7.638 -0.1943  0.0411 -0.1498
 1288ERGO   ROH16351   6.146   5.289   6.446 -0.2226  0.0466 -0.0685
 1288ERGO    R116352   6.026   5.268   6.701 -0.0128 -0.1363  0.0197
 1288ERGO    R216353   6.152   5.149   6.916  0.3305  0.0598 -0.0636
 1288ERGO    R316354   6.099   5.386   7.038  0.0479 -0.0141 -0.0355
 1288ERGO    R416355   5.995   5.183   7.222  0.3823 -0.1682 -0.0099
 1288ERGO    R516356   5.886   5.353   7.142  0.1226 -0.3096  0.0342
 1288ERGO    C116357   5.855   5.426   7.515  0.1472 -0.3702  0.0478
 1288ERGO    C216358   5.758   5.646   7.680 -0.1914 -0.3424 -0.1365
 1289ERGO   ROH16359   2.592   6.944   6.820  0.2547 -0.1229  0.0721
 1289ERGO    R116360   2.507   6.867   7.079 -0.0332  0.0017  0.0176
 1289ERGO    R216361   2.685   6.816   7.285 -0.2341 -0.3893  0.0989
 1289ERGO    R316362   2.534   7.001   7.416  0.0642 -0.1051  0.0542
 1289ERGO    R416363   2.659   6.842   7.629 -0.3433 -0.4056  0.0926
 1289ERGO    R516364   2.446   6.883   7.605 -0.2647  0.0252 -0.0065
 1289ERGO    C116365   2.503   7.031   7.952 -0.1268 -0.1483  0.0469
 1289ERGO    C216366   2.649   7.202   8.255 -0.0628  0.2620 -0.2754
 1290ERGO   ROH16367  18.204  14.249   6.237 -0.0448 -0.0250 -0.1195
 1290ERGO    R116368  18.082  14.187   6.485 -0.1472  0.1804 -0.1167
 1290ERGO    R216369  18.198  14.016   6.668 -0.4442 -0.0468 -0.1378
 1290ERGO    R316370  18.163  14.226   6.837 -0.0506  0.0103 -0.1179
 1290ERGO    R416371  18.190  13.993   7.013 -0.5022 -0.0724 -0.1400
 1290ERGO    R516372  18.028  14.138   7.014 -0.2320  0.2450 -0.1326
 1290ERGO    C116373  18.154  14.177   7.373 -0.1664 -0.0337 -0.1226
 1290ERGO    C216374  18.360  14.076   7.657 -0.1936 -0.2813  0.2030
 1291ERGO   ROH16375   5.497   9.735   9.647  0.1043  0.3315  0.1604
 1291ERGO    R116376   5.592   9.769   9.382  0.1014  0.1822  0.1392
 1291ERGO    R216377   5.550   9.582   9.183  0.0143  0.1145  0.2209
 1291ERGO    R316378   5.446   9.796   9.050  0.0907  0.1003  0.1371
 1291ERGO    R416379   5.469   9.586   8.847 -0.0637 -0.0158  0.2371
 1291ERGO    R516380   5.550   9.788   8.835  0.0361 -0.0618  0.1151
 1291ERGO    C116381   5.325   9.789   8.527 -0.0374 -0.1050  0.1679
 1291ERGO    C216382   5.152   9.888   8.170  0.2870  0.1757 -0.2375
 1292ERGO   ROH16383   2.883   6.912   9.916 -0.0098  0.2072 -0.0661
 1292ERGO    R116384   2.844   6.937   9.637 -0.0202  0.0711 -0.0779
 1292ERGO    R216385   2.941   6.753   9.455 -0.0008 -0.0018  0.0053
 1292ERGO    R316386   2.682   6.744   9.374 -0.0016 -0.0739  0.0161
 1292ERGO    R416387   2.838   6.702   9.129  0.0031  0.0309 -0.0008
 1292ERGO    R516388   2.683   6.852   9.160 -0.0477 -0.0284  0.0383
 1292ERGO    C116389   2.535   6.664   8.863  0.0046 -0.0177  0.0058
 1292ERGO    C216390   2.434   6.479   8.556  0.0316  0.1827  0.1243
 1293ERGO   ROH16391  16.562  10.662   9.899 -0.0003  0.0731 -0.0907
 1293ERGO    R116392  16.600  10.721   9.624 -0.1427  0.1071 -0.1044
 1293ERGO    R216393  16.817  10.628   9.481 -0.0609  0.3649 -0.1557
 1293ERGO    R316394  16.625  10.533   9.314  0.0099  0.1188 -0.0994
 1293ERGO    R416395  16.851  10.598   9.138 -0.1225  0.4077 -0.1653
 1293ERGO    R516396  16.645  10.668   9.117 -0.2197  0.1458 -0.1059
 1293ERGO    C116397  16.690  10.491   8.782 -0.0921  0.2016 -0.1180
 1293ERGO    C216398  16.810  10.541   8.513  0.0836 -0.2522  0.0863
 1294ERGO   ROH16399   1.475   3.770   6.020  0.0669  0.2791  0.1095
 1294ERGO    R116400   1.537   3.804   6.294 -0.0867  0.3363  0.1395
 1294ERGO    R216401   1.358   3.912   6.475 -0.3539 -0.0167  0.1078
 1294ERGO    R316402   1.408   3.683   6.612  0.0147  0.0321  0.0654
 1294ERGO    R416403   1.273   3.857   6.805 -0.3372 -0.2594  0.0727
 1294ERGO    R516404   1.464   3.756   6.832 -0.1690  0.0703  0.0943
 1294ERGO    C116405   1.269   3.610   7.126  0.0184 -0.3550  0.0123
 1294ERGO    C216406   1.198   3.645   7.480  0.3527 -0.1149  0.1733
 1295ERGO   ROH16407  13.583   5.994   9.820 -0.0619 -0.1890 -0.0862
 1295ERGO    R116408  13.479   6.029   9.559  0.1380  0.0030 -0.1434
 1295ERGO    R216409  13.595   6.198   9.374  0.4154 -0.0310 -0.0091
 1295ERGO    R316410  13.596   5.975   9.219  0.3127  0.0221 -0.0863
 1295ERGO    R416411  13.524   6.193   9.036  0.2170  0.0826  0.0297
 1295ERGO    R516412  13.414   6.008   9.067  0.2272  0.0803  0.0311
 1295ERGO    C116413  13.484   5.981   8.693  0.0051  0.1987 -0.0203
 1295ERGO    C216414  13.518   6.095   8.467 -0.3410  0.0110  0.0904
 1296ERGO   ROH16415  17.530  16.963   6.311 -0.1867  0.2564 -0.1675
 1296ERGO    R116416  17.451  17.007   6.579 -0.1435 -0.1093 -0.0884
 1296ERGO    R216417  17.524  16.839   6.785  0.2804 -0.1479 -0.2559
 1296ERGO    R316418  17.617  17.069   6.897 -0.0965 -0.0520 -0.1248
 1296ERGO    R416419  17.595  16.878   7.121  0.3633 -0.2643 -0.2593
 1296ERGO    R516420  17.507  17.078   7.111 -0.0182 -0.4177 -0.0650
 1296ERGO    C116421  17.724  17.117   7.422  0.0577 -0.2423 -0.1383
 1296ERGO    C216422  17.948  16.878   7.700 -0.0775  0.0942 -0.0549
 1297ERGO   ROH16423   8.629   0.564   9.789  0.1643  0.2739 -0.0237
 1297ERGO    R116424   8.534   0.576   9.523 -0.0730  0.0232  0.0457
 1297ERGO    R216425   8.694   0.649   9.310 -0.3819  0.3128 -0.1002
 1297ERGO    R316426   8.611   0.412   9.207  0.0199  0.1091  0.0246
 1297ERGO    R416427   8.674   0.577   8.973 -0.1655  0.0509 -0.0595
 1297ERGO    R516428   8.487   0.472   9.011 -0.0154 -0.2174 -0.0558
 1297ERGO    C116429   8.585   0.311   8.680  0.3377 -0.2929  0.0811
 1297ERGO    C216430   8.655   0.332   8.305  0.0032 -0.3116  0.1600
 1298ERGO   ROH16431   1.747   7.403  10.467  0.1843  0.0721  0.1269
 1298ERGO    R116432   1.860   7.475  10.218  0.0697  0.0025  0.0540
 1298ERGO    R216433   1.972   7.289  10.047 -0.0040 -0.0448  0.0566
 1298ERGO    R316434   1.799   7.398   9.868 -0.0884 -0.1010  0.1031
 1298ERGO    R416435   2.036   7.327   9.710 -0.0826  0.0365  0.0501
 1298ERGO    R516436   1.939   7.522   9.718 -0.1750 -0.0112  0.0959
 1298ERGO    C116437   1.911   7.450   9.344 -0.2076  0.0310  0.0900
 1298ERGO    C216438   1.967   7.474   8.947 -0.3173 -0.3682 -0.0922
 1299ERGO   ROH16439  16.428   9.186   6.312 -0.2267 -0.0361  0.0388
 1299ERGO    R116440  16.547   9.150   6.566 -0.0926  0.0512 -0.0105
 1299ERGO    R216441  16.523   9.335   6.770 -0.1474  0.0331  0.0017
 1299ERGO    R316442  16.433   9.121   6.910  0.0707 -0.0380  0.0368
 1299ERGO    R416443  16.403   9.348   7.094 -0.2680 -0.0199 -0.0408
 1299ERGO    R516444  16.507   9.161   7.134 -0.0504  0.1202  0.0487
 1299ERGO    C116445  16.247   9.153   7.414 -0.1335 -0.1176 -0.0326
 1299ERGO    C216446  16.216   9.174   7.820 -0.2495  0.1211 -0.0057
 1300ERGO   ROH16447   7.203  14.822   9.341 -0.0824  0.0209 -0.0309
 1300ERGO    R116448   7.242  14.994   9.120 -0.0188 -0.0360 -0.0633
 1300ERGO    R216449   7.436  14.947   8.928 -0.0651 -0.1659 -0.0739
 1300ERGO    R316450   7.225  14.967   8.758 -0.0713 -0.0847 -0.0585
 1300ERGO    R416451   7.461  15.012   8.589 -0.0328 -0.4937 -0.1378
 1300ERGO    R516452   7.287  15.141   8.606  0.1074 -0.2807 -0.2245
 1300ERGO    C116453   7.277  15.067   8.232 -0.0199 -0.6083 -0.1605
 1300ERGO    C216454   7.267  15.151   7.908 -0.1360 -0.0502 -0.2339
 1301ERGO   ROH16455   8.206   4.765  10.255  0.2189 -0.1931 -0.2284
 1301ERGO    R116456   8.199   4.674   9.987 -0.0897 -0.1041 -0.2538
 1301ERGO    R216457   7.962   4.619   9.854 -0.2507  0.1243 -0.0628
 1301ERGO    R316458   8.063   4.793   9.671 -0.2777  0.1016 -0.1005
 1301ERGO    R416459   7.951   4.573   9.512 -0.2705  0.0577 -0.0538
 1301ERGO    R516460   8.153   4.652   9.499 -0.2753  0.0751 -0.0809
 1301ERGO    C116461   8.038   4.709   9.140 -0.3073 -0.0024 -0.0840
 1301ERGO    C216462   7.866   4.739   8.816  0.2728 -0.0378 -0.1669
 1302ERGO   ROH16463  12.955   6.856   6.149  0.0905 -0.1051  0.0009
 1302ERGO    R116464  12.891   6.956   6.405  0.1190  0.1093 -0.0752
 1302ERGO    R216465  12.978   6.835   6.638 -0.0401  0.1770  0.0112
 1302ERGO    R316466  13.074   7.084   6.693  0.1628  0.1301 -0.1091
 1302ERGO    R416467  13.097   6.937   6.946 -0.0652  0.2474 -0.0007
 1302ERGO    R516468  12.997   7.129   6.915  0.1117  0.3286 -0.1573
 1302ERGO    C116469  13.256   7.230   7.177  0.1107  0.2443 -0.1205
 1302ERGO    C216470  13.504   7.227   7.477 -0.1108  0.0332 -0.0930
 1303ERGO   ROH16471   7.327  17.538   6.528  0.0927  0.1881  0.0301
 1303ERGO    R116472   7.305  17.499   6.808 -0.2066  0.1335  0.0022
 1303ERGO    R216473   7.484  17.608   6.988 -0.2358 -0.1278  0.1950
 1303ERGO    R316474   7.258  17.709   7.101 -0.2232  0.1078  0.0185
 1303ERGO    R416475   7.477  17.817   7.263 -0.2325 -0.2050  0.2541
 1303ERGO    R516476   7.304  17.708   7.336 -0.4368 -0.0231  0.0631
 1303ERGO    C116477   7.262  18.034   7.530 -0.2189 -0.0288  0.1229
 1303ERGO    C216478   7.310  18.136   7.829  0.1458 -0.1234  0.1827
 1304ERGO   ROH16479  15.012   2.676   9.932  0.2601 -0.1801 -0.0802
 1304ERGO    R116480  14.917   2.593   9.679  0.1708 -0.1799 -0.0474
 1304ERGO    R216481  14.853   2.771   9.478 -0.0093 -0.1749  0.0136
 1304ERGO    R316482  15.028   2.621   9.333 -0.0141 -0.0730 -0.0990
 1304ERGO    R416483  14.830   2.715   9.138 -0.1674 -0.1436  0.0183
 1304ERGO    R516484  14.890   2.509   9.173 -0.0479 -0.1199 -0.0383
 1304ERGO    C116485  14.981   2.543   8.804 -0.2641 -0.0298 -0.0847
 1304ERGO    C216486  14.971   2.446   8.498 -0.2414 -0.2052  0.1424
 1305ERGO   ROH16487  13.592   3.061   6.474  0.1466 -0.1764  0.1345
 1305ERGO    R116488  13.628   3.031   6.754  0.3204  0.0197  0.1358
 1305ERGO    R216489  13.755   3.222   6.908 -0.0943  0.4111  0.0208
 1305ERGO    R316490  13.526   3.209   7.054 -0.0287 -0.1092  0.0973
 1305ERGO    R416491  13.722   3.333   7.234 -0.2335  0.2958  0.0462
 1305ERGO    R516492  13.599   3.158   7.276  0.1584  0.0176  0.0653
 1305ERGO    C116493  13.487   3.386   7.560 -0.2529 -0.2597  0.1326
 1305ERGO    C216494  13.209   3.563   7.838 -0.5092  0.3550  0.0323
 1306ERGO   ROH16495  10.049   7.019   9.837 -0.2407 -0.0941  0.0147
 1306ERGO    R116496  10.125   6.927   9.580  0.0253  0.0692  0.0313
 1306ERGO    R216497   9.941   6.875   9.381  0.1773 -0.3436 -0.0079
 1306ERGO    R316498  10.096   7.046   9.238 -0.1649  0.0093  0.0245
 1306ERGO    R416499   9.962   6.881   9.036  0.3918 -0.4539  0.0010
 1306ERGO    R516500  10.177   6.914   9.054  0.3100  0.1209  0.1363
 1306ERGO    C116501  10.120   7.046   8.701  0.1953 -0.1869  0.0366
 1306ERGO    C216502   9.941   7.030   8.420 -0.1820  0.0410  0.1476
 1307ERGO   ROH16503  17.103   3.580   9.686 -0.2115  0.0202 -0.0331
 1307ERGO    R116504  17.008   3.535   9.423 -0.3357 -0.0245  0.0187
 1307ERGO    R216505  16.799   3.678   9.314 -0.0804  0.2903 -0.0718
 1307ERGO    R316506  16.979   3.727   9.116 -0.0043 -0.2237 -0.1427
 1307ERGO    R416507  16.721   3.704   8.978 -0.1548  0.5568 -0.0359
 1307ERGO    R516508  16.903   3.593   8.932 -0.4897  0.0084 -0.1263
 1307ERGO    C116509  16.844   3.765   8.597 -0.1268  0.2295 -0.0816
 1307ERGO    C216510  16.962   3.704   8.356  0.0799  0.0757 -0.2941
 1308ERGO   ROH16511   4.301   1.157   5.912  0.0044 -0.2919  0.0830
 1308ERGO    R116512   4.235   1.282   6.158 -0.0555 -0.2237  0.0330
 1308ERGO    R216513   4.053   1.174   6.335 -0.0352 -0.2188  0.0587
 1308ERGO    R316514   4.259   1.199   6.511 -0.0559 -0.0884  0.0649
 1308ERGO    R416515   4.022   1.156   6.679 -0.0540 -0.0916  0.0638
 1308ERGO    R516516   4.165   1.320   6.696 -0.1043 -0.0434  0.0100
 1308ERGO    C116517   4.197   1.169   7.044 -0.0843  0.1049  0.0727
 1308ERGO    C216518   4.181   1.087   7.338  0.0132 -0.0493 -0.0716
 1309ERGO   ROH16519  13.084  18.179  10.051 -0.0921 -0.1027  0.1506
 1309ERGO    R116520  13.089  18.249   9.777 -0.1140 -0.0491  0.1637
 1309ERGO    R216521  13.315  18.348   9.653 -0.1370  0.0227  0.1759
 1309ERGO    R316522  13.271  18.143   9.480 -0.0988  0.0455  0.1392
 1309ERGO    R416523  13.427  18.338   9.326 -0.0827  0.0715  0.1929
 1309ERGO    R516524  13.236  18.250   9.269 -0.0679  0.0719  0.1485
 1309ERGO    C116525  13.451  18.140   8.973 -0.0153  0.1214  0.1683
 1309ERGO    C216526  13.552  18.099   8.627  0.0364  0.1092 -0.0737
 1310ERGO   ROH16527   8.980  13.689   9.454 -0.1093  0.0612  0.1727
 1310ERGO    R116528   8.817  13.621   9.233 -0.1529  0.2458  0.1454
 1310ERGO    R216529   8.761  13.799   9.029  0.1917  0.2736  0.0638
 1310ERGO    R316530   8.856  13.599   8.872 -0.0720  0.0629  0.1656
 1310ERGO    R416531   8.697  13.765   8.691  0.1309  0.1656  0.0863
 1310ERGO    R516532   8.677  13.550   8.721 -0.1415  0.2070  0.2039
 1310ERGO    C116533   8.750  13.557   8.347 -0.1520 -0.0952  0.1950
 1310ERGO    C216534   8.797  13.762   8.110  0.1019 -0.1517  0.1691
 1311ERGO   ROH16535   4.819  16.003   9.579 -0.1682 -0.1819  0.0223
 1311ERGO    R116536   4.737  15.898   9.329 -0.0170 -0.1143 -0.0560
 1311ERGO    R216537   4.557  16.027   9.165 -0.0435 -0.1505 -0.0526
 1311ERGO    R316538   4.755  16.001   8.980  0.0356  0.0639 -0.0019
 1311ERGO    R416539   4.522  16.093   8.827 -0.0700 -0.3182 -0.0838
 1311ERGO    R516540   4.644  15.917   8.785  0.1916 -0.1651  0.0033
 1311ERGO    C116541   4.688  16.107   8.457 -0.0111 -0.2145 -0.0544
 1311ERGO    C216542   4.747  16.178   8.100 -0.1000  0.1293 -0.2175
 1312ERGO   ROH16543  17.329   2.871   6.249 -0.0698  0.3263 -0.0298
 1312ERGO    R116544  17.406   2.899   6.520 -0.0274  0.2024 -0.0289
 1312ERGO    R216545  17.225   2.890   6.728 -0.0081  0.2171 -0.0142
 1312ERGO    R316546  17.391   2.696   6.821 -0.0860  0.1106 -0.0927
 1312ERGO    R416547  17.308   2.845   7.060 -0.0562  0.0259 -0.0264
 1312ERGO    R516548  17.513   2.802   6.998 -0.0638 -0.0173 -0.0281
 1312ERGO    C116549  17.513   2.637   7.341 -0.1570 -0.1853 -0.1071
 1312ERGO    C216550  17.499   2.661   7.720 -0.2688  0.0126  0.3096
 1313ERGO   ROH16551  13.513   1.259  10.253 -0.0097 -0.1448 -0.0406
 1313ERGO    R116552  13.634   1.267   9.997  0.0393 -0.0129 -0.0151
 1313ERGO    R216553  13.681   1.039   9.847  0.2137  0.0463 -0.0581
 1313ERGO    R316554  13.541   1.174   9.658  0.1660  0.0018 -0.0538
 1313ERGO    R416555  13.721   0.999   9.507  0.2830  0.1309 -0.0594
 1313ERGO    R516556  13.700   1.215   9.484  0.1662  0.1218 -0.0239
 1313ERGO    C116557  13.613   1.103   9.130  0.2786  0.1383 -0.0562
 1313ERGO    C216558  13.579   1.166   8.863  0.2151  0.1906  0.2041
 1314ERGO   ROH16559   6.175  13.927   9.610  0.1867 -0.1798 -0.0213
 1314ERGO    R116560   6.277  14.037   9.370  0.1154 -0.0768 -0.0039
 1314ERGO    R216561   6.313  13.886   9.141  0.1367  0.0028 -0.0447
 1314ERGO    R316562   6.160  14.081   9.029  0.0575 -0.0191  0.0209
 1314ERGO    R416563   6.291  13.948   8.802 -0.0911 -0.0800 -0.0478
 1314ERGO    R516564   6.292  14.162   8.846 -0.0584 -0.0622 -0.0918
 1314ERGO    C116565   6.135  14.167   8.499 -0.2982 -0.1487  0.0119
 1314ERGO    C216566   6.101  14.305   8.178  0.2135 -0.1467 -0.0916
 1315ERGO   ROH16567   9.269   3.782  10.192  0.0012  0.2307 -0.0481
 1315ERGO    R116568   9.235   3.687   9.928  0.0919  0.1754 -0.0414
 1315ERGO    R216569   9.011   3.744   9.776  0.0154 -0.0783 -0.0380
 1315ERGO    R316570   9.195   3.834   9.597 -0.0860  0.1144 -0.0467
 1315ERGO    R416571   9.004   3.678   9.437  0.1987 -0.2864 -0.0023
 1315ERGO    R516572   9.221   3.652   9.443  0.2417  0.0648  0.0632
 1315ERGO    C116573   9.173   3.724   9.071  0.2103 -0.2267  0.0103
 1315ERGO    C216574   8.985   3.830   8.765  0.0335 -0.1761  0.2770
 1316ERGO   ROH16575   3.800   7.298   9.754 -0.0776  0.2365  0.0326
 1316ERGO    R116576   3.899   7.276   9.490 -0.0219  0.0020  0.0703
 1316ERGO    R216577   3.771   7.130   9.294 -0.2090  0.1680  0.0637
 1316ERGO    R316578   3.784   7.364   9.156  0.2356  0.1193  0.0102
 1316ERGO    R416579   3.741   7.158   8.951 -0.0729  0.1441  0.0495
 1316ERGO    R516580   3.901   7.306   8.954  0.1902 -0.1313  0.0532
 1316ERGO    C116581   3.736   7.393   8.621  0.4236  0.0843 -0.0090
 1316ERGO    C216582   3.770   7.347   8.282 -0.1924 -0.3716 -0.0492
 1317ERGO   ROH16583   5.480   3.378  10.108  0.1004 -0.2274  0.0860
 1317ERGO    R116584   5.354   3.386   9.855  0.0957 -0.2347  0.0886
 1317ERGO    R216585   5.476   3.493   9.632  0.0213 -0.0767  0.1242
 1317ERGO    R316586   5.419   3.250   9.523  0.1924 -0.0834  0.0443
 1317ERGO    R416587   5.517   3.411   9.298  0.0990  0.0559  0.1001
 1317ERGO    R516588   5.329   3.302   9.307  0.1709 -0.0757  0.0544
 1317ERGO    C116589   5.487   3.136   9.003  0.3049  0.1268  0.0111
 1317ERGO    C216590   5.439   3.089   8.696 -0.1221  0.0820 -0.2354
 1318ERGO   ROH16591   1.659  15.391   6.339  0.1566 -0.0555  0.1429
 1318ERGO    R116592   1.500  15.473   6.558  0.0893 -0.1283  0.1227
 1318ERGO    R216593   1.480  15.326   6.791  0.0467 -0.1895  0.0854
 1318ERGO    R316594   1.556  15.560   6.907 -0.0089 -0.2075  0.1570
 1318ERGO    R416595   1.452  15.397   7.128  0.0891 -0.3129  0.1149
 1318ERGO    R516596   1.389  15.599   7.075  0.0147 -0.3186  0.2014
 1318ERGO    C116597   1.507  15.658   7.433  0.0616 -0.4018  0.1993
 1318ERGO    C216598   1.656  15.719   7.706 -0.0949 -0.1564  0.1603
 1319ERGO   ROH16599  14.621  12.417   6.282  0.2976 -0.1897 -0.0694
 1319ERGO    R116600  14.561  12.261   6.511  0.3057 -0.0587  0.0227
 1319ERGO    R216601  14.737  12.235   6.723  0.2325  0.2227  0.1213
 1319ERGO    R316602  14.523  12.320   6.868  0.1094  0.1859 -0.0355
 1319ERGO    R416603  14.696  12.188   7.063 -0.0737  0.0941  0.0702
 1319ERGO    R516604  14.485  12.146   7.027 -0.0489  0.1257 -0.1344
 1319ERGO    C116605  14.471  12.241   7.397 -0.3673 -0.0153 -0.1067
 1319ERGO    C216606  14.405  11.987   7.691  0.1708  0.0524  0.2578
 1320ERGO   ROH16607  12.820   3.516   6.424 -0.0825 -0.1955  0.0340
 1320ERGO    R116608  12.677   3.690   6.595 -0.0767  0.0030 -0.1579
 1320ERGO    R216609  12.717   3.696   6.868 -0.4309 -0.0561 -0.0985
 1320ERGO    R316610  12.758   3.961   6.824 -0.0045 -0.1062 -0.0531
 1320ERGO    R416611  12.741   3.936   7.116 -0.1084 -0.1206 -0.0617
 1320ERGO    R516612  12.623   4.070   6.990  0.1270  0.0839 -0.0693
 1320ERGO    C116613  12.792   4.325   7.219  0.4796 -0.2052  0.0024
 1320ERGO    C216614  12.876   4.522   7.590  0.0835 -0.1574  0.2895
 1321ERGO   ROH16615   2.544  12.046   9.305  0.1440 -0.0750 -0.1648
 1321ERGO    R116616   2.438  12.019   9.044  0.0495 -0.1322 -0.1212
 1321ERGO    R216617   2.482  12.206   8.845 -0.1185 -0.1152 -0.1467
 1321ERGO    R316618   2.569  11.990   8.706 -0.0726 -0.0795 -0.1736
 1321ERGO    R416619   2.506  12.189   8.501 -0.1317 -0.0777 -0.1494
 1321ERGO    R516620   2.431  11.985   8.511 -0.0802 -0.0956 -0.1661
 1321ERGO    C116621   2.602  11.976   8.170 -0.0963 -0.0225 -0.1761
 1321ERGO    C216622   2.570  11.771   7.858  0.2118  0.2377 -0.0122
 1322ERGO   ROH16623  10.994   6.452   6.406  0.1001 -0.0268  0.0025
 1322ERGO    R116624  10.922   6.339   6.656 -0.1335 -0.0292 -0.0636
 1322ERGO    R216625  11.044   6.412   6.893 -0.0500 -0.3426 -0.0050
 1322ERGO    R316626  10.789   6.461   6.972  0.0090  0.0465 -0.0315
 1322ERGO    R416627  10.940   6.435   7.222 -0.0906 -0.4420 -0.0108
 1322ERGO    R516628  10.760   6.325   7.167 -0.2808 -0.0780 -0.1547
 1322ERGO    C116629  10.639   6.494   7.487 -0.0588 -0.1346 -0.0389
 1322ERGO    C216630  10.613   6.485   7.935  0.1837  0.1166  0.1774
 1323ERGO   ROH16631  16.457   7.750   6.038  0.1036 -0.0721 -0.1069
 1323ERGO    R116632  16.657   7.629   6.197  0.1022 -0.1077 -0.1326
 1323ERGO    R216633  16.605   7.520   6.445  0.1229 -0.0578 -0.1077
 1323ERGO    R316634  16.721   7.299   6.337  0.0376 -0.1069 -0.0999
 1323ERGO    R416635  16.799   7.294   6.620  0.1959 -0.0191 -0.1378
 1323ERGO    R516636  16.933   7.283   6.447  0.0995 -0.0914 -0.2117
 1323ERGO    C116637  17.021   6.955   6.620  0.1581 -0.0428 -0.1481
 1323ERGO    C216638  17.136   6.791   6.943  0.1753  0.0734  0.1517
 1324ERGO   ROH16639   7.472   5.389   6.366 -0.2766  0.0793 -0.0630
 1324ERGO    R116640   7.436   5.390   6.647 -0.3992  0.2422 -0.0768
 1324ERGO    R216641   7.191   5.343   6.766 -0.3719 -0.1199 -0.1502
 1324ERGO    R316642   7.328   5.151   6.900 -0.0661  0.2394  0.0685
 1324ERGO    R416643   7.085   5.194   7.059 -0.2969 -0.1631 -0.1462
 1324ERGO    R516644   7.291   5.202   7.131 -0.3554  0.3089  0.0128
 1324ERGO    C116645   7.153   4.926   7.356  0.0338  0.1490  0.0613
 1324ERGO    C216646   7.039   4.640   7.452  0.2494  0.1203  0.2097
 1325ERGO   ROH16647  13.317  15.110   9.738 -0.0395 -0.0084  0.0995
 1325ERGO    R116648  13.461  15.116   9.495 -0.0583 -0.0932  0.0854
 1325ERGO    R216649  13.386  14.968   9.274 -0.1795 -0.0346  0.0842
 1325ERGO    R316650  13.392  15.209   9.149 -0.0311 -0.0316  0.0966
 1325ERGO    R416651  13.420  15.013   8.933  0.1870 -0.0273  0.1175
 1325ERGO    R516652  13.552  15.181   8.973  0.1561 -0.0370  0.2645
 1325ERGO    C116653  13.445  15.266   8.617  0.5396 -0.0202  0.1485
 1325ERGO    C216654  13.502  15.281   8.249  0.1632  0.3126  0.3176
 1326ERGO   ROH16655   3.443  10.578   9.707 -0.0619 -0.0814  0.0558
 1326ERGO    R116656   3.317  10.537   9.457  0.0184 -0.1437  0.0242
 1326ERGO    R216657   3.198  10.743   9.315 -0.1017 -0.2089  0.0216
 1326ERGO    R316658   3.362  10.656   9.116  0.0064 -0.0701  0.0492
 1326ERGO    R416659   3.190  10.855   8.988 -0.0617 -0.1418  0.0442
 1326ERGO    R516660   3.222  10.650   8.922  0.0726 -0.1045  0.0061
 1326ERGO    C116661   3.338  10.839   8.611  0.0632  0.0276  0.0831
 1326ERGO    C216662   3.310  10.746   8.318 -0.0272  0.0509  0.2793
 1327ERGO   ROH16663  16.934   1.416   9.843  0.0505 -0.0647  0.0448
 1327ERGO    R116664  17.006   1.505   9.584  0.1042 -0.0827  0.0536
 1327ERGO    R216665  17.161   1.354   9.412 -0.0098 -0.1722  0.0287
 1327ERGO    R316666  16.953   1.393   9.241  0.0107 -0.0014  0.0411
 1327ERGO    R416667  17.169   1.288   9.073 -0.0694 -0.1330  0.0194
 1327ERGO    R516668  17.056   1.471   9.040  0.0595 -0.0473  0.0479
 1327ERGO    C116669  16.979   1.286   8.715 -0.0846  0.0500  0.0258
 1327ERGO    C216670  16.853   1.320   8.328 -0.0373 -0.0076 -0.4193
 1328ERGO   ROH16671   5.031  13.052   9.445 -0.0206 -0.1375  0.0286
 1328ERGO    R116672   5.040  12.983   9.171 -0.1216 -0.1047  0.0171
 1328ERGO    R216673   4.858  13.081   8.987 -0.0343  0.1231  0.0490
 1328ERGO    R316674   5.083  13.159   8.855  0.0410 -0.1000  0.0410
 1328ERGO    R416675   4.870  13.174   8.654  0.0559  0.0772  0.0388
 1328ERGO    R516676   5.058  13.066   8.636 -0.0436 -0.1012  0.0510
 1328ERGO    C116677   5.087  13.301   8.337  0.1792 -0.1589  0.0253
 1328ERGO    C216678   4.976  13.316   8.073 -0.0618 -0.1528 -0.1304
 1329ERGO   ROH16679   1.208  11.057   6.598 -0.0786 -0.1297 -0.0636
 1329ERGO    R116680   1.347  11.212   6.790 -0.1075 -0.0734 -0.0879
 1329ERGO    R216681   1.219  11.350   6.992 -0.1300 -0.1005 -0.0848
 1329ERGO    R316682   1.389  11.210   7.152 -0.0702 -0.0361 -0.0916
 1329ERGO    R416683   1.204  11.341   7.337 -0.2531 -0.2813 -0.0934
 1329ERGO    R516684   1.421  11.351   7.342 -0.2608 -0.0994 -0.0089
 1329ERGO    C116685   1.355  11.204   7.688 -0.2687 -0.3261 -0.1048
 1329ERGO    C216686   1.486  11.075   7.999 -0.1078 -0.1475 -0.1118
 1330ERGO   ROH16687   5.235  15.750   5.980  0.1565  0.0725 -0.0358
 1330ERGO    R116688   5.161  15.757   6.253 -0.0093  0.2178 -0.0820
 1330ERGO    R216689   5.257  15.576   6.438 -0.3327  0.1413  0.0237
 1330ERGO    R316690   5.330  15.801   6.572 -0.1552  0.0905  0.0133
 1330ERGO    R416691   5.325  15.591   6.776 -0.2670  0.0992  0.0119
 1330ERGO    R516692   5.220  15.782   6.784 -0.1319  0.1693  0.0296
 1330ERGO    C116693   5.433  15.810   7.099 -0.0621  0.0268 -0.0047
 1330ERGO    C216694   5.438  15.925   7.546  0.2597  0.2058  0.1524
 1331ERGO   ROH16695  11.302  13.735   9.525 -0.0576  0.0942 -0.1617
 1331ERGO    R116696  11.470  13.685   9.302  0.0186  0.1122 -0.1074
 1331ERGO    R216697  11.386  13.540   9.082  0.1214  0.0655 -0.1087
 1331ERGO    R316698  11.468  13.762   8.947  0.1030  0.0664 -0.1206
 1331ERGO    R416699  11.461  13.551   8.745 -0.2473  0.1216 -0.1939
 1331ERGO    R516700  11.630  13.680   8.791 -0.1112  0.0122 -0.3298
 1331ERGO    C116701  11.582  13.765   8.422 -0.4792  0.1552 -0.2547
 1331ERGO    C216702  11.599  13.902   8.167  0.0491  0.0243 -0.0616
 1332ERGO   ROH16703   1.581  14.375   6.170 -0.0879 -0.0034  0.0180
 1332ERGO    R116704   1.556  14.390   6.452 -0.0770 -0.1253  0.0247
 1332ERGO    R216705   1.612  14.176   6.618  0.1536 -0.1247 -0.0590
 1332ERGO    R316706   1.778  14.355   6.738 -0.0144 -0.0002 -0.0054
 1332ERGO    R416707   1.676  14.189   6.957  0.1863 -0.2155 -0.0603
 1332ERGO    R516708   1.670  14.406   6.946 -0.0458 -0.2086  0.0370
 1332ERGO    C116709   1.869  14.364   7.268  0.0477 -0.1513 -0.0108
 1332ERGO    C216710   1.831  14.338   7.642  0.1992 -0.1610 -0.3096
 1333ERGO   ROH16711  12.984  17.541   6.277 -0.0107  0.1349 -0.1250
 1333ERGO    R116712  13.010  17.705   6.506 -0.1090  0.0273 -0.0356
 1333ERGO    R216713  12.865  17.662   6.738 -0.0155 -0.2416 -0.0257
 1333ERGO    R316714  13.112  17.662   6.852  0.0136 -0.0809 -0.0842
 1333ERGO    R416715  12.929  17.739   7.069  0.0091 -0.2483 -0.0282
 1333ERGO    R516716  13.107  17.848   7.004 -0.0844 -0.1079 -0.0536
 1333ERGO    C116717  13.197  17.784   7.369  0.0508 -0.1013 -0.0847
 1333ERGO    C216718  13.572  17.610   7.577  0.0598 -0.1624  0.2924
 1334ERGO   ROH16719  15.867   2.575   6.417 -0.1385  0.0055  0.0113
 1334ERGO    R116720  15.801   2.477   6.674 -0.0851 -0.0356  0.0097
 1334ERGO    R216721  15.992   2.383   6.850 -0.0563 -0.1530 -0.0796
 1334ERGO    R316722  15.879   2.564   7.019  0.0702 -0.1516  0.0044
 1334ERGO    R416723  16.065   2.412   7.187  0.1851 -0.1556 -0.1299
 1334ERGO    R516724  15.853   2.445   7.225  0.2146 -0.1498  0.0232
 1334ERGO    C116725  16.001   2.599   7.541  0.4447 -0.1558 -0.0802
 1334ERGO    C216726  16.226   2.476   7.878  0.0977 -0.2407 -0.1906
 1335ERGO   ROH16727  13.467   5.593   9.532  0.0998 -0.3318  0.1627
 1335ERGO    R116728  13.549   5.498   9.278  0.1386 -0.2259  0.1358
 1335ERGO    R216729  13.372   5.464   9.068  0.1406 -0.3036  0.1508
 1335ERGO    R316730  13.549   5.623   8.937  0.0195 -0.1581  0.1590
 1335ERGO    R416731  13.406   5.480   8.725 -0.0581 -0.0603  0.1388
 1335ERGO    R516732  13.622   5.490   8.751 -0.0427 -0.0130  0.0255
 1335ERGO    C116733  13.592   5.638   8.401 -0.2876  0.2180  0.1397
 1335ERGO    C216734  13.718   5.580   8.088  0.1364  0.1838 -0.0398
 1336ERGO   ROH16735  15.636  11.476  10.163 -0.1014 -0.1019 -0.2306
 1336ERGO    R116736  15.727  11.569   9.912 -0.1653 -0.1119 -0.2581
 1336ERGO    R216737  15.995  11.604   9.855 -0.1907  0.1975 -0.2171
 1336ERGO    R316738  15.937  11.443   9.643  0.0540  0.0143 -0.1481
 1336ERGO    R416739  16.121  11.643   9.535 -0.2675  0.2652 -0.2393
 1336ERGO    R516740  15.925  11.591   9.456 -0.1925 -0.0808 -0.2101
 1336ERGO    C116741  16.141  11.515   9.151 -0.0827  0.1327 -0.1875
 1336ERGO    C216742  16.220  11.434   8.847  0.2041 -0.1857 -0.0192
 1337ERGO   ROH16743   1.932  13.353   9.719 -0.1208  0.1181  0.0327
 1337ERGO    R116744   1.957  13.268   9.450 -0.1698  0.0828  0.0391
 1337ERGO    R216745   1.749  13.280   9.269 -0.1462  0.2468  0.0214
 1337ERGO    R316746   1.929  13.419   9.120 -0.0178  0.0911  0.0287
 1337ERGO    R416747   1.725  13.330   8.928 -0.0812  0.2520  0.0177
 1337ERGO    R516748   1.941  13.298   8.914 -0.1048  0.0708  0.0346
 1337ERGO    C116749   1.881  13.489   8.589  0.0772  0.1088  0.0225
 1337ERGO    C216750   1.786  13.499   8.305 -0.2781  0.0313 -0.0514
 1338ERGO   ROH16751   7.424   1.649   6.332 -0.0534  0.0805 -0.2349
 1338ERGO    R116752   7.444   1.699   6.610 -0.0984 -0.0000 -0.2181
 1338ERGO    R216753   7.544   1.936   6.711  0.0740 -0.1132 -0.1349
 1338ERGO    R316754   7.307   1.942   6.844  0.0368  0.0649 -0.2040
 1338ERGO    R416755   7.492   2.093   7.015  0.1286 -0.1365 -0.1121
 1338ERGO    R516756   7.368   1.924   7.075 -0.0425 -0.0459 -0.1876
 1338ERGO    C116757   7.239   2.190   7.316  0.1255  0.0171 -0.1636
 1338ERGO    C216758   7.048   2.186   7.659  0.0391 -0.1433 -0.0813
 1339ERGO   ROH16759  15.475   4.658   6.274  0.0060 -0.0533 -0.2586
 1339ERGO    R116760  15.479   4.641   6.556 -0.0224  0.1835 -0.2443
 1339ERGO    R216761  15.518   4.404   6.690 -0.3144  0.2532 -0.0450
 1339ERGO    R316762  15.718   4.542   6.812 -0.1489  0.1139 -0.1490
 1339ERGO    R416763  15.590   4.388   7.028 -0.2355  0.2904 -0.0578
 1339ERGO    R516764  15.625   4.603   7.025 -0.0390  0.2666 -0.1374
 1339ERGO    C116765  15.819   4.508   7.339 -0.0343  0.1814 -0.1629
 1339ERGO    C216766  15.824   4.530   7.667 -0.2877 -0.1798  0.0731
 1340ERGO   ROH16767   3.550   3.892   9.954  0.1168 -0.0708  0.0770
 1340ERGO    R116768   3.476   3.850   9.684  0.0738 -0.1164  0.0956
 1340ERGO    R216769   3.529   4.035   9.484 -0.0573 -0.0996  0.0747
 1340ERGO    R316770   3.648   3.822   9.364  0.0140 -0.0502  0.0576
 1340ERGO    R416771   3.580   4.002   9.144  0.0304 -0.0184  0.0797
 1340ERGO    R516772   3.526   3.792   9.161  0.0688 -0.0324  0.0223
 1340ERGO    C116773   3.722   3.783   8.833  0.1484  0.0751  0.0664
 1340ERGO    C216774   3.949   3.807   8.632 -0.1640  0.0055  0.4305
 1341ERGO   ROH16775   2.226  15.872   9.526 -0.1071 -0.0772 -0.0628
 1341ERGO    R116776   2.083  16.013   9.327 -0.0157  0.0706 -0.0249
 1341ERGO    R216777   2.197  16.215   9.177  0.1539 -0.0475 -0.0556
 1341ERGO    R316778   2.111  16.065   8.968 -0.0593  0.0401 -0.0332
 1341ERGO    R416779   2.159  16.330   8.853  0.0952  0.0217 -0.0241
 1341ERGO    R516780   1.975  16.214   8.839 -0.0046  0.1632  0.0467
 1341ERGO    C116781   2.055  16.256   8.469 -0.1389  0.1444  0.0153
 1341ERGO    C216782   2.213  16.309   8.125  0.1093 -0.1525  0.0678
 1342ERGO   ROH16783   7.927  11.621   9.395 -0.1191 -0.1814  0.0143
 1342ERGO    R116784   7.813  11.488   9.173 -0.1212 -0.1009 -0.0335
 1342ERGO    R216785   7.742  11.621   8.940 -0.0883 -0.0230  0.0007
 1342ERGO    R316786   7.901  11.433   8.824 -0.1050 -0.0087 -0.0445
 1342ERGO    R416787   7.729  11.530   8.607 -0.2724 -0.1190  0.0329
 1342ERGO    R516788   7.757  11.323   8.667 -0.1731 -0.0952  0.0756
 1342ERGO    C116789   7.870  11.302   8.304 -0.3952 -0.1617  0.0092
 1342ERGO    C216790   7.771  11.411   7.989  0.3008  0.0222 -0.1976
 1343ERGO   ROH16791  11.869   3.928   9.660 -0.0246  0.1719 -0.0564
 1343ERGO    R116792  11.883   3.772   9.424 -0.0258  0.1222 -0.0234
 1343ERGO    R216793  11.658   3.680   9.292 -0.0257  0.0669  0.0156
 1343ERGO    R316794  11.772   3.804   9.079 -0.0581  0.0341 -0.0214
 1343ERGO    R416795  11.636   3.571   8.965 -0.0318 -0.0104  0.0412
 1343ERGO    R516796  11.845   3.624   8.939 -0.0419  0.0130  0.0145
 1343ERGO    C116797  11.731   3.623   8.575 -0.0656 -0.0862  0.0214
 1343ERGO    C216798  11.458   3.540   8.379 -0.0634 -0.2501  0.3701
 1344ERGO   ROH16799  13.775  12.965   6.408 -0.0413  0.0781  0.0001
 1344ERGO    R116800  13.556  12.913   6.580 -0.0112 -0.0186  0.0114
 1344ERGO    R216801  13.530  13.035   6.828 -0.0681 -0.0056  0.0039
 1344ERGO    R316802  13.287  13.107   6.729 -0.1059 -0.1407 -0.0029
 1344ERGO    R416803  13.253  13.118   7.018 -0.0304  0.1568 -0.0112
 1344ERGO    R516804  13.129  13.009   6.878 -0.0531 -0.0038  0.1395
 1344ERGO    C116805  12.865  13.234   7.036 -0.0439  0.1245 -0.0265
 1344ERGO    C216806  12.735  13.533   7.223  0.1394  0.3318 -0.0038
 1345ERGO   ROH16807   7.907  10.804   9.971 -0.0005  0.0516  0.0309
 1345ERGO    R116808   7.976  10.693   9.719  0.0380  0.0658  0.0348
 1345ERGO    R216809   7.852  10.468   9.617 -0.0309  0.1421 -0.0516
 1345ERGO    R316810   7.808  10.630   9.403  0.1217  0.2029 -0.0379
 1345ERGO    R416811   7.833  10.362   9.289 -0.0268  0.2001 -0.0704
 1345ERGO    R516812   7.946  10.539   9.230  0.1023  0.1376 -0.0199
 1345ERGO    C116813   7.781  10.452   8.897  0.1189  0.2911 -0.0686
 1345ERGO    C216814   7.789  10.254   8.551 -0.0413 -0.0779  0.1670
 1346W        W16815  17.872   0.777  14.032  0.1320  0.0073 -0.1479
 1347W        W16816   6.277   0.591  12.880  0.0113  0.1487  0.0809
 1348W        W16817   5.360  10.831   2.665 -0.3284 -0.1239 -0.0886
 1349W        W16818   6.534   8.834   0.006 -0.1156 -0.1471  0.3771
 1350W        W16819  16.037   1.419   1.062  0.0487  0.1709  0.1654
 1351W        W16820   1.127  12.001  15.414 -0.0084  0.2770  0.0450
 1352W        W16821   9.707   5.830   2.150 -0.1272  0.0964  0.1874
 1353W        W16822   8.208   3.197   3.227 -0.1140 -0.0302  0.0936
 1354W        W16823  14.504   8.946   1.182  0.3010  0.0961  0.0030
 1355W        W16824  14.191  11.720  13.826 -0.1889 -0.0420 -0.0922
 1356W        W16825  15.689   8.060  15.810 -0.2939 -0.1235  0.0251
 1357W        W16826   1.136   2.582   2.422 -0.2379  0.2060 -0.2248
 1358W        W16827  14.129   7.277  15.995 -0.2601  0.4046  0.1050
 1359W        W16828   0.520   2.621  14.478 -0.2870 -0.1314  0.2867
 1360W        W16829   0.837  10.302   3.604 -0.0526  0.0040  0.0324
 1361W        W16830  17.053  17.297   3.939  0.2458  0.1444  0.2608
 1362W        W16831  12.833  13.880  12.089  0.2811  0.1523  0.1070
 1363W        W16832   3.510   9.201  11.535  0.1229  0.0453 -0.1249
 1364W        W16833  17.426   6.987   4.611  0.1625 -0.0209  0.2357
 1365W        W16834   9.558  10.975  14.684  0.0411 -0.2298  0.0928
 1366W        W16835  13.174  16.802   4.248 -0.2208 -0.1875 -0.4019
 1367W        W16836  10.292   6.271  12.988  0.0646  0.0439 -0.1004
 1368W        W16837  13.964  18.081   0.427 -0.1364  0.0702  0.1698
 1369W        W16838  17.370   2.467  13.390 -0.0799  0.3231  0.0400
 1370W        W16839  17.384   7.848   3.498  0.0115  0.0080 -0.2924
 1371W        W16840   1.215  17.018  12.366 -0.2850 -0.3672  0.1318
 1372W        W16841  15.190   2.909  12.957 -0.0633 -0.0004  0.1675
 1373W        W16842   6.673  16.467  12.358 -0.3127  0.1600 -0.2349
 1374W        W16843   7.975   5.299   0.163 -0.3410  0.3226 -0.0561
 1375W        W16844  13.658  13.063   1.621  0.1690 -0.4234 -0.2056
 1376W        W16845   4.937   2.929   0.344 -0.0911 -0.0506  0.3873
 1377W        W16846  14.112  14.210  11.659  0.0577 -0.2863 -0.4592
 1378W        W16847   2.287   4.642   2.307  0.0052 -0.0415  0.1993
 1379W        W16848  11.674   7.289  15.412  0.1545 -0.2366 -0.0247
 1380W        W16849   6.850  11.057  13.532 -0.2756 -0.1585 -0.0226
 1381W        W16850  13.369   0.581   1.839 -0.0706  0.2964  0.0012
 1382W        W16851   7.038   3.760   2.183 -0.1727  0.1899  0.1952
 1383W        W16852  13.988   7.351  12.195  0.0714 -0.3676 -0.2034
 1384W        W16853  13.589  12.641   2.096 -0.0560 -0.1273  0.1773
 1385W        W16854  15.338  11.572   5.514  0.0935 -0.1103 -0.0016
 1386W        W16855   4.486   0.642  11.719 -0.3153  0.3225  0.2204
 1387W        W16856  11.781   2.667  13.156  0.1936  0.1468 -0.0589
 1388W        W16857   5.879   6.671   1.198 -0.1177 -0.2177  0.1346
 1389W        W16858   8.119  17.474   1.205 -0.0132 -0.0707  0.0088
 1390W        W16859   7.426  11.861   5.301 -0.1144 -0.0740 -0.1699
 1391W        W16860  13.206   2.355   4.191  0.2214 -0.0315  0.1716
 1392W        W16861  17.923   9.551   3.855  0.2698 -0.1690  0.2338
 1393W        W16862  11.528  15.717   1.005 -0.2916 -0.2705 -0.0378
 1394W        W16863   8.681  15.843   3.087  0.0209 -0.2387 -0.1244
 1395W        W16864   3.309   4.732  12.029 -0.1004 -0.2953 -0.4287
 1396W        W16865  17.930  13.759  14.998 -0.0898 -0.1412 -0.2932
 1397W        W16866  16.592   9.862   3.292  0.0599 -0.2094 -0.1345
 1398W        W16867   0.289   8.234  15.347 -0.2779  0.0162 -0.1723
 1399W        W16868  15.604  15.110  11.370 -0.2901  0.0805  0.0827
 1400W        W16869  10.479   8.874   0.417 -0.0364  0.1356  0.0940
 1401W        W16870  10.776   8.214   4.063 -0.1069  0.1199  0.4409
 1402W        W16871  16.310  16.053   1.242  0.0569  0.0394 -0.5234
 1403W        W16872   6.695  13.040  11.615 -0.0301 -0.0046  0.4091
 1404W        W16873  12.142  16.005   3.662 -0.4050  0.2106  0.0068
 1405W        W16874   3.147  11.562  11.477  0.0442 -0.2418 -0.1944
 1406W        W16875   2.107  15.130  13.395 -0.1363  0.2051  0.0137
 1407W        W16876  11.669   6.783  15.743  0.3161  0.2698 -0.2324
 1408W        W16877   0.926  11.397   0.749  0.2963 -0.0502  0.0513
 1409W        W16878  10.531   8.573   3.099  0.1258  0.2445 -0.0322
 1410W        W16879   2.796   9.788  14.606  0.1580  0.2353  0.1756
 1411W        W16880   5.042   9.548   4.404 -0.1049 -0.1897 -0.0246
 1412W        W16881   5.828   0.008   5.167 -0.1380  0.2899 -0.2543
 1413W        W16882  15.204   0.020  12.752 -0.2145 -0.0323 -0.1423
 1414W        W16883  11.098   5.178   3.122 -0.0157 -0.1179  0.0506
 1415W        W16884  10.012  10.372  14.319  0.0640 -0.1539 -0.1187
 1416W        W16885   3.090   5.046   2.337  0.0178  0.1106  0.1199
 1417W        W16886   9.268   3.902  11.832 -0.0723  0.0419 -0.2453
 1418W        W16887   9.237   3.622   0.429 -0.1811 -0.1491  0.1310
 1419W        W16888   3.956  10.291  11.336 -0.1142 -0.0159  0.0947
 1420W        W16889   7.102   8.865  13.750 -0.3934 -0.1414 -0.1902
 1421W        W16890  17.434  16.994   0.717 -0.0070  0.2484 -0.0855
 1422W        W16891   6.508  16.369   4.183  0.3088 -0.1727 -0.0246
 1423W        W16892   1.860   1.615   4.259 -0.0059 -0.1080 -0.0207
 1424W        W16893   3.535   3.951  15.199  0.1219 -0.1596 -0.1800
 1425W        W16894   2.396   8.284   0.727  0.0133 -0.1449  0.0040
 1426W        W16895   0.826   0.961   5.925  0.3402  0.0260  0.0360
 1427W        W16896  16.483   1.093   4.147  0.0117  0.0633 -0.4051
 1428W        W16897   0.702   0.045  14.220 -0.0113 -0.1010  0.1859
 1429W        W16898  15.204   6.719  14.079 -0.3800 -0.0405  0.0828
 1430W        W16899  12.664   0.869   1.828 -0.1972  0.1313  0.1904
 1431W        W16900  14.691  10.916  13.615  0.0434 -0.3244  0.3296
 1432W        W16901  13.451  12.580  15.765 -0.1013 -0.0455  0.3209
 1433W        W16902   5.273   2.769   4.840 -0.0622  0.1601 -0.0390
 1434W        W16903   3.542   2.166  15.198  0.2615 -0.1685  0.0510
 1435W        W16904  14.799   2.859   1.757 -0.0241  0.0834  0.1503
 1436W        W16905   8.737   8.307   2.453 -0.2529 -0.1430 -0.2839
 1437W        W16906   2.348  12.671   4.519  0.1626 -0.1840 -0.0664
 1438W        W16907  10.130   0.410   1.614  0.2116  0.0908 -0.0655
 1439W        W16908   4.171  10.222  15.160  0.2495  0.2322  0.2081
 1440W        W16909  11.043  10.761  10.817  0.2038  0.2575 -0.1371
 1441W        W16910   9.241  15.508  10.574 -0.0491 -0.0547 -0.0250
 1442W        W16911  16.610  10.503   0.414  0.0639  0.2650 -0.0464
 1443W        W16912  10.929   6.524  14.411  0.1851  0.1360  0.4664
 1444W        W16913  15.623  15.636   5.398 -0.0701  0.0886 -0.2034
 1445W        W16914   2.604   1.870  15.016  0.2325 -0.3724 -0.0702
 1446W        W16915  13.228   6.013   2.346  0.1047 -0.1337 -0.4119
 1447W        W16916   3.998  17.415  14.700  0.0927 -0.1071  0.2750
 1448W        W16917  15.313  17.392   3.437  0.0957 -0.3740  0.0963
 1449W        W16918   0.510  14.996   0.676 -0.4704  0.0894  0.0844
 1450W        W16919   1.145  15.718   3.048 -0.2195 -0.0696 -0.0305
 1451W        W16920  15.113   9.683   3.774 -0.1400 -0.0110  0.0043
 1452W        W16921   4.173   3.455   4.657 -0.0939  0.2818  0.3146
 1453W        W16922  11.236   0.966  14.345 -0.1219 -0.0542  0.1119
 1454W        W16923  11.739   3.602   4.897 -0.1972 -0.1525  0.0256
 1455W        W16924  10.103  11.541  11.381  0.1343  0.1100  0.0073
 1456W        W16925  13.148   2.234   4.859  0.0103 -0.3864 -0.0998
 1457W        W16926  16.616  13.889   5.614 -0.0716  0.0595  0.0336
 1458W        W16927  15.084   6.749  11.873  0.0592  0.4243  0.2069
 1459W        W16928  11.038  16.009   1.014 -0.0108  0.0712  0.0242
 1460W        W16929  10.131   2.970  13.237 -0.1131  0.0521 -0.3433
 1461W        W16930   1.744   7.965  14.360 -0.0690  0.1400  0.0267
 1462W        W16931   8.255  12.028  15.064 -0.0768  0.2063  0.2590
 1463W        W16932   0.377   9.212   0.874  0.1073  0.2334 -0.0407
 1464W        W16933  15.218   4.000  14.877 -0.0763 -0.6091 -0.1162
 1465W        W16934   1.168   0.639  15.371 -0.0724 -0.1245  0.1618
 1466W        W16935   3.616  17.957  12.986  0.1955 -0.0007 -0.1415
 1467W        W16936   9.664   6.262   0.527  0.2239  0.1786  0.0741
 1468W        W16937  17.688   3.179   2.059 -0.0969  0.1539  0.1110
 1469W        W16938   9.589   8.932  16.166 -0.0264  0.1358 -0.1397
 1470W        W16939  16.383   0.860  12.840 -0.2809 -0.1393  0.2085
 1471W        W16940  17.343   2.196  16.174 -0.2023 -0.2058  0.1628
 1472W        W16941  11.448  13.541  14.324 -0.2119 -0.2563 -0.0081
 1473W        W16942   4.632   7.518  15.012  0.1456  0.3880 -0.3552
 1474W        W16943   7.653  13.864   2.222 -0.2114  0.0224 -0.0938
 1475W        W16944   0.723   8.787  14.293  0.1026  0.0754 -0.0152
 1476W        W16945  11.488  16.212   0.436 -0.3450  0.2999 -0.2086
 1477W        W16946   0.399  14.306  11.982 -0.0358 -0.4046  0.0438
 1478W        W16947   6.495  11.534   0.304 -0.1542  0.1903 -0.5599
 1479W        W16948   3.261  10.781   2.526 -0.1521  0.1038 -0.1466
 1480W        W16949   5.431   2.558   1.655  0.2108 -0.2338  0.1235
 1481W        W16950   3.843  11.161  15.092  0.2110 -0.0580 -0.0099
 1482W        W16951  18.142  16.812  11.328 -0.1393  0.3546  0.0109
 1483W        W16952   6.470  14.628  11.784  0.0148  0.2132  0.1682
 1484W        W16953   0.021   3.705   2.404  0.0049 -0.0682  0.2418
 1485W        W16954   3.983  16.449   0.367 -0.0973  0.1099  0.2499
 1486W        W16955   6.651   4.204  15.182  0.1972 -0.0955  0.3322
 1487W        W16956  17.323   9.242  10.855 -0.0216  0.1375  0.1465
 1488W        W16957   4.339  13.081  11.730 -0.1424 -0.3088  0.0459
 1489W        W16958  10.459  17.283   2.299 -0.2681 -0.0357 -0.0046
 1490W        W16959  17.192  12.016  13.611  0.1209  0.2208 -0.0800
 1491W        W16960   8.461  16.191   2.652  0.0021 -0.2352  0.3377
 1492W        W16961   9.281  17.368   2.464 -0.0262 -0.1546 -0.0568
 1493W        W16962   7.230   2.009  11.072  0.0531  0.1107  0.0159
 1494W        W16963  10.598   8.431   0.189  0.0335  0.2431 -0.0113
 1495W        W16964  17.293  16.194   2.113  0.0626 -0.0923 -0.1390
 1496W        W16965   4.033   0.257   2.046  0.1076  0.3998  0.0327
 1497W        W16966   9.834   5.103  14.301 -0.1882  0.2410 -0.0021
 1498W        W16967   1.089  11.885   1.363 -0.0266 -0.0122 -0.1367
 1499W        W16968   3.020   2.967   3.979 -0.3571  0.1616 -0.1616
 1500W        W16969  14.758   0.119  14.076  0.1934 -0.2357 -0.0291
 1501W        W16970   7.790   5.993   2.189  0.0801 -0.2454  0.0932
 1502W        W16971  10.892   8.788  13.768 -0.0997  0.0011 -0.3791
 1503W        W16972  17.823   6.918  15.400 -0.2446  0.0538  0.0034
 1504W        W16973   1.331  13.698  13.859 -0.2587  0.0738  0.3163
 1505W        W16974   0.159  10.475   1.465  0.1582 -0.0610  0.0681
 1506W        W16975   6.420   2.695   5.361  0.1123  0.0373 -0.2746
 1507W        W16976   4.578  13.281  15.297 -0.1185  0.3028  0.0874
 1508W        W16977  16.260  13.538  14.992 -0.2433 -0.0652 -0.3713
 1509W        W16978  14.794  13.995   4.695 -0.2578 -0.0347  0.1800
 1510W        W16979   0.511   6.248   4.436  0.2531 -0.0173 -0.2173
 1511W        W16980   6.513  15.180  15.915  0.1535 -0.2287 -0.2174
 1512W        W16981   9.106   1.837   2.432  0.0158  0.1097  0.0896
 1513W        W16982   3.808  15.209   1.946 -0.0748  0.0796 -0.0323
 1514W        W16983   8.294   0.872  14.111  0.2359  0.1531 -0.2506
 1515W        W16984   5.574   8.188   5.561  0.1741 -0.0485 -0.4548
 1516W        W16985   0.421  15.781   4.097 -0.1793  0.2167  0.0003
 1517W        W16986  10.017   6.860   4.848  0.0736 -0.1803  0.3208
 1518W        W16987   8.305  14.433  15.981  0.0046  0.3877 -0.3314
 1519W        W16988  10.089   2.653  12.401 -0.0750 -0.1934 -0.0463
 1520W        W16989   0.767  14.689   1.832 -0.1233 -0.1131 -0.2077
 1521W        W16990   6.623  12.481  15.490 -0.1634  0.0447 -0.0640
 1522W        W16991   3.247   1.685   0.327 -0.2535 -0.1302 -0.1063
 1523W        W16992   3.511   5.480  12.738  0.1517  0.1623 -0.0807
 1524W        W16993  17.945   5.784  10.167  0.0846 -0.3226  0.2482
 1525W        W16994  12.261   8.916  12.048  0.1291 -0.1521 -0.0576
 1526W        W16995  14.541   8.471   1.215  0.2107  0.0407  0.0996
 1527W        W16996  16.251  12.245  15.947 -0.1339 -0.0722  0.4478
 1528W        W16997   5.861  12.416   0.508  0.1143 -0.2607 -0.2198
 1529W        W16998  14.516   8.331  12.980  0.0703  0.0259  0.0246
 1530W        W16999   7.048   1.355  12.522  0.0079 -0.0311  0.1668
 1531W        W17000   4.380  16.566   3.873  0.1595  0.2520  0.1582
 1532W        W17001   1.249  18.172  15.879  0.0483  0.2696 -0.1443
 1533W        W17002  14.099   0.692   3.606  0.1647 -0.2102 -0.3835
 1534W        W17003   9.737  12.284   1.249 -0.0323 -0.1377  0.2004
 1535W        W17004  12.551   0.748  13.577 -0.3163  0.2893 -0.2705
 1536W        W17005  15.092   2.937  12.229 -0.2475 -0.1191 -0.1036
 1537W        W17006   1.294   4.870   0.394 -0.3227 -0.1161  0.0429
 1538W        W17007  14.212  18.096   0.888 -0.3644 -0.1915  0.0547
 1539W        W17008  14.577   3.626   5.821 -0.3993 -0.1087 -0.0301
 1540W        W17009   4.898   1.854   2.981 -0.3507  0.1096  0.1152
 1541W        W17010   1.553   1.859   6.127 -0.3642  0.1479 -0.1488
 1542W        W17011   7.678   8.459   2.902 -0.2908  0.1225  0.1842
 1543W        W17012  10.482  17.506   1.852 -0.0387 -0.1339  0.0633
 1544W        W17013   3.050   8.542  14.759 -0.0083 -0.1315  0.1772
 1545W        W17014   8.900  12.392  14.506  0.1007 -0.1680  0.0092
 1546W        W17015  14.237   4.984   0.770  0.2511 -0.0488 -0.0343
 1547W        W17016  15.529   2.594   0.328 -0.2370 -0.0434  0.2173
 1548W        W17017   9.114   7.529  13.357 -0.1115 -0.1303  0.1631
 1549W        W17018  12.527  10.278   9.830 -0.3056  0.0508  0.2253
 1550W        W17019  16.134  14.823   0.639 -0.2807 -0.1922  0.2315
 1551W        W17020   5.133  14.284   3.432  0.1294 -0.1956 -0.4617
 1552W        W17021   2.902  10.756   1.602  0.2807  0.0185  0.0947
 1553W        W17022   1.175  12.149   3.836 -0.1307 -0.0426 -0.0107
 1554W        W17023   4.506   9.219   1.927  0.0422 -0.0556  0.0198
 1555W        W17024   4.010  11.226   1.092 -0.0882  0.0145 -0.0287
 1556W        W17025   3.697   3.681  10.863 -0.1885  0.2636  0.1193
 1557W        W17026   2.611  10.206   2.193 -0.0793 -0.0602  0.3682
 1558W        W17027   8.193  10.307  13.636  0.0714  0.1279 -0.1310
 1559W        W17028  16.248   1.894  12.693 -0.0603  0.2664 -0.4812
 1560W        W17029  14.614  15.590   1.652  0.2699  0.2089 -0.0910
 1561W        W17030   1.982   4.305   4.072  0.3087 -0.1541  0.6098
 1562W        W17031  13.922  16.466   1.286 -0.1881  0.0640  0.0298
 1563W        W17032  11.916   5.066  13.280 -0.0315 -0.0759  0.0293
 1564W        W17033   4.378   3.445   1.787 -0.1060  0.0091  0.1651
 1565W        W17034   3.932   6.380  14.506 -0.2543  0.1254 -0.1330
 1566W        W17035   2.042  15.038   2.452  0.2008  0.2570 -0.1782
 1567W        W17036  12.958   1.987  11.750  0.2584 -0.1444 -0.0694
 1568W        W17037   8.774   3.317  15.825  0.1887 -0.1854  0.0024
 1569W        W17038   1.143  17.221   4.767 -0.0131  0.2147  0.1576
 1570W        W17039   5.906  11.141  15.375  0.3428  0.0503 -0.0361
 1571W        W17040   4.448   3.050   4.480  0.3155 -0.3635  0.0031
 1572W        W17041  13.527  14.764  12.176 -0.2771 -0.3434 -0.0553
 1573W        W17042  13.384   9.362   1.249 -0.0932 -0.2324  0.1963
 1574W        W17043   7.420  10.225   5.240  0.4018  0.2239 -0.1002
 1575W        W17044  12.787   3.421  11.296  0.1299 -0.0006 -0.1970
 1576W        W17045   7.728  18.113   3.406 -0.0156 -0.0944 -0.0673
 1577W        W17046   9.454  12.044   3.038 -0.3023  0.0678  0.1020
 1578W        W17047   9.311  12.749   3.474  0.0639  0.2741  0.0420
 1579W        W17048  10.234  10.345   2.673 -0.0777 -0.0579 -0.0691
 1580W        W17049  14.328  15.055   3.798 -0.0641  0.0693  0.1760
 1581W        W17050   5.595   1.351   3.871  0.0997  0.1234  0.1089
 1582W        W17051   7.477  13.741  13.716 -0.0861  0.2590 -0.0198
 1583W        W17052   9.582   4.084   5.324  0.1037 -0.0847  0.2654
 1584W        W17053   9.037   0.071  12.561  0.2927  0.2985  0.0028
 1585W        W17054   7.399   8.996   3.357  0.0455  0.1517 -0.3251
 1586W        W17055   3.861  12.116  15.339 -0.0861 -0.1524 -0.0963
 1587W        W17056  14.832  16.879   2.778  0.1886  0.0649 -0.0094
 1588W        W17057   8.287  12.326   4.597  0.1081  0.1269 -0.2360
 1589W        W17058  13.238   7.042   5.292 -0.0464 -0.1314  0.2509
 1590W        W17059   3.917   2.825  12.497  0.0787 -0.1768  0.0321
 1591W        W17060   8.973  17.239  14.802 -0.2254 -0.0967  0.0717
 1592W        W17061   6.143   3.377   2.851 -0.1570  0.1060  0.3810
 1593W        W17062  12.515   2.182   1.915  0.0425 -0.1810  0.2942
 1594W        W17063   4.692   4.251   4.546 -0.2369  0.1063  0.2032
 1595W        W17064  17.542   6.890   9.973 -0.0726  0.1494  0.1711
 1596W        W17065   1.478  10.073   1.947 -0.0731 -0.0896  0.1195
 1597W        W17066   3.695  14.871   0.797 -0.0992 -0.1551  0.0775
 1598W        W17067   4.817   5.837  11.934 -0.1108 -0.2369  0.2336
 1599W        W17068   2.181   4.014   0.859 -0.2510  0.2069  0.1491
 1600W        W17069  18.119   2.701  11.328  0.0043  0.1031  0.2571
 1601W        W17070  13.293   0.281   3.680 -0.3740  0.0404 -0.1039
 1602W        W17071  11.345   0.643  14.689 -0.1132  0.0927 -0.2052
 1603W        W17072   4.665  15.024   2.867 -0.1052 -0.1484 -0.5062
 1604W        W17073   6.038   6.412  13.520  0.1180 -0.0010 -0.1620
 1605W        W17074   9.536   5.125  15.625  0.0765  0.1458 -0.1759
 1606W        W17075  16.071   4.181   2.132 -0.1638  0.0766 -0.3510
 1607W        W17076  18.084  16.655   2.323 -0.0733  0.0639  0.1507
 1608W        W17077  15.531  13.831  13.287  0.1527  0.1185 -0.0828
 1609W        W17078   6.827  10.570  13.748 -0.2713  0.0238 -0.4208
 1610W        W17079  14.666  18.117  12.607  0.0215 -0.1372  0.0920
 1611W        W17080  11.580  14.507   4.219  0.0622 -0.0680  0.3259
 1612W        W17081  13.210   6.144   0.757 -0.0166  0.0878 -0.2154
 1613W        W17082   2.574  17.109   4.027 -0.0954  0.2295 -0.3410
 1614W        W17083   3.364  17.433   5.175  0.1823 -0.0223 -0.0369
 1615W        W17084   8.538   2.139   5.090 -0.1114  0.0169  0.1094
 1616W        W17085  12.924   9.486  14.965 -0.1389  0.1958 -0.0449
 1617W        W17086   5.296   1.211  11.998 -0.0453 -0.0495 -0.0567
 1618W        W17087   3.213   8.246  16.136  0.2117 -0.1966  0.2809
 1619W        W17088  15.702  12.434  15.818 -0.0756  0.0289 -0.3223
 1620W        W17089  18.234  11.563  13.477 -0.1916  0.1219 -0.1173
 1621W        W17090  10.664   5.655   2.805 -0.0907  0.0108 -0.3940
 1622W        W17091  15.869   8.770   3.689  0.0299 -0.0968  0.1544
 1623W        W17092  18.150   8.855   3.008  0.0832  0.1032 -0.1024
 1624W        W17093   8.633  11.916  14.240 -0.0632  0.0088  0.0293
 1625W        W17094   8.375   2.441  13.899  0.2594 -0.3291 -0.2235
 1626W        W17095  14.189   3.886   5.786  0.0827  0.1009  0.2316
 1627W        W17096   6.018   6.519   0.401  0.0094  0.0198 -0.0420
 1628W        W17097   2.704  16.656  11.802  0.1847 -0.2584 -0.1935
 1629W        W17098  13.122   4.745  11.136 -0.2623 -0.0728 -0.2251
 1630W        W17099  13.617  16.149  15.214  0.0550  0.2020 -0.2814
 1631W        W17100  13.300  11.065   3.025  0.2126  0.0505  0.2261
 1632W        W17101   9.592   9.106   5.576 -0.1920  0.3010 -0.0502
 1633W        W17102  17.637   8.013  13.376 -0.1356 -0.1801  0.0061
 1634W        W17103  14.771  18.169   0.864  0.0019 -0.1257 -0.1021
 1635W        W17104   6.141  12.451  15.638  0.1099  0.1775  0.0755
 1636W        W17105   5.665   0.576   4.372 -0.1341  0.3214 -0.0325
 1637W        W17106  14.631   3.819   2.023  0.3300  0.1792 -0.1796
 1638W        W17107  11.129  12.650  15.484 -0.1079 -0.0609 -0.0198
 1639W        W17108   3.277   1.125  11.146 -0.3015 -0.0930  0.1903
 1640W        W17109  10.763   1.508  15.232 -0.1672 -0.3137  0.0986
 1641W        W17110  13.496   7.880  15.857  0.1606 -0.0122  0.0611
 1642W        W17111  12.365  16.947  12.271 -0.0607 -0.0293 -0.1893
 1643W        W17112   0.024   6.317  11.846  0.0372 -0.0763 -0.1159
 1644W        W17113  10.122  17.673   0.455  0.0474  0.0591 -0.1082
 1645W        W17114   2.566  16.266  11.097  0.0522 -0.0316 -0.2207
 1646W        W17115   3.553  10.144  11.639 -0.0792 -0.1409 -0.0573
 1647W        W17116  14.692   0.383   2.639 -0.0294  0.1043  0.3285
 1648W        W17117   8.558  17.900   0.141  0.4182 -0.0758 -0.1178
 1649W        W17118  16.597   0.381   5.018  0.0729 -0.2356 -0.0753
 1650W        W17119   0.793  10.466   4.659  0.0268  0.0582 -0.0718
 1651W        W17120  17.522   5.563  14.674 -0.0110 -0.2446 -0.4744
 1652W        W17121   8.054   8.785   0.569  0.0202  0.0897  0.1635
 1653W        W17122  15.953  15.303   1.390 -0.1150 -0.2306  0.0126
 1654W        W17123  15.165   4.356   0.405  0.0828  0.2650  0.1642
 1655W        W17124   1.313  15.956   3.962  0.1295  0.3275  0.1544
 1656W        W17125  10.532   7.928  15.778 -0.3733  0.1884 -0.0365
 1657W        W17126  16.381   2.183   4.028  0.2803  0.0256 -0.2345
 1658W        W17127   6.712   2.966   1.244  0.2521 -0.1031 -0.1713
 1659W        W17128   5.193   1.648   1.599 -0.0187 -0.2779 -0.1111
 1660W        W17129  14.737   0.853   2.435 -0.1044 -0.1602 -0.1858
 1661W        W17130  10.024   1.946  13.330 -0.0337 -0.2128  0.0898
 1662W        W17131   8.337   5.503   6.292 -0.0766  0.1267  0.1440
 1663W        W17132   6.741  17.889   2.338  0.0587 -0.2379 -0.2328
 1664W        W17133  16.290   9.661  11.185  0.0703 -0.2014  0.0428
 1665W        W17134   4.351  13.383  11.336 -0.2540 -0.3649 -0.1374
 1666W        W17135  15.470   4.671   3.082  0.1278  0.0390  0.1480
 1667W        W17136   8.563  18.224   4.995 -0.3382  0.2735 -0.1057
 1668W        W17137   0.128   4.084   1.450  0.0712 -0.0542  0.1298
 1669W        W17138  16.549  11.197   4.821  0.1456  0.0609  0.3752
 1670W        W17139  15.823  16.233   1.095 -0.2013  0.0338 -0.0829
 1671W        W17140  16.898   8.012   5.736 -0.1304  0.0842 -0.1383
 1672W        W17141   5.419  11.284   0.833 -0.2448 -0.0625  0.1050
 1673W        W17142  12.717  10.232  14.931  0.1695  0.4147 -0.1090
 1674W        W17143  17.938   5.904   0.587  0.3601  0.2960  0.0576
 1675W        W17144   1.575   9.643  13.391  0.0611 -0.1183  0.2973
 1676W        W17145  12.229  11.836  11.217 -0.2041  0.0363  0.0711
 1677W        W17146  14.044   7.765  15.176 -0.1908  0.0742  0.1608
 1678W        W17147  17.517   3.953  13.664 -0.2428  0.3074  0.3874
 1679W        W17148  15.906   2.905  12.968 -0.1244 -0.0887  0.0574
 1680W        W17149   0.299  16.165  12.802 -0.2186 -0.3367 -0.1059
 1681W        W17150   4.900  17.638  14.025 -0.1023  0.2402  0.2458
 1682W        W17151   9.578  11.059   5.393  0.0489  0.0097  0.1305
 1683W        W17152   9.334  11.506   3.034  0.4772 -0.1440 -0.1406
 1684W        W17153   2.760  10.324   0.843  0.2335  0.0459  0.1248
 1685W        W17154   4.529  11.481   0.487  0.0246  0.0377 -0.0666
 1686W        W17155   0.039   5.144   2.338  0.2419 -0.1534 -0.1784
 1687W        W17156   3.998  16.222  11.747 -0.1670  0.0722 -0.0987
 1688W        W17157  10.541  14.910   4.627 -0.0499 -0.0133  0.0936
 1689W        W17158  16.232   1.317   5.876 -0.1609 -0.0610 -0.0267
 1690W        W17159  13.611   0.468  14.594  0.2423  0.0255 -0.0531
 1691W        W17160  13.489   1.192   4.417  0.2241 -0.0016  0.0457
 1692W        W17161   3.585  10.472   3.610  0.0629  0.1236  0.3578
 1693W        W17162  14.564   5.848  10.922  0.2336 -0.2950  0.0649
 1694W        W17163   6.484   8.885  15.629  0.3663  0.1639 -0.0076
 1695W        W17164   7.083  12.108   3.509 -0.2593 -0.1371  0.3141
 1696W        W17165   1.523   7.892   4.018 -0.1282 -0.0927 -0.0509
 1697W        W17166   4.313   5.763  12.440  0.2123 -0.0545 -0.0528
 1698W        W17167  17.249  12.162  11.966  0.1042  0.3442  0.2491
 1699W        W17168   4.591   6.313   3.284 -0.1450  0.1437 -0.0541
 1700W        W17169   7.742   5.929   1.689  0.0246  0.1269  0.0314
 1701W        W17170   2.414   5.614   3.588  0.0639  0.0734 -0.0115
 1702W        W17171   8.277   0.447   2.111 -0.0652  0.3234  0.3856
 1703W        W17172   8.404  15.992   3.449  0.0026 -0.1765 -0.2271
 1704W        W17173   8.406   1.414   1.839 -0.0805 -0.1047  0.4513
 1705W        W17174   7.839   6.506  15.248 -0.0883 -0.2884 -0.0495
 1706W        W17175   4.019  17.872   3.029  0.0229  0.0540 -0.1219
 1707W        W17176   8.303   8.754   5.779 -0.0503  0.4212  0.2659
 1708W        W17177   7.746  13.487  14.948 -0.0764  0.0037 -0.0275
 1709W        W17178   1.338   6.091  11.604  0.1964  0.1870 -0.0028
 1710W        W17179  12.486   8.967   1.437 -0.2530 -0.1802  0.1202
 1711W        W17180  14.899   3.185   0.321 -0.1904  0.1708 -0.1758
 1712W        W17181  16.596   1.038  11.010 -0.1894  0.0493 -0.1701
 1713W        W17182  10.252  16.071  11.305 -0.0498  0.3224  0.1078
 1714W        W17183  17.328   7.893  15.765 -0.4349 -0.3091 -0.3219
 1715W        W17184  16.111   0.467   4.827 -0.2372 -0.0365  0.0823
 1716W        W17185   3.187   7.723  14.241  0.2557  0.0506  0.0080
 1717W        W17186  13.045  13.476  11.929  0.0173 -0.0706  0.1777
 1718W        W17187  13.499   2.041   3.611  0.1111 -0.0770 -0.0334
 1719W        W17188  11.535  18.126  11.759  0.0529  0.0235  0.0737
 1720W        W17189  16.235  12.677  15.015 -0.2015  0.1729  0.2260
 1721W        W17190  17.732   6.223  13.616 -0.0939  0.3604  0.3134
 1722W        W17191  14.268  18.194  14.300  0.0497 -0.2055 -0.0315
 1723W        W17192  11.865   9.636  15.588  0.2002  0.1998  0.2690
 1724W        W17193   3.192  10.724  15.503 -0.0080  0.0826  0.2216
 1725W        W17194   1.048   2.561  13.720 -0.0435 -0.0136  0.2807
 1726W        W17195  15.825  11.977   4.999  0.1205 -0.0264 -0.2040
 1727W        W17196   5.483   7.474   0.092  0.2736 -0.0836  0.0103
 1728W        W17197  11.724  11.517   1.581  0.0968  0.0824  0.1547
 1729W        W17198   4.581  11.244   2.453 -0.0140  0.1731 -0.0933
 1730W        W17199   8.324   1.427  11.632 -0.2050 -0.0716  0.0863
 1731W        W17200  12.956   1.272   4.387 -0.1546 -0.0124  0.1429
 1732W        W17201   8.195  18.041   2.903  0.0155  0.3135  0.0604
 1733W        W17202  10.095   2.062   3.597 -0.2816  0.1058  0.3011
 1734W        W17203  11.486   5.814   5.700  0.1359 -0.0181  0.3226
 1735W        W17204   8.924   6.790   0.228 -0.0009  0.0699  0.0254
 1736W        W17205   8.529  10.599  11.171  0.1387  0.0528 -0.0770
 1737W        W17206   7.121   8.175  13.806 -0.2861 -0.3007  0.0773
 1738W        W17207   9.276  18.265   1.297  0.1052 -0.2369  0.3207
 1739W        W17208   3.997   7.973  15.521 -0.1263 -0.0162 -0.0700
 1740W        W17209  14.165  17.464   0.285 -0.0238  0.1634  0.3704
 1741W        W17210   0.992   5.777   0.786  0.1961 -0.0517 -0.0488
 1742W        W17211   3.511   4.984  14.312  0.2745 -0.1818  0.1838
 1743W        W17212  13.849   1.007   4.010 -0.0174 -0.2299  0.0068
 1744W        W17213   0.593  14.019   0.113 -0.1622  0.1967  0.1268
 1745W        W17214  15.983  11.466  13.332 -0.1914 -0.2058 -0.5073
 1746W        W17215  11.054   7.423  13.380  0.4539 -0.0796 -0.0053
 1747W        W17216  16.226   7.759  12.305  0.0873 -0.0259 -0.1408
 1748W        W17217   6.666   2.677  13.295 -0.1655 -0.1216  0.1404
 1749W        W17218   8.206   9.632  12.347 -0.3404  0.0346  0.1393
 1750W        W17219  12.731   9.724   4.271  0.2017 -0.1441 -0.1111
 1751W        W17220   3.997   4.473   0.652 -0.1202  0.1348 -0.0269
 1752W        W17221   5.186  13.562  15.566 -0.2441  0.0043 -0.0023
 1753W        W17222  13.291   2.564  14.471  0.0418 -0.1980  0.0587
 1754W        W17223   0.382  15.815   4.585 -0.2659 -0.1710 -0.1044
 1755W        W17224   8.961   9.340   3.226  0.0708 -0.0727 -0.1045
 1756W        W17225   2.286  11.551   0.694 -0.0709 -0.2253  0.1107
 1757W        W17226   5.819  17.668  10.961  0.2811  0.0403 -0.0839
 1758W        W17227  13.851   0.960   0.345  0.0102 -0.0175 -0.3647
 1759W        W17228  12.907   6.446   4.052 -0.0934 -0.1542 -0.1123
 1760W        W17229   9.993   1.075  14.960  0.0611  0.2048 -0.1676
 1761W        W17230  12.353   1.004  11.968 -0.1151 -0.2167 -0.1748
 1762W        W17231  16.698  17.961  10.272  0.0193 -0.4626 -0.1023
 1763W        W17232  16.705  14.933   0.791  0.0028 -0.0899  0.1696
 1764W        W17233   6.585  12.568   1.232 -0.0855 -0.2578 -0.2282
 1765W        W17234   6.842   6.645   4.799 -0.0454 -0.1417 -0.0609
 1766W        W17235  10.399   9.036  15.564  0.1453 -0.4047 -0.0437
 1767W        W17236  13.537   1.336  14.423  0.3011 -0.0758  0.0632
 1768W        W17237  16.858   2.457  13.296  0.2264 -0.0404 -0.1960
 1769W        W17238   5.479  10.465   0.631  0.1996  0.2168 -0.1602
 1770W        W17239   7.196   5.518   3.252  0.1588  0.2015 -0.1603
 1771W        W17240  13.302  14.362   1.584 -0.0900  0.0633 -0.1917
 1772W        W17241  17.548   8.340   0.294  0.0033 -0.1182 -0.1473
 1773W        W17242   6.779  13.506   4.543  0.1514  0.0762 -0.1076
 1774W        W17243   7.492  12.376  11.510  0.0171 -0.1293 -0.0474
 1775W        W17244   2.486  15.873   1.397 -0.1569 -0.1044  0.0783
 1776W        W17245  10.214   4.122  11.617 -0.0159 -0.2768 -0.1106
 1777W        W17246  16.431  16.976  13.059  0.1559 -0.1735  0.0053
 1778W        W17247  14.285   5.943   3.863  0.1405  0.0711 -0.2278
 1779W        W17248   6.838   6.083   5.553 -0.1314 -0.3541 -0.0094
 1780W        W17249  14.625   8.045  14.522  0.2880 -0.1097  0.2416
 1781W        W17250  12.980   0.317   4.712  0.0468  0.0668 -0.2474
 1782W        W17251  15.341   6.095  15.170  0.1932  0.0067 -0.1424
 1783W        W17252  17.209   4.146  11.175 -0.0832 -0.1153  0.2839
 1784W        W17253   3.356  14.366   1.915 -0.1331 -0.4757  0.0644
 1785W        W17254  14.297   6.577   4.538 -0.1371 -0.1826  0.0470
 1786W        W17255  13.853   5.871  15.181 -0.1100 -0.0211 -0.2927
 1787W        W17256   2.236  17.999  12.113 -0.0032  0.5425 -0.2718
 1788W        W17257  17.740   7.827  15.104  0.1307  0.2928 -0.3480
 1789W        W17258  15.745   4.628   1.558  0.2274  0.0364 -0.0126
 1790W        W17259  16.598   5.640  12.526  0.1401  0.2124  0.0263
 1791W        W17260   9.050  14.069   4.854 -0.0409 -0.0964 -0.0165
 1792W        W17261   6.336   2.876   2.794 -0.2709  0.2822 -0.1466
 1793W        W17262   3.361   0.526  12.542 -0.1885 -0.1833  0.1515
 1794W        W17263  14.343   9.683  13.290  0.3364 -0.2295  0.0069
 1795W        W17264   4.859   3.221  14.235 -0.0918  0.0130 -0.0076
 1796W        W17265  17.457  13.682  15.822  0.0071 -0.1226 -0.0383
 1797W        W17266  15.652  17.374   1.810 -0.1603 -0.1741 -0.0098
 1798W        W17267   0.834  13.817  15.870 -0.0921 -0.0074  0.1364
 1799W        W17268   9.106  16.990   4.742  0.0580  0.3148  0.1565
 1800W        W17269   6.726  16.733  14.265  0.0514 -0.1408  0.1379
 1801W        W17270  16.592   0.158  15.787  0.0077 -0.2816 -0.2156
 1802W        W17271  10.773  13.831   2.741 -0.0733  0.2482 -0.0294
 1803W        W17272   2.644   1.444   0.711  0.0867  0.0244  0.1128
 1804W        W17273  10.455  13.636   2.187  0.3883 -0.2070  0.2539
 1805W        W17274   9.512   2.381   4.848 -0.2527 -0.2415  0.0338
 1806W        W17275   1.583   2.054  15.857 -0.1304  0.1004  0.0291
 1807W        W17276   2.414   7.213   0.742 -0.0839  0.0532  0.0965
 1808W        W17277  14.169   4.130  15.870  0.0503 -0.2052  0.2394
 1809W        W17278   6.733  17.486  11.757  0.1150 -0.0065  0.3536
 1810W        W17279   3.009  12.472   5.190 -0.0801 -0.1210  0.3453
 1811W        W17280   8.946  15.976   0.551 -0.1685  0.1085  0.2321
 1812W        W17281   6.825  12.965   4.506  0.1507 -0.4150 -0.0212
 1813W        W17282   1.372  12.772  13.867  0.3194 -0.1482 -0.1297
 1814W        W17283   1.768  16.715   0.175 -0.2021  0.0182 -0.1001
 1815W        W17284   9.855  15.346  12.696  0.1262  0.1022 -0.0507
 1816W        W17285   2.536   7.295  13.494 -0.0755  0.0428 -0.3030
 1817W        W17286   8.157  13.009  11.478  0.0565  0.3565 -0.1244
 1818W        W17287  12.076   9.226  14.457  0.1851  0.0038 -0.1844
 1819W        W17288   7.587   1.167  12.742  0.0225 -0.1533  0.0077
 1820W        W17289   6.345  15.972  15.714 -0.0490 -0.2159  0.3919
 1821W        W17290   4.307  12.227  12.897  0.2264 -0.2547 -0.1117
 1822W        W17291   6.621   7.367  11.857 -0.3083 -0.0449 -0.3525
 1823W        W17292  17.166  17.481   4.705  0.2240  0.1227 -0.0105
 1824W        W17293   4.965   6.090   3.619 -0.0261 -0.3375 -0.0541
 1825W        W17294  11.118   9.589  12.094 -0.2574  0.2920 -0.0616
 1826W        W17295   7.644   6.613   5.947  0.1284 -0.1767 -0.3168
 1827W        W17296  16.759   2.745   2.732  0.3243 -0.2410  0.2389
 1828W        W17297   7.265   6.192   3.298 -0.0302  0.2671  0.1553
 1829W        W17298   6.120   4.384   5.068 -0.0199 -0.0042 -0.1474
 1830W        W17299   1.955   5.677   4.562  0.2354 -0.0512 -0.0719
 1831W        W17300   8.606   0.197   0.575 -0.0847 -0.2082  0.0304
 1832W        W17301  13.490   1.513   4.964 -0.0386 -0.1317 -0.1277
 1833W        W17302   0.425  18.075   0.062  0.0339 -0.0224 -0.4478
 1834W        W17303   0.413  18.040  13.127  0.3785 -0.1035  0.0083
 1835W        W17304  14.411   7.572  13.851  0.1582  0.2459  0.0389
 1836W        W17305  14.922   7.447   2.902 -0.3118  0.0747  0.0018
 1837W        W17306  17.058  15.054   2.916 -0.1719 -0.0634 -0.2708
 1838W        W17307   6.239   6.129  16.119  0.2023  0.0244  0.0716
 1839W        W17308  10.225  11.685   2.995  0.3087 -0.0069  0.0918
 1840W        W17309  16.354   2.125   3.094 -0.2351  0.1968  0.2374
 1841W        W17310   4.623   1.257  13.451 -0.0125 -0.3190  0.0477
 1842W        W17311   6.420  14.853  12.980 -0.2063  0.0548 -0.1911
 1843W        W17312  15.997  12.843  15.914  0.0042 -0.0691  0.1723
 1844W        W17313   3.027   0.053   0.885 -0.2550 -0.0607  0.0490
 1845W        W17314   7.139  10.172   3.199  0.2272  0.0107 -0.0240
 1846W        W17315   2.154  14.150  14.850  0.0351 -0.3406  0.0154
 1847W        W17316   9.395  13.544   4.166  0.3030 -0.4066  0.0509
 1848W        W17317   5.163  16.571   4.451 -0.0889  0.0574 -0.3599
 1849W        W17318   0.063  10.512   2.670  0.2907 -0.0493  0.2787
 1850W        W17319  15.114   3.414  11.227 -0.3652 -0.4406  0.3644
 1851W        W17320  16.847  12.780   1.480 -0.1422 -0.2686  0.0908
 1852W        W17321  16.141  17.394   1.814 -0.4848 -0.3461 -0.0462
 1853W        W17322   9.322  17.003  10.893 -0.0916 -0.1819 -0.0594
 1854W        W17323   3.938   7.123  12.816 -0.0139  0.0193  0.0591
 1855W        W17324  10.035  14.298   0.607  0.1008 -0.0341  0.0602
 1856W        W17325   2.814   9.372  13.722 -0.2671  0.1038  0.2960
 1857W        W17326   4.948   7.106  15.725  0.0129  0.0370  0.4113
 1858W        W17327   1.366   9.609   6.129  0.2950 -0.0579  0.2805
 1859W        W17328   8.515  14.417   5.468 -0.0347  0.0310 -0.3497
 1860W        W17329  11.966  10.600  12.853 -0.2455 -0.0334 -0.0918
 1861W        W17330   5.131   9.183  16.088  0.0430  0.0884  0.1633
 1862W        W17331  16.437  11.812  15.158 -0.0801 -0.1476  0.1484
 1863W        W17332   8.512  15.616  14.070 -0.0129 -0.3094  0.1994
 1864W        W17333  12.422   1.700  15.127  0.0385 -0.1701 -0.2669
 1865W        W17334   5.049  10.319   2.860 -0.1361 -0.1509  0.2256
 1866W        W17335  14.088   1.160   6.159 -0.4058 -0.4604  0.2930
 1867W        W17336  15.942   1.450  13.989 -0.2147  0.1215 -0.5292
 1868W        W17337   3.234  18.062  12.001  0.3015  0.0729 -0.1895
 1869W        W17338  15.502   4.988   0.877  0.0165 -0.3858 -0.0526
 1870W        W17339  16.192   9.186  11.658  0.3726 -0.1192  0.3433
 1871W        W17340  11.110  17.094   0.191  0.0744 -0.1840 -0.2033
 1872W        W17341   0.549   7.092   0.901  0.0661 -0.0736 -0.4144
 1873W        W17342   0.934  14.402  12.906 -0.2310  0.0813  0.0452
 1874W        W17343  15.370   6.836   3.532  0.1915 -0.1760  0.1151
 1875W        W17344   6.383   7.768  15.140 -0.2205  0.1063  0.2007
 1876W        W17345  14.408  15.434   6.015 -0.3264  0.1159  0.2146
 1877W        W17346   5.354  16.082  12.151  0.0557 -0.0983 -0.2551
 1878W        W17347  14.072  14.948   5.302 -0.1456  0.0764 -0.0429
 1879W        W17348   1.542  15.030   9.502 -0.0738 -0.1648  0.1757
 1880W        W17349   1.867   5.226   4.272 -0.2893  0.1692 -0.1986
 1881W        W17350  11.707   2.642   4.675 -0.0379 -0.1420  0.1708
 1882W        W17351  16.572  13.416   2.161 -0.4450 -0.2409  0.0335
 1883W        W17352   2.402   3.017   0.996  0.0817  0.0782  0.2972
 1884W        W17353  13.871  17.596  11.464 -0.0645  0.4242  0.0220
 1885W        W17354   8.574   0.498  14.043 -0.1306  0.2490 -0.2861
 1886W        W17355   7.997   7.411  12.693 -0.1320  0.1372 -0.1761
 1887W        W17356  15.048   1.199  15.001  0.1067  0.0731  0.0426
 1888W        W17357  10.002   0.451   3.150  0.0243  0.0397  0.1524
 1889W        W17358  10.417   7.911  15.226  0.0304  0.0438  0.0185
 1890W        W17359  17.325   7.679   5.561  0.1881 -0.2394  0.2408
 1891W        W17360  17.117  18.154  14.567  0.1680 -0.2736  0.0678
 1892W        W17361   4.010   7.922  11.827  0.2293 -0.1957 -0.3218
 1893W        W17362  15.632   8.109  13.442  0.0403  0.0198 -0.2705
 1894W        W17363   7.925  10.146  15.786  0.4337 -0.3556  0.2368
 1895W        W17364   8.836   6.917   3.948 -0.2015  0.2305  0.0727
 1896W        W17365  12.535  15.333  14.258 -0.1844  0.1589 -0.0280
 1897W        W17366   8.000  14.354  14.776  0.2413  0.1185 -0.1589
 1898W        W17367   5.444   4.971  14.278  0.1485 -0.0270 -0.1310
 1899W        W17368   9.542   0.837   1.149 -0.1965 -0.3797  0.0315
 1900W        W17369  13.937  15.861   0.295 -0.0006 -0.1565  0.1430
 1901W        W17370  10.990   8.497  14.995  0.0351 -0.0157 -0.4334
 1902W        W17371  10.322  15.844   4.278  0.0536 -0.1083 -0.1242
 1903W        W17372  17.357   7.507   4.553 -0.1832  0.3834  0.0084
 1904W        W17373  18.095  13.652   4.206  0.1985  0.1755  0.0449
 1905W        W17374   6.143  16.739   2.462 -0.0469  0.0791  0.1240
 1906W        W17375  17.724  17.742   2.109  0.0163 -0.0499  0.2721
 1907W        W17376  15.534   8.906   4.330  0.0067 -0.1230 -0.0158
 1908W        W17377  17.973   3.588   4.063 -0.1427 -0.0055  0.1034
 1909W        W17378   3.037  18.241  16.075 -0.2019 -0.1220 -0.1793
 1910W        W17379   5.026  11.522   4.344  0.1511 -0.1041  0.4377
 1911W        W17380  17.226   2.721   2.918 -0.0567  0.1529  0.1729
 1912W        W17381   0.200  14.728   5.439  0.0790  0.0769  0.1700
 1913W        W17382  17.464  14.261  14.836 -0.0428  0.1456 -0.0219
 1914W        W17383   9.917   5.702  15.002  0.1066  0.0434 -0.0028
 1915W        W17384  15.660   0.943   1.435  0.2059  0.0174 -0.2036
 1916W        W17385   3.953   5.428   2.597 -0.0046  0.0114  0.2651
 1917W        W17386   7.930   8.906  14.296 -0.0444  0.1735  0.3465
 1918W        W17387  15.237   9.248   4.047 -0.1886  0.1789  0.0935
 1919W        W17388   9.032   9.448  14.907  0.3714  0.0753  0.2487
 1920W        W17389   2.333  11.607   5.591  0.1539  0.0236  0.0225
 1921W        W17390  13.273  17.030   2.789  0.0086  0.1746 -0.1120
 1922W        W17391   8.083  16.949  14.783 -0.0867 -0.0607 -0.2605
 1923W        W17392   1.050  15.956   5.199  0.1365 -0.2129 -0.1472
 1924W        W17393   7.313  12.688  14.964  0.1679 -0.4557  0.0493
 1925W        W17394   6.246   0.383  14.242 -0.1804 -0.2269 -0.0280
 1926W        W17395   9.851   2.669   6.054 -0.0002  0.0541 -0.0599
 1927W        W17396  13.434  10.350  12.411  0.1112 -0.1730 -0.1952
 1928W        W17397   5.710  11.714  14.055  0.0417  0.0986 -0.0391
 1929W        W17398   6.994  12.693  10.687 -0.0576  0.2029  0.2532
 1930W        W17399  14.678   9.783   4.496 -0.1341 -0.0179 -0.0158
 1931W        W17400  17.103  15.897   0.074 -0.2523  0.0845 -0.0896
 1932W        W17401  16.428   3.217   0.167 -0.1142 -0.0061  0.3398
 1933W        W17402   4.784   9.461  15.769 -0.1609 -0.0907  0.1048
 1934W        W17403   4.291   4.356  15.488  0.2045 -0.0848 -0.2366
 1935W        W17404  17.757  11.459   2.678 -0.0457  0.3637 -0.0797
 1936W        W17405   0.548  16.742   1.138 -0.0992 -0.3178  0.0849
 1937W        W17406   1.250  14.177  15.793  0.0107  0.1661 -0.2169
 1938W        W17407   0.694   5.957  14.525  0.2904  0.2457  0.2015
 1939W        W17408  15.804  11.954  13.215 -0.3368  0.0699 -0.1527
 1940W        W17409  18.027  17.526   2.605 -0.2359 -0.1097 -0.0180
 1941W        W17410   6.544   6.305   2.940 -0.2694 -0.0795  0.0983
 1942W        W17411  12.036   7.739   1.036 -0.3817  0.1700  0.0750
 1943W        W17412  13.397   7.029  15.452  0.1024 -0.1715  0.1599
 1944W        W17413   9.840   7.078   1.784 -0.3834 -0.1306 -0.1935
 1945W        W17414  16.982   5.676  11.128  0.1441  0.2382 -0.1034
 1946W        W17415  12.557   7.015  16.125 -0.0163 -0.0265  0.0182
 1947W        W17416   8.732   2.943   5.598  0.0673 -0.0298 -0.1617
 1948W        W17417   3.073  13.861   0.809  0.0021 -0.0218 -0.0185
 1949W        W17418   6.841  14.219   5.688  0.0723 -0.1129  0.1544
 1950W        W17419   0.502  13.073  15.109  0.1994 -0.0769 -0.0958
 1951W        W17420  16.138   3.842  11.903  0.1433 -0.0745 -0.1629
 1952W        W17421   1.361   4.803   1.741 -0.0393 -0.0953 -0.0996
 1953W        W17422  17.836   0.273   4.217  0.0495  0.2341 -0.0044
 1954W        W17423   6.216  13.602  12.450 -0.2519  0.0455 -0.1331
 1955W        W17424   3.635  11.774  15.066 -0.2499  0.2550  0.1429
 1956W        W17425   6.950   6.987  13.373  0.2468  0.2179  0.0881
 1957W        W17426   7.277   5.324  12.197 -0.1012 -0.1888  0.2041
 1958W        W17427  10.518   5.902   0.592 -0.1059 -0.1340  0.0115
 1959W        W17428   3.716   7.189  15.136  0.0882 -0.2445 -0.0086
 1960W        W17429   3.133   3.540   0.834  0.1176  0.0093  0.1905
 1961W        W17430   6.924   6.524  12.009  0.0185  0.0210  0.1947
 1962W        W17431  10.966   9.292   1.161  0.2463 -0.0765  0.2109
 1963W        W17432   6.662   9.503   4.077 -0.2868 -0.1812 -0.1579
 1964W        W17433   8.878  11.366  11.353 -0.0680  0.0470  0.0915
 1965W        W17434   2.795   4.040   2.565 -0.3176  0.1624 -0.5367
 1966W        W17435   5.206   7.699  10.982 -0.4039  0.3703 -0.1790
 1967W        W17436  17.642  12.198  14.232  0.0569 -0.1215 -0.1265
 1968W        W17437  13.546   0.633  15.618 -0.1217  0.1862  0.3776
 1969W        W17438   0.002  11.548  12.965 -0.1825 -0.0065 -0.1626
 1970W        W17439   9.658   2.779  13.202  0.0685 -0.2970  0.0480
 1971W        W17440   3.879  16.968   1.219  0.2524 -0.0450  0.3576
 1972W        W17441  11.458   6.280   3.969 -0.1010  0.3670  0.1741
 1973W        W17442   2.546   6.240  14.952 -0.1031 -0.0501  0.1666
 1974W        W17443   4.079  18.244   5.321 -0.0580  0.2565  0.2659
 1975W        W17444  13.862   5.677  15.680 -0.1922 -0.0119 -0.1525
 1976W        W17445  11.401   9.853   2.530 -0.1510  0.1983 -0.2057
 1977W        W17446   8.699   5.703   1.310 -0.3390  0.2576 -0.2062
 1978W        W17447  12.468  16.142   2.825 -0.0611 -0.1307  0.4743
 1979W        W17448  17.537   6.633  11.770  0.1575  0.0023 -0.2463
 1980W        W17449   2.255   9.878   1.669 -0.2746 -0.0872  0.2203
 1981W        W17450  17.510   1.949   4.899  0.1483  0.2282  0.1314
 1982W        W17451   5.050  18.233  10.108 -0.1235 -0.1787 -0.3444
 1983W        W17452   3.822   1.395   3.835  0.1882 -0.3125 -0.1765
 1984W        W17453  15.718   9.942  14.332 -0.2342 -0.3618  0.0359
 1985W        W17454   7.235   4.331   2.884  0.0938  0.2440  0.1514
 1986W        W17455   2.682   6.085  13.351 -0.1324  0.3143  0.0634
 1987W        W17456   7.512  16.651   2.199  0.0521  0.0495  0.0681
 1988W        W17457   0.781   1.333   2.015  0.2413 -0.0754  0.1587
 1989W        W17458  16.214  10.835  14.457 -0.1585 -0.1054 -0.2748
 1990W        W17459   5.062   9.118  14.708  0.2678 -0.1314  0.1724
 1991W        W17460   6.336  13.440  14.664 -0.2102 -0.2913 -0.1984
 1992W        W17461  14.737   4.599   4.052 -0.0152 -0.0261 -0.3061
 1993W        W17462   4.988   5.693  10.907 -0.3282 -0.1401 -0.1000
 1994W        W17463   1.873  11.697   5.351 -0.3484 -0.1496 -0.2116
 1995W        W17464  10.042   9.524   1.878 -0.2658 -0.2928  0.0365
 1996W        W17465   7.540   3.511  12.724 -0.0316 -0.1335 -0.2312
 1997W        W17466   5.156   2.810   4.387 -0.0205 -0.0820 -0.1054
 1998W        W17467   9.660   8.427  15.943  0.0433 -0.0280 -0.2221
 1999W        W17468  16.811   2.308  15.242  0.2406  0.2350 -0.0127
 2000W        W17469  17.269  16.792  13.261  0.0996  0.1041  0.0653
 2001W        W17470  15.313  16.303   6.234 -0.1438  0.0158  0.0438
 2002W        W17471  15.782   4.063  13.966 -0.0216  0.3678  0.0532
 2003W        W17472  14.977  12.177  12.789  0.0172 -0.2392 -0.0507
 2004W        W17473   7.637   3.834   5.373  0.1505 -0.1835  0.0551
 2005W        W17474  17.506   2.348   1.960 -0.3782  0.1703  0.0879
 2006W        W17475  14.852  13.970   6.518 -0.0678  0.0334  0.0126
 2007W        W17476   0.251  16.473   5.439 -0.0707 -0.0802 -0.0848
 2008W        W17477  14.409  10.484   2.562 -0.2168 -0.1492 -0.0830
 2009W        W17478  13.308  16.172   3.618 -0.2019  0.2393  0.1084
 2010W        W17479  11.439  15.837   0.127 -0.2273 -0.1517  0.2697
 2011W        W17480   3.993   8.904  15.246  0.0848  0.0485  0.1049
 2012W        W17481   4.410   0.011  11.179 -0.0593 -0.0825 -0.4092
 2013W        W17482  14.062   7.103  12.972  0.0357 -0.0553  0.1537
 2014W        W17483   7.729  14.845  15.342 -0.1424  0.0825  0.0510
 2015W        W17484   8.011  15.690   3.547  0.2134 -0.0059 -0.1275
 2016W        W17485  12.830   0.044   3.991  0.0699 -0.0183  0.1239
 2017W        W17486  15.315  15.610   4.489 -0.0428  0.0191 -0.2670
 2018W        W17487  17.121  17.630   2.770 -0.1439  0.3551 -0.3269
 2019W        W17488  16.416   0.343   0.064  0.1703 -0.1687  0.1115
 2020W        W17489   9.564  14.162  13.623 -0.1813 -0.0518 -0.2459
 2021W        W17490   4.436  17.722  15.109  0.0419  0.0295 -0.0932
 2022W        W17491  11.681   6.943  12.205 -0.1527  0.3963 -0.1145
 2023W        W17492  12.042  15.581  12.543 -0.0518  0.0122  0.1722
 2024W        W17493   3.573  15.592  12.384 -0.1744  0.2734  0.2981
 2025W        W17494  16.473  17.744   2.662 -0.1459  0.1156  0.0389
 2026W        W17495  17.406   5.572  11.428  0.2623 -0.2667 -0.0340
 2027W        W17496   7.224   7.239  13.745  0.6216 -0.1099 -0.0794
 2028W        W17497   8.930   3.990   4.912 -0.2095  0.0132 -0.0527
 2029W        W17498   4.832   9.488   1.242  0.1159 -0.1114 -0.1431
 2030W        W17499  17.096  11.923  15.453 -0.1268 -0.2028 -0.1697
 2031W        W17500   2.601  13.055  14.691 -0.0217  0.0241  0.0776
 2032W        W17501  16.656   4.342  11.034  0.4344  0.0083  0.1235
 2033W        W17502   7.425   0.972   5.945 -0.2322 -0.0534 -0.2284
 2034W        W17503   9.855   2.061   2.748  0.1736  0.2162 -0.3257
 2035W        W17504  14.897   9.043  11.047  0.2406 -0.2083  0.4530
 2036W        W17505  12.533   4.467  10.590 -0.0540 -0.1163 -0.0482
 2037W        W17506   9.341  15.441   4.713  0.0775  0.0947 -0.3519
 2038W        W17507  13.488   4.130   5.245  0.0350  0.1043 -0.1794
 2039W        W17508   9.313   9.786   5.225 -0.1030  0.1555 -0.0402
 2040W        W17509   5.108   6.794  11.657 -0.1354 -0.0860  0.2167
 2041W        W17510   0.740   4.796  13.375  0.3317  0.0698 -0.1600
 2042W        W17511   3.219   8.065  11.939 -0.0626  0.0226  0.1236
 2043W        W17512   0.670  13.618   1.839  0.0662 -0.0843  0.0129
 2044W        W17513  15.247   1.571  11.415 -0.2451  0.2157 -0.3637
 2045W        W17514  17.580  14.279   0.172 -0.4719 -0.1219 -0.3970
 2046W        W17515   6.816   6.424  13.312  0.0446  0.2932 -0.2911
 2047W        W17516  14.556   1.719   1.227 -0.3101  0.0331  0.1861
 2048W        W17517  14.437   1.064  11.554  0.1856  0.2169  0.4863
 2049W        W17518  16.039  12.564  15.465 -0.2601 -0.0267  0.0650
 2050W        W17519  13.269   9.012  12.532 -0.0559 -0.0164  0.0853
 2051W        W17520  12.888   5.791   1.040 -0.2187 -0.2062  0.0575
 2052W        W17521  15.381   2.395   3.114 -0.1738  0.1478  0.1166
 2053W        W17522   7.333  11.445   2.222 -0.2204  0.3501 -0.0232
 2054W        W17523   1.970   2.610   4.061 -0.0338  0.2599  0.1576
 2055W        W17524  15.151  15.716  12.866 -0.1896  0.3584  0.1861
 2056W        W17525   7.279  13.162   4.675  0.2894 -0.1090 -0.0517
 2057W        W17526  13.861  16.568   5.878 -0.1774  0.0400  0.2257
 2058W        W17527  17.870  17.507   3.279  0.2529 -0.2055  0.0205
 2059W        W17528  17.197  17.816  12.130  0.0803  0.2384  0.1771
 2060W        W17529   4.468  16.666  15.099  0.0858  0.1138  0.0108
 2061W        W17530   3.314  15.167  14.033 -0.1862  0.0116  0.0212
 2062W        W17531  16.844  11.595  14.761  0.0246 -0.0748 -0.4659
 2063W        W17532   5.554   0.202   0.954 -0.3456 -0.2243  0.0927
 2064W        W17533  10.187   6.147  10.944 -0.4793 -0.1561  0.0136
 2065W        W17534   3.768   8.797  12.248  0.0608  0.0814  0.2891
 2066W        W17535   4.930   5.400  14.850 -0.0610 -0.0964 -0.1046
 2067W        W17536  10.809   4.530  10.818  0.0899  0.1026 -0.1135
 2068W        W17537   8.453   9.718   0.285 -0.0255  0.3537 -0.2501
 2069W        W17538   0.555  10.231  12.781 -0.0014  0.0684  0.0965
 2070W        W17539  14.026   2.981  13.555 -0.2483 -0.3671  0.1033
 2071W        W17540  16.768  15.758   5.559  0.0157  0.0541 -0.0622
 2072W        W17541  14.545  17.500  14.760 -0.0669  0.3090  0.1230
 2073W        W17542   7.313   8.567   1.990  0.2594 -0.2026 -0.2154
 2074W        W17543  14.458  11.443  15.828 -0.1394  0.0681  0.1141
 2075W        W17544  11.225   9.165   2.591 -0.0943 -0.2232  0.2989
 2076W        W17545  17.667  14.945  10.766  0.0112  0.0667 -0.1108
 2077W        W17546   1.436   4.805   4.942 -0.0228 -0.3018  0.1466
 2078W        W17547  12.008   8.596  11.746  0.1749 -0.1842 -0.2906
 2079W        W17548  10.651  15.131  10.997  0.1189  0.1221 -0.0000
 2080W        W17549   3.934  16.157   3.163 -0.1884  0.2407  0.0375
 2081W        W17550   6.861   2.862  11.312  0.3024 -0.0451 -0.0953
 2082W        W17551  17.648  17.420  12.805 -0.0554  0.1737  0.0729
 2083W        W17552   9.574  13.861   0.068 -0.0577 -0.0511 -0.1407
 2084W        W17553   9.723  18.054  14.582 -0.4937  0.3472  0.0373
 2085W        W17554   1.281  17.479   5.904  0.3088  0.1038  0.2780
 2086W        W17555   6.149  10.356   4.298 -0.0449  0.0063  0.0593
 2087W        W17556  17.328   6.927  11.411  0.0275 -0.1240 -0.3956
 2088W        W17557   9.380   2.097   2.853  0.1783 -0.2002 -0.1680
 2089W        W17558   9.547   5.674   0.734  0.1117  0.5148 -0.0879
 2090W        W17559  15.599   6.702   0.077  0.1688 -0.0339  0.2462
 2091W        W17560   8.314   3.852  14.871 -0.1775  0.3026  0.0676
 2092W        W17561   2.875   2.606  13.772 -0.1788  0.0201  0.1301
 2093W        W17562  17.731   1.003   0.211  0.1342 -0.0089  0.0965
 2094W        W17563   1.754  18.007   2.880 -0.2100  0.3345  0.2424
 2095W        W17564  16.843   8.815   2.467  0.0632 -0.1257 -0.3651
 2096W        W17565   4.361  11.432   2.058  0.1145 -0.0060 -0.1237
 2097W        W17566  14.286   6.046  11.443 -0.0791  0.1334  0.1546
 2098W        W17567  12.171   4.479   2.753 -0.0444 -0.1278 -0.1288
 2099W        W17568  10.238   8.654   3.724  0.1306 -0.0582 -0.1856
 2100W        W17569   2.779   6.047   2.397  0.2235 -0.1532  0.0273
 2101W        W17570   8.567   7.976   1.573  0.0546  0.1337 -0.1812
 2102W        W17571  17.266   0.314  13.374 -0.1146 -0.0980 -0.0930
 2103W        W17572   7.344  11.936   1.884  0.0379  0.0305 -0.0751
 2104W        W17573   3.790   8.085  13.027  0.1524 -0.0162 -0.0371
 2105W        W17574  14.831   2.654   5.583  0.0905 -0.2095  0.3197
 2106W        W17575  16.245  14.726   5.595 -0.5275 -0.0860  0.0765
 2107W        W17576  12.078   2.836   3.770  0.1319  0.2851 -0.0034
 2108W        W17577   9.163   4.787   1.328  0.1617 -0.1358  0.0080
 2109W        W17578  16.627  11.764   5.574 -0.0043 -0.0865  0.1140
 2110W        W17579   2.351   3.657  13.095  0.2170  0.1220 -0.3753
 2111W        W17580   2.987  11.251  13.447 -0.2777  0.1186  0.0640
 2112W        W17581   7.909   2.201  13.874  0.0228  0.1078  0.0950
 2113W        W17582  12.541   9.235  11.181  0.1385  0.3293 -0.5066
 2114W        W17583   0.052  13.411   1.641 -0.4151  0.1769 -0.0841
 2115W        W17584   8.848   9.342  15.382  0.1775 -0.1143 -0.1471
 2116W        W17585   3.642   7.974   2.264 -0.0943 -0.0927  0.0801
 2117W        W17586   7.921   6.504  12.368  0.4583  0.0365 -0.1945
 2118W        W17587  10.144   0.266   1.081 -0.0523 -0.1614 -0.1349
 2119W        W17588   1.966   1.207   1.473  0.1849 -0.3014  0.1384
 2120W        W17589  12.022   1.340   5.233 -0.0590  0.0670  0.0648
 2121W        W17590  12.027   2.962   1.814  0.0951  0.0499  0.2743
 2122W        W17591  14.027  16.501  14.465 -0.0575  0.2002  0.0132
 2123W        W17592   4.184   3.424   5.198  0.2584  0.0006 -0.0326
 2124W        W17593   9.833  11.079   1.095 -0.2675  0.2986 -0.0842
 2125W        W17594   5.934  14.659  15.518 -0.0164 -0.0325  0.0131
 2126W        W17595  11.856   0.267  14.946 -0.2394  0.1471  0.0319
 2127W        W17596   9.087  14.847  11.089 -0.3779  0.1229 -0.3016
 2128W        W17597  14.177   6.357   0.740  0.2134 -0.2435  0.2003
 2129W        W17598   1.767  10.183   2.434  0.1695 -0.2927 -0.0602
 2130W        W17599  13.545   5.109   5.968 -0.0437 -0.2976 -0.2621
 2131W        W17600   6.367  17.944  14.679 -0.1626 -0.2252  0.1376
 2132W        W17601  11.285   9.488   1.808  0.0877  0.0037  0.2253
 2133W        W17602  14.770   0.193  11.446  0.3179 -0.3138 -0.1067
 2134W        W17603   4.746  12.454  14.561  0.1177  0.0092 -0.3063
 2135W        W17604  11.309  15.230  14.293  0.2112  0.1409 -0.0042
 2136W        W17605  17.517   2.365  10.879 -0.1025 -0.1220  0.0530
 2137W        W17606  13.313   3.839   3.002 -0.2894 -0.0564  0.0794
 2138W        W17607   2.145  12.667  16.154 -0.0536  0.2138 -0.1462
 2139W        W17608  11.629  10.531  16.051 -0.0526 -0.0216  0.2779
 2140W        W17609  15.198   3.639  11.699 -0.0212  0.0678  0.0199
 2141W        W17610   1.081  15.022   0.554  0.2859  0.3209 -0.1934
 2142W        W17611  10.720  16.896  10.614  0.1711  0.1220  0.2093
 2143W        W17612   5.586   4.732   2.951 -0.0330 -0.4399 -0.2570
 2144W        W17613  16.223  15.011   4.725  0.1085  0.2670  0.0570
 2145W        W17614   0.731   1.507   4.363 -0.0862 -0.0783  0.0326
 2146W        W17615  13.913  10.070   2.658 -0.1103 -0.1243 -0.0161
 2147W        W17616   1.635  10.373   3.193 -0.1065 -0.1458  0.0935
 2148W        W17617  15.579  14.702   3.911  0.0641  0.4180 -0.1025
 2149W        W17618   0.845   7.787   5.275  0.2176  0.3363  0.0768
 2150W        W17619  11.040   0.640  13.751 -0.4583  0.0819 -0.0174
 2151W        W17620  15.934   7.606   3.077 -0.2037  0.1504  0.1661
 2152W        W17621   4.275   9.484   4.222 -0.4561  0.0810  0.0372
 2153W        W17622   8.184  15.956  13.664 -0.1633  0.0109 -0.3046
 2154W        W17623  10.200  15.973  14.004 -0.0652 -0.4047  0.0552
 2155W        W17624  15.583  15.324   3.075  0.2368 -0.0320 -0.2243
 2156W        W17625   8.472  17.999   2.406 -0.1288 -0.2456  0.0202
 2157W        W17626   6.622  16.598  11.363  0.1131 -0.0804  0.0199
 2158W        W17627  15.912   5.607  11.368  0.1751 -0.0766 -0.0210
 2159W        W17628   5.801  13.212  14.053  0.4327 -0.1301  0.0588
 2160W        W17629   5.604   6.130   2.673 -0.0977 -0.1488 -0.0383
 2161W        W17630   1.070  18.101  11.102  0.1648  0.0914  0.1890
 2162W        W17631  16.363  18.005   1.994 -0.2458 -0.2260  0.0214
 2163W        W17632   2.240  16.206  12.515 -0.0402 -0.0288  0.0915
 2164W        W17633   8.156   7.206   5.691  0.0866  0.2156  0.4474
 2165W        W17634   3.800   3.158  12.836 -0.0207  0.1333 -0.2358
 2166W        W17635   2.104   2.734   5.017  0.1812 -0.0290 -0.2007
 2167W        W17636   1.006   5.964  14.036 -0.1049  0.3638  0.1390
 2168W        W17637   8.560   6.013  15.709  0.0085 -0.0679  0.3607
 2169W        W17638   0.641  10.273  16.053  0.0433 -0.0963 -0.3978
 2170W        W17639   1.376  14.674  15.478 -0.2725 -0.0426  0.2152
 2171W        W17640   5.984   4.492  14.595 -0.1061  0.0538 -0.1909
 2172W        W17641   8.461   1.779   0.292  0.3052 -0.1451  0.1730
 2173W        W17642   9.373  10.593  12.300  0.1328 -0.0095  0.1935
 2174W        W17643  14.825  13.288   4.766 -0.0974  0.4371 -0.3490
 2175W        W17644   8.120   0.516   3.950  0.2926 -0.0762  0.4550
 2176W        W17645  15.171   9.369  11.311  0.0696  0.3560  0.2139
 2177W        W17646  14.842   3.138  15.119 -0.1826 -0.2253 -0.0525
 2178W        W17647  12.005   0.541   3.695 -0.0421  0.0679 -0.2277
 2179W        W17648  12.060  12.390   2.120 -0.0904  0.2586 -0.3022
 2180W        W17649  13.776   6.047   0.674 -0.0837  0.0721  0.1272
 2181W        W17650  15.938   7.961  12.683  0.1233  0.2240 -0.2688
 2182W        W17651   3.261  15.862   5.545 -0.0160 -0.0098  0.0730
 2183W        W17652   9.992  12.412   4.811 -0.0918  0.1971  0.1051
 2184W        W17653   7.715   5.061   2.894 -0.4748 -0.2489  0.0025
 2185W        W17654   8.996  18.270   0.136 -0.3542 -0.1665 -0.1938
 2186W        W17655  15.653  18.262  12.385 -0.1110 -0.4082 -0.0732
 2187W        W17656  10.716   5.344   1.823 -0.1009  0.1028  0.2299
 2188W        W17657   6.003  13.767  15.032 -0.1700 -0.1531  0.3851
 2189W        W17658   2.715  12.091  13.188 -0.3584  0.0722 -0.0576
 2190W        W17659   6.454   6.049  15.177  0.1819 -0.2117  0.1595
 2191W        W17660   9.731  11.930  11.470  0.0201 -0.1200  0.2579
 2192W        W17661  16.692   4.149  15.234  0.3324 -0.0061  0.1181
 2193W        W17662   7.941   5.953   5.419  0.1188 -0.1929 -0.0638
 2194W        W17663  13.709  16.324  11.324 -0.2685 -0.0810 -0.2055
 2195W        W17664  11.893  13.096  11.001  0.0450  0.0346 -0.3566
 2196W        W17665  11.507   2.303  11.998 -0.0719 -0.0439  0.0323
 2197W        W17666   1.844  18.146   5.519  0.1527 -0.0267 -0.2918
 2198W        W17667  10.638  16.290  15.516  0.2827  0.4114 -0.0428
 2199W        W17668  17.941   8.854  14.802  0.2130  0.0935  0.2801
 2200W        W17669   5.314   8.299  14.274 -0.2349 -0.0689  0.2456
 2201W        W17670  14.436   1.937   0.711 -0.0806  0.1209  0.0122
 2202W        W17671   3.495   6.617   2.038  0.0037 -0.2077 -0.2598
 2203W        W17672   7.390  14.167   0.278 -0.2742 -0.0811 -0.1180
 2204W        W17673   5.663   5.375  12.362 -0.1704 -0.0802 -0.1418
 2205W        W17674  17.492   9.189   0.744 -0.1678 -0.0765 -0.0676
 2206W        W17675   0.358   2.729   2.200 -0.1279  0.0904 -0.0761
 2207W        W17676   4.483  14.201  11.832  0.0603 -0.1721 -0.3839
 2208W        W17677  16.488  18.270  14.523  0.0004  0.0571 -0.2117
 2209W        W17678   2.917  13.680   4.045  0.0987 -0.1332 -0.1732
 2210W        W17679  10.920  15.042   2.457  0.0654  0.2847 -0.1600
 2211W        W17680   5.720   9.418   2.661 -0.3848  0.1163 -0.0772
 2212W        W17681  10.813   0.902  16.120 -0.2639  0.0407  0.0020
 2213W        W17682  16.058   6.335  14.182  0.0106 -0.1918 -0.0220
 2214W        W17683   0.428  13.149  12.383  0.2899  0.0486  0.1225
 2215W        W17684   6.031   2.902   6.237  0.2216 -0.0834  0.2778
 2216W        W17685  12.987  10.652  12.309 -0.0742 -0.2542  0.2006
 2217W        W17686   0.748  12.606  14.771  0.0547 -0.0356  0.2564
 2218W        W17687   7.139  12.960  16.165  0.0345 -0.1081  0.1263
 2219W        W17688   9.461   4.119   1.214 -0.1744 -0.1289  0.0924
 2220W        W17689   1.734  14.650   2.067 -0.0167  0.0825  0.1081
 2221W        W17690  13.723   4.566   5.199  0.0480 -0.0696 -0.1261
 2222W        W17691   7.598  13.199   2.112 -0.2895 -0.0959  0.0428
 2223W        W17692   9.503   6.952  15.522  0.2176  0.0145 -0.1332
 2224W        W17693   5.135   5.984   2.822 -0.0394 -0.2006  0.0776
 2225W        W17694   8.789   1.502   0.713  0.1449  0.1577 -0.0525
 2226W        W17695   7.078   1.278   3.229  0.3660  0.1524 -0.0941
 2227W        W17696   0.355   8.110   0.089 -0.2236 -0.0598 -0.1869
 2228W        W17697   0.795   6.222  14.906 -0.3160  0.0477 -0.1243
 2229W        W17698   4.992  12.193  13.611  0.3436  0.0766  0.4770
 2230W        W17699   4.103  14.656   4.299 -0.1001  0.3909 -0.1733
 2231W        W17700   8.697  17.686  13.105 -0.0410 -0.0846 -0.1672
 2232W        W17701  13.370  13.224  14.628  0.1133 -0.2473  0.1738
 2233W        W17702   6.293   0.111  13.789  0.0888  0.1168  0.0474
 2234W        W17703   2.086   0.619  13.685  0.1232 -0.0916  0.2294
 2235W        W17704   5.383   9.042  12.669 -0.2202 -0.0212 -0.0726
 2236W        W17705  13.451  15.311  15.388 -0.1665 -0.1303  0.4015
 2237W        W17706  16.065  15.047  11.510 -0.1099 -0.2058  0.1765
 2238W        W17707  11.215  14.127   4.143  0.0450  0.0703  0.0492
 2239W        W17708  10.283   9.563  12.614 -0.2678 -0.1594  0.2943
 2240W        W17709   9.335  15.165  11.964  0.1608 -0.1106  0.0844
 2241W        W17710   5.444   8.291   3.671 -0.0116  0.3637  0.0872
 2242W        W17711  11.035   0.088  12.356 -0.0654  0.0607  0.5343
 2243W        W17712  10.412  14.303  12.932 -0.1690 -0.0227 -0.0459
 2244W        W17713   2.420  15.685   0.919  0.0166 -0.0887 -0.1838
 2245W        W17714   9.158  17.658   5.544  0.0416 -0.1589  0.1039
 2246W        W17715  16.135  12.222  11.094  0.0245  0.0665  0.0633
 2247W        W17716   7.202   2.083   5.564  0.0433 -0.3325 -0.0321
 2248W        W17717  11.980   5.169   4.335 -0.0413 -0.2962 -0.0539
 2249W        W17718  11.134   5.010   1.502  0.0154 -0.0164  0.0289
 2250W        W17719   2.580  18.000  16.014  0.1618  0.1455 -0.2014
 2251W        W17720  16.460  15.978  11.438 -0.1929 -0.1365 -0.3417
 2252W        W17721   6.610  17.488  12.802  0.1406  0.4955 -0.1414
 2253W        W17722   2.553   9.819  13.230  0.1170  0.0208 -0.2982
 2254W        W17723   1.429  14.524   4.189  0.3890  0.0211 -0.0850
 2255W        W17724  13.290   0.666   4.666  0.3271 -0.3874  0.0191
 2256W        W17725  13.156   9.968   4.496 -0.0419  0.1335 -0.0332
 2257W        W17726   2.464  16.996  13.128  0.4213  0.0520 -0.0694
 2258W        W17727  17.511   9.119  14.698 -0.2207  0.1306  0.0708
 2259W        W17728  13.058  16.584  14.569 -0.0989  0.0442  0.0257
 2260W        W17729   2.358   3.789   2.673 -0.1699 -0.0255  0.0143
 2261W        W17730   2.350   7.204   0.176  0.1028 -0.2711 -0.1593
 2262W        W17731   3.763  12.202   3.963 -0.1047 -0.1160 -0.0903
 2263W        W17732   4.067   0.682  13.043 -0.0242  0.1298 -0.0899
 2264W        W17733   4.863   0.882   4.863  0.1487 -0.2322  0.1082
 2265W        W17734  15.963  16.813   1.142  0.1857 -0.0333  0.0104
 2266W        W17735  18.246   9.449  10.312 -0.2410 -0.2893 -0.1579
 2267W        W17736   2.706   1.168  14.427  0.0474 -0.0781 -0.1605
 2268W        W17737  12.146  16.937   2.219  0.3177 -0.0983  0.1194
 2269W        W17738   3.750   0.784  13.682 -0.1827 -0.0737  0.0320
 2270W        W17739  10.119   9.268   4.081  0.0349  0.0611  0.1909
 2271W        W17740  10.951  13.105  15.691  0.0061 -0.0243  0.0427
 2272W        W17741  18.189  10.263   3.524  0.1073 -0.0499  0.1514
 2273W        W17742  18.194  17.177   3.051 -0.3869 -0.1040 -0.0694
 2274W        W17743   9.837   6.600   0.962 -0.2833  0.2480  0.0438
 2275W        W17744  10.837  12.587  12.631  0.2240  0.0475  0.1302
 2276W        W17745   4.887   8.911   0.347  0.2509 -0.1857  0.2240
 2277W        W17746  16.886  15.929   1.967 -0.1908  0.1502  0.4119
 2278W        W17747   6.759  15.413   1.988 -0.3598 -0.3703  0.0365
 2279W        W17748   3.452   0.878   5.938  0.0034 -0.0098  0.0752
 2280W        W17749   6.814  15.789  12.382 -0.0127  0.3059  0.0385
 2281W        W17750   5.973  18.023  12.837  0.2727 -0.0331  0.0231
 2282W        W17751   9.245   1.361   0.547 -0.0044  0.3062  0.0109
 2283W        W17752  11.000   1.446   4.146 -0.1946 -0.0562 -0.1038
 2284W        W17753  12.932  13.717  15.187  0.1756  0.1609  0.1082
 2285W        W17754  13.936   6.871   0.080 -0.1618 -0.2210 -0.1845
 2286W        W17755   5.599   9.187   5.033 -0.0134  0.0906 -0.1393
 2287W        W17756   7.755  15.124  13.466 -0.1321 -0.0583 -0.1595
 2288W        W17757  16.679  12.078  12.175  0.1095 -0.1953 -0.0031
 2289W        W17758   9.966   7.219   0.170 -0.0732 -0.0468  0.2127
 2290W        W17759  14.436  17.038   0.146  0.1301 -0.0769  0.1408
 2291W        W17760  10.267   5.098   4.717 -0.0707 -0.0709  0.1635
 2292W        W17761   4.008  14.765  13.722  0.0849 -0.1782  0.0041
 2293W        W17762  15.010   0.735   0.280 -0.1291 -0.0213 -0.1361
 2294W        W17763  15.751  15.203   2.073 -0.1031 -0.2585  0.1813
 2295W        W17764   9.218   0.404   5.027  0.0671  0.0609  0.1657
 2296W        W17765   6.554  17.046   2.513  0.2307  0.1029 -0.1186
 2297W        W17766   8.520  15.311   3.711 -0.1352 -0.1658 -0.1444
 2298W        W17767   0.490   7.545  13.218  0.0654  0.0615  0.1672
 2299W        W17768   5.420   9.304  13.100  0.0989 -0.0586  0.3507
 2300W        W17769   4.071   7.328  14.325 -0.1403  0.1086 -0.1023
 2301W        W17770  10.459   9.100   1.906  0.2195 -0.0297 -0.0200
 2302W        W17771   4.398  14.987  12.212 -0.1211  0.0466  0.0731
 2303W        W17772  12.767   5.181   3.015 -0.1053  0.0251  0.3641
 2304W        W17773  15.046   8.793  13.628  0.2685 -0.0188  0.0336
 2305W        W17774  11.477  11.835   1.883  0.1138  0.0794 -0.0590
 2306W        W17775  15.012   3.293   3.213 -0.0213  0.1879 -0.1121
 2307W        W17776  13.225   7.597   3.185  0.2334  0.1911  0.1598
 2308W        W17777  11.599   2.743  15.429 -0.1646 -0.1889 -0.2365
 2309W        W17778  14.203  10.252  16.100  0.1683  0.0732  0.3000
 2310W        W17779  11.471   0.719   3.323 -0.4445  0.3841  0.2035
 2311W        W17780  18.269  10.278  11.524  0.0245  0.3312  0.4385
 2312W        W17781  12.128   9.556   3.296  0.0679 -0.0115  0.3156
 2313W        W17782   6.538   1.481  13.455 -0.0492  0.2158 -0.0749
 2314W        W17783  11.134   5.605   4.505  0.1831  0.2133 -0.0723
 2315W        W17784  17.457   0.723   1.985  0.2066 -0.1334 -0.2139
 2316W        W17785   4.921   0.669   1.068  0.2322  0.1798 -0.0067
 2317W        W17786  12.434  11.459  15.704 -0.2638  0.1043 -0.1521
 2318W        W17787  14.186   5.508  11.214  0.1497  0.0365 -0.0359
 2319W        W17788  17.552   4.522  11.165 -0.2408 -0.0111 -0.1489
 2320W        W17789  10.676  12.935   2.901 -0.1611 -0.1208  0.1579
 2321W        W17790  15.771   4.944   0.030  0.2695  0.2177 -0.3145
 2322W        W17791   6.274   6.680   0.872 -0.0592 -0.2166  0.1793
 2323W        W17792   6.298  12.601  15.062 -0.0125 -0.0151 -0.0576
 2324W        W17793   3.039  16.234   1.401 -0.3366  0.0317 -0.4221
 2325W        W17794   3.977   8.632  14.753 -0.1101 -0.2214  0.0594
 2326W        W17795  13.593   7.402   2.635  0.0471  0.3243  0.2399
 2327W        W17796  12.314   0.050   0.013 -0.1564 -0.2248  0.0403
 2328W        W17797   5.251   9.425  10.536 -0.0580  0.2560  0.0105
 2329W        W17798  14.695  14.612  13.197  0.1219 -0.1450 -0.1053
 2330W        W17799   0.430  15.612  11.401 -0.0827 -0.1265 -0.2341
 2331W        W17800  16.773   4.337  11.582 -0.1923 -0.0667 -0.0969
 2332W        W17801   3.406  15.144   2.758  0.0495 -0.2423  0.1813
 2333W        W17802  16.647   1.782   4.404  0.1938  0.1215  0.1153
 2334W        W17803  12.061  10.784   5.160 -0.1333  0.2803 -0.2083
 2335W        W17804  15.532  14.947  13.480  0.3716  0.3076  0.0279
 2336W        W17805   2.576  15.182   1.848 -0.0259 -0.1524 -0.0070
 2337W        W17806  18.016   5.018  12.238  0.1233  0.5773 -0.0952
 2338W        W17807  11.528  12.907   4.103  0.1412  0.3782  0.0334
 2339W        W17808  11.709   2.589   1.742  0.0065 -0.1118 -0.0064
 2340W        W17809  12.991   8.701  15.494  0.0137 -0.2599 -0.1537
 2341W        W17810   4.380   0.806  12.672 -0.1419  0.3714 -0.1048
 2342W        W17811   3.632   2.348   1.469 -0.0370 -0.2589  0.0221
 2343W        W17812  16.726  11.485  15.850 -0.1132 -0.2496  0.2040
 2344W        W17813  14.666  14.679   1.346 -0.0198  0.4239 -0.3468
 2345W        W17814   9.375  13.984   2.008 -0.1059 -0.2759 -0.3901
 2346W        W17815   4.199   2.949  14.033 -0.0326 -0.0063  0.1372
 2347W        W17816   2.843  15.141   2.902  0.1362  0.1686 -0.0650
 2348W        W17817   6.121   8.000   5.616  0.2025  0.3824  0.3028
 2349W        W17818   6.169  17.678  12.498  0.1909  0.0213  0.1711
 2350W        W17819  12.646  17.622   2.831  0.1411  0.0700  0.0805
 2351W        W17820   7.922  12.141  14.543  0.0732 -0.0048  0.0501
 2352W        W17821   7.151   8.451  13.383  0.1658  0.0149 -0.0618
 2353W        W17822  15.073  12.445   1.754 -0.2055  0.1735  0.2343
 2354W        W17823  17.487   0.616   1.006 -0.1641  0.1985 -0.0569
 2355W        W17824   3.033  17.675  13.367  0.3004  0.3113  0.1927
 2356W        W17825  16.264   8.522  12.344  0.0582 -0.3371 -0.2315
 2357W        W17826  17.936  10.617   1.019 -0.0060 -0.1141  0.2051
 2358W        W17827   4.625   4.212  14.337  0.0390  0.0880  0.0805
 2359W        W17828   1.401   0.441  12.134  0.0863 -0.0694 -0.1186
 2360W        W17829   9.817   3.317  14.366  0.1122  0.0850 -0.1122
 2361W        W17830   1.204  14.541   2.418 -0.1831  0.1909  0.2928
 2362W        W17831  13.522   5.343   2.778  0.2417  0.0374  0.2396
 2363W        W17832   1.931   0.544  12.680 -0.1548  0.1134 -0.0584
 2364W        W17833   8.972  14.461  15.154  0.2262 -0.0524 -0.0457
 2365W        W17834   0.851  10.008  11.945 -0.1084  0.1058 -0.2400
 2366W        W17835   2.474   2.093  11.059 -0.1265 -0.2253 -0.1178
 2367W        W17836   8.259  15.730   0.094 -0.1127  0.0813 -0.1205
 2368W        W17837  14.516  15.171   1.241  0.2254  0.0586 -0.1208
 2369W        W17838  11.485   5.757   3.248 -0.0887 -0.1437  0.1802
 2370W        W17839   5.742   7.618  11.586  0.0611 -0.0755  0.1016
 2371W        W17840  10.954   8.150  14.650 -0.1354 -0.1709 -0.1342
 2372W        W17841   1.523  16.727   0.658 -0.2422  0.1893  0.0522
 2373W        W17842  15.645  13.973  11.793 -0.0294  0.2641 -0.2289
 2374W        W17843   1.545   7.838  14.852 -0.0077  0.2825 -0.0593
 2375W        W17844   0.852  15.398  13.141 -0.1664 -0.0129  0.0052
 2376W        W17845  10.038  14.692  10.580  0.0337 -0.0321  0.1186
 2377W        W17846   0.568   5.799   2.157 -0.0686  0.1033  0.0230
 2378W        W17847   8.166   0.432  11.895  0.1964  0.0619 -0.2395
 2379W        W17848  10.541   8.930  15.114  0.0670 -0.0148 -0.1191
 2380W        W17849  10.240   6.188  13.565  0.1378 -0.3212 -0.2160
 2381W        W17850  12.447  14.126   5.166  0.2856  0.0200 -0.0043
 2382W        W17851  17.863  13.921  13.951  0.0340  0.3174  0.3076
 2383W        W17852  16.291  17.866   5.578 -0.0232  0.1010 -0.0283
 2384W        W17853   0.320   1.508  15.899  0.2356 -0.0610 -0.2653
 2385W        W17854   7.857  16.302   1.271  0.1651 -0.3402 -0.3091
 2386W        W17855   1.656   9.874   0.559  0.0124  0.1219  0.0476
 2387W        W17856   3.250   8.192  14.027 -0.0810 -0.0573 -0.0422
 2388W        W17857   2.846   2.078   1.144  0.1629  0.0782 -0.2864
 2389W        W17858  15.393  17.698   1.547 -0.1604 -0.0899  0.1270
 2390W        W17859  12.429   1.884   0.262 -0.1134 -0.0990  0.0744
 2391W        W17860   4.291   9.238  14.916  0.0337  0.0929 -0.1484
 2392W        W17861  14.152   2.487  14.472  0.0843  0.1302  0.4259
 2393W        W17862   5.320  16.954  15.389 -0.1040  0.2074 -0.1844
 2394W        W17863   8.669   9.987  13.440 -0.0851 -0.1609 -0.0204
 2395W        W17864   6.086   2.619  15.756  0.1057 -0.0721  0.2114
 2396W        W17865   2.665   4.401  14.634  0.1812 -0.3417  0.0923
 2397W        W17866   1.804  17.639   2.019 -0.0900 -0.0831 -0.1514
 2398W        W17867  11.121  15.243  12.003  0.1520 -0.1755  0.0705
 2399W        W17868  11.047   2.611   2.987  0.1830 -0.2918  0.1585
 2400W        W17869  15.415   9.533  11.731 -0.0035  0.1372 -0.1580
 2401W        W17870   9.083  16.370   2.370  0.2759 -0.1082 -0.0721
 2402W        W17871   7.381   8.937  14.980  0.1979  0.1999 -0.3349
 2403W        W17872   4.003   5.967  15.796  0.0266  0.0896  0.0251
 2404W        W17873  10.625   5.632  11.680 -0.1152 -0.1135 -0.0752
 2405W        W17874   4.047   6.540  13.115 -0.1561  0.0804  0.1849
 2406W        W17875   2.383  10.983   0.571 -0.1020 -0.2381  0.1753
 2407W        W17876   1.359   2.354  15.098 -0.2497  0.2710  0.0358
 2408W        W17877   1.974  13.930  15.299  0.0692  0.0765  0.2102
 2409W        W17878  13.895  15.220   2.021 -0.0429 -0.1643  0.0525
 2410W        W17879  11.139   3.621   3.829 -0.1961 -0.1929 -0.2711
 2411W        W17880  14.123   8.977  13.875 -0.0620  0.0499 -0.1249
 2412W        W17881  13.901   8.710   0.460  0.1823  0.2450  0.1992
 2413W        W17882   2.051   3.321  13.943 -0.0849 -0.1914 -0.0966
 2414W        W17883  14.127   0.463  12.133 -0.1444  0.0017  0.1431
 2415W        W17884  17.143  16.487   2.571  0.0036 -0.1675 -0.1798
 2416W        W17885   6.782  11.532   2.622  0.2114  0.0518  0.1044
 2417W        W17886   1.619  16.061  15.327  0.1420 -0.1014  0.2113
 2418W        W17887   2.249   0.580   4.437 -0.0998  0.3116 -0.3252
 2419W        W17888  13.533  17.135  14.061  0.1431 -0.1929 -0.3006
 2420W        W17889   0.935   9.233   5.462 -0.2020  0.2231 -0.2991
 2421W        W17890   0.038   9.425   1.749  0.1065 -0.1430 -0.1040
 2422W        W17891   8.147  15.066   4.398  0.2410  0.1326 -0.2290
 2423W        W17892  15.958  12.283   0.180  0.0533 -0.1714  0.1110
 2424W        W17893  14.642  11.038   0.899 -0.1958 -0.2107 -0.0140
 2425W        W17894   4.491  16.362  14.656 -0.1683 -0.1218  0.0109
 2426W        W17895  10.983  13.478   4.214  0.2037  0.1429 -0.0930
 2427W        W17896  12.748   0.047  15.011 -0.0857 -0.1656 -0.1580
 2428W        W17897   1.759  12.985  11.257 -0.1617  0.1014 -0.0774
 2429W        W17898   8.317  12.109  11.301  0.1577  0.0411  0.1226
 2430W        W17899   0.984  13.516  12.864  0.0270 -0.0238  0.1394
 2431W        W17900   2.985   1.780  15.510  0.0483 -0.1129  0.1194
 2432W        W17901  11.054   8.101  12.537 -0.0029  0.1879 -0.0118
 2433W        W17902   5.784   0.230   1.777  0.0419 -0.0594  0.1452
 2434W        W17903  12.154  14.981   1.500 -0.2281 -0.2187 -0.0923
 2435W        W17904  16.184  16.738  12.058 -0.0063  0.0760 -0.1541
 2436W        W17905   7.357  13.774  12.867 -0.0131 -0.1350 -0.6539
 2437W        W17906   2.338  11.693  11.043  0.1854 -0.0898  0.0920
 2438W        W17907  14.909   1.070   0.662 -0.0746 -0.1550 -0.2232
 2439W        W17908   1.919  15.649   2.500 -0.1929  0.0103  0.1316
 2440W        W17909   8.791  10.702   3.260 -0.0864  0.1667  0.0606
 2441W        W17910   9.074   0.267   3.332 -0.0200 -0.0926  0.2481
 2442W        W17911   4.848  15.545  14.704 -0.2022 -0.0699 -0.0515
 2443W        W17912  16.695   4.648  15.195 -0.1047  0.3954 -0.0693
 2444W        W17913   7.483   4.283  15.178 -0.0294 -0.1348 -0.0197
 2445W        W17914   4.753  17.824   9.880  0.0457 -0.2344  0.0712
 2446W        W17915   2.498   4.577   4.992  0.1807  0.1835 -0.1687
 2447W        W17916  14.174  15.987  14.289 -0.2793  0.0157  0.2076
 2448W        W17917  16.194  13.799   0.080  0.2460 -0.1159  0.4110
 2449W        W17918   4.283   9.075  12.328  0.0640  0.3481  0.1400
 2450W        W17919   4.907   4.889   2.329  0.0190  0.2586 -0.0217
 2451W        W17920  15.254  11.260   9.955  0.0368 -0.2974 -0.0562
 2452W        W17921   0.777  15.285  14.430  0.2645 -0.0543  0.2159
 2453W        W17922  10.940   9.735  12.596 -0.0806  0.1866  0.0793
 2454W        W17923   0.844   5.436  14.466 -0.0346 -0.1868 -0.0196
 2455W        W17924   1.964  13.291   4.037  0.2881  0.1588 -0.1975
 2456W        W17925  13.842   4.846  11.566  0.1411  0.2815 -0.2812
 2457W        W17926   2.540   1.889   5.215  0.0678 -0.5057 -0.0172
 2458W        W17927   9.102  13.548   2.875  0.1022 -0.4072 -0.1881
 2459W        W17928   9.236   3.108  15.133  0.2695  0.2363 -0.1164
 2460W        W17929  15.884   7.239  12.611  0.1454 -0.2939 -0.2368
 2461W        W17930  10.310  17.718   3.116 -0.1579  0.3178  0.3718
 2462W        W17931   3.713  13.348   0.107  0.1187 -0.0465  0.3256
 2463W        W17932  11.802  12.089   0.696  0.0368  0.0552 -0.1895
 2464W        W17933   9.315  16.784  14.787  0.1543 -0.1778  0.2793
 2465W        W17934  13.321   8.517   3.045  0.0081  0.2652 -0.0376
 2466W        W17935   2.953  11.314  11.852  0.0324 -0.1591  0.3796
 2467W        W17936   7.486   4.244   0.692 -0.3057 -0.1708  0.2580
 2468W        W17937  18.003   0.691   2.879 -0.0084  0.1252 -0.0658
 2469W        W17938  13.362  18.286  11.334  0.0377  0.0846  0.2509
 2470W        W17939  12.498   7.497  15.108 -0.3635  0.2052  0.1881
 2471W        W17940  18.008  15.468  13.519  0.1681 -0.0410 -0.0319
 2472W        W17941   3.083   3.249   3.613  0.3704  0.0522 -0.3283
 2473W        W17942  15.392  17.053   3.040  0.1781 -0.0568 -0.1507
 2474W        W17943  15.137  11.437   2.051 -0.2350  0.2551 -0.0958
 2475W        W17944  12.531  15.651   2.724  0.1635  0.3171 -0.0139
 2476W        W17945   8.713   0.385  12.761 -0.1304  0.1552 -0.2010
 2477W        W17946  16.401   0.927  11.518 -0.2697  0.2307 -0.1328
 2478W        W17947   0.752   7.781   4.758 -0.2216  0.3809 -0.0806
 2479W        W17948   9.555   7.509  13.009 -0.1478 -0.0341  0.1817
 2480W        W17949  14.733   6.254  11.190  0.1677  0.0394 -0.0259
 2481W        W17950  10.738   7.656   2.593 -0.2492  0.0027  0.1247
 2482W        W17951   3.034   4.650   1.954 -0.1208  0.1635 -0.0721
 2483W        W17952   4.922   2.588  12.958  0.0305 -0.2392 -0.0819
 2484W        W17953  11.918  15.762   1.300  0.0115  0.0777  0.1268
 2485W        W17954  13.604  11.757   2.838 -0.4687  0.2582  0.0940
 2486W        W17955   1.494   9.744  14.126  0.2270 -0.2991  0.1936
 2487W        W17956   4.792   4.250  15.805  0.0719  0.2787  0.3762
 2488W        W17957   1.246  17.895  14.585  0.3332  0.0015 -0.0423
 2489W        W17958  15.232   7.802  12.066  0.0123 -0.2038  0.0835
 2490W        W17959   7.557  16.209   5.508  0.2636 -0.0669 -0.2385
 2491W        W17960   3.645  13.540  15.392  0.0764 -0.0136 -0.2486
 2492W        W17961  12.226  14.086  10.999  0.1171 -0.1117  0.3619
 2493W        W17962   6.318  14.046   0.370 -0.0314 -0.7212  0.1046
 2494W        W17963   5.119  16.574  14.616 -0.0108 -0.3831  0.1717
 2495W        W17964   7.788  12.929   4.537 -0.1688 -0.1342 -0.3185
 2496W        W17965   4.882  15.271   4.173  0.3339  0.2248 -0.1731
 2497W        W17966  14.621   9.119   0.629 -0.1042  0.1993 -0.0933
 2498W        W17967   2.082   8.824   5.935  0.0840  0.0717  0.1028
 2499W        W17968  17.430  13.944   1.732 -0.1384  0.0458 -0.1538
 2500W        W17969   2.134   1.386   0.820  0.0014 -0.1371 -0.1909
 2501W        W17970  13.321   5.018  16.119  0.0330 -0.2254 -0.0244
 2502W        W17971   5.726  11.874   3.682  0.0610  0.3751 -0.2486
 2503W        W17972   6.893   3.371  14.961  0.0307  0.0100 -0.1277
 2504W        W17973   1.582  18.084   0.248 -0.1893 -0.2640 -0.1123
 2505W        W17974  13.186   4.328  13.171 -0.2553  0.2094  0.3102
 2506W        W17975  16.708   7.719  11.493 -0.3026  0.0753  0.1353
 2507W        W17976   7.118   6.030  14.890 -0.0918 -0.1098 -0.0609
 2508W        W17977   5.171   1.923  16.093 -0.1443  0.1672  0.0260
 2509W        W17978  15.063  11.632  12.144  0.0969  0.0496  0.0878
 2510W        W17979  15.118  10.696   1.289 -0.2664 -0.1031  0.0438
 2511W        W17980   7.010   1.774   5.176 -0.2116 -0.3990  0.0444
 2512W        W17981   1.103   8.564   0.298 -0.2119  0.1357 -0.1590
 2513W        W17982  14.962   4.337  10.886  0.0493  0.1529 -0.0009
 2514W        W17983  14.086   0.078  13.865  0.1493 -0.1473  0.0196
 2515W        W17984   0.854   9.346   4.840 -0.3805 -0.2401  0.2555
 2516W        W17985  17.273  13.270  16.083 -0.2636  0.0485 -0.0200
 2517W        W17986   9.960  18.017  13.332  0.1973 -0.0743 -0.1205
 2518W        W17987  14.266  12.009   4.883 -0.1791  0.0352 -0.0704
 2519W        W17988  12.068  12.908   2.384  0.1335  0.3928  0.1125
 2520W        W17989   9.892   4.821  15.817 -0.1913  0.0996  0.0752
 2521W        W17990   9.243  13.893  13.386  0.1546 -0.0771 -0.2618
 2522W        W17991   4.463   6.182   2.070  0.1560 -0.0562 -0.4107
 2523W        W17992  13.349  17.198  10.743 -0.1115  0.0732  0.2422
 2524W        W17993  11.728  10.021   2.227  0.2145  0.0074  0.0623
 2525W        W17994   6.837   3.624   4.615  0.1653  0.0174  0.3521
 2526W        W17995  15.938   0.555  13.701  0.2463 -0.1749 -0.5353
 2527W        W17996   3.932  17.121   3.843 -0.2167 -0.0214  0.1224
 2528W        W17997  10.986   8.040  11.292  0.0864 -0.0257  0.2906
 2529W        W17998   4.777  14.186   2.704  0.0019  0.0007  0.1385
 2530W        W17999  16.787  14.216  11.605 -0.1822 -0.0186 -0.0871
 2531W        W18000   7.650   2.382  15.049 -0.0220 -0.0439  0.0908
 2532W        W18001  17.067  17.754   0.975 -0.0152 -0.2223 -0.2623
 2533W        W18002  15.704  14.294  13.028  0.0323 -0.0902 -0.0837
 2534W        W18003   8.921   2.732  13.707  0.2109  0.1549 -0.0585
 2535W        W18004  10.534   8.823  16.053 -0.1630 -0.0468  0.0423
 2536W        W18005  17.924   8.437   3.125  0.2128 -0.4573  0.0816
 2537W        W18006  13.717   5.192  15.211 -0.1138  0.0942 -0.0300
 2538W        W18007   5.553  18.280  14.261  0.2800 -0.5726 -0.0481
 2539W        W18008   8.241   9.533   4.163 -0.1419  0.1630 -0.0424
 2540W        W18009  12.931   5.291   0.865  0.0042 -0.1065 -0.0252
 2541W        W18010   2.236  14.572   2.257 -0.0712 -0.0942  0.1067
 2542W        W18011   0.362  11.094   1.371  0.3213  0.1041 -0.1388
 2543W        W18012  10.810   1.060  12.880 -0.3878  0.2008 -0.2154
 2544W        W18013   6.854  11.782  14.760  0.1959  0.0580 -0.2069
 2545W        W18014   7.580   7.380   2.808 -0.0310 -0.0265 -0.0777
 2546W        W18015  11.816   7.293  13.953  0.0982 -0.0546  0.3262
 2547W        W18016   0.154   7.757   1.351 -0.0362  0.3106 -0.0908
 2548W        W18017  18.070  14.737   4.030  0.1150 -0.5165 -0.0846
 2549W        W18018   5.281  12.499  14.670  0.2496 -0.0979 -0.3846
 2550W        W18019   9.434   5.294   4.491 -0.1034 -0.0458  0.0603
 2551W        W18020  17.478  12.019  15.758 -0.0689  0.0123  0.4867
 2552W        W18021   4.909   7.828  13.705  0.2455 -0.0534  0.0948
 2553W        W18022   2.827  10.127  12.397  0.1477 -0.0066  0.0810
 2554W        W18023  13.485  10.471   3.660 -0.1086 -0.3739 -0.2552
 2555W        W18024  18.214   7.841  14.280 -0.1865  0.1233  0.3041
 2556W        W18025  10.483  16.969   4.807  0.0907 -0.1154 -0.2531
 2557W        W18026  16.312  15.310  14.616 -0.0335  0.0496  0.1331
 2558W        W18027   6.596  11.291   3.663 -0.1083 -0.0076 -0.2123
 2559W        W18028   7.825   0.274   4.716 -0.0234 -0.3328  0.0724
 2560W        W18029  10.673   4.445  11.382 -0.0945 -0.3898 -0.2534
 2561W        W18030   1.236   9.256   2.141  0.3710 -0.0653  0.1815
 2562W        W18031  13.698   0.503  14.095 -0.0769  0.1280  0.0248
 2563W        W18032  12.145  11.651  12.882 -0.0044 -0.1551 -0.2625
 2564W        W18033  12.496   0.909  16.110 -0.1408 -0.0810  0.0777
 2565W        W18034  13.431  17.402  12.178  0.2873 -0.0703  0.0223
 2566W        W18035  16.889  14.105   6.392 -0.0426  0.2622 -0.1745
 2567W        W18036   3.384  11.915  11.911 -0.1534  0.0964  0.0623
 2568W        W18037   1.084  17.732   1.679  0.0168  0.1860  0.2050
 2569W        W18038  14.870   0.862   5.560 -0.1001  0.2752 -0.1669
 2570W        W18039   0.112  15.648  12.742  0.0969 -0.2145  0.2876
 2571W        W18040   1.462  12.167   1.755  0.2118  0.3861  0.2599
 2572W        W18041   6.343   3.561  11.619  0.0005 -0.2547 -0.0141
 2573W        W18042   8.771  11.107   0.505  0.0129  0.0779 -0.0777
 2574W        W18043   7.828  13.002   4.034 -0.2905  0.3217  0.1304
 2575W        W18044   7.473   2.741   0.733 -0.3521 -0.0526 -0.1077
 2576W        W18045  15.595  16.971   2.110 -0.0841  0.1705 -0.0811
 2577W        W18046   2.159   5.628   4.083 -0.2366 -0.3539 -0.1608
 2578W        W18047  14.881  11.968   4.900  0.0477 -0.0372 -0.1185
 2579W        W18048  17.210   2.065  12.009  0.0945  0.3527 -0.3018
 2580W        W18049  16.620   5.453  12.983 -0.0939  0.1861  0.2433
 2581W        W18050   4.118   8.372  16.065 -0.1766 -0.1563 -0.1084
 2582W        W18051   1.055   0.805  10.852 -0.0531  0.1408  0.1295
 2583W        W18052   3.390  16.331  12.956  0.1528 -0.2463 -0.1036
 2584W        W18053  12.951   2.938  12.986  0.0634  0.3271 -0.4396
 2585W        W18054  10.599   0.409  11.159  0.1573  0.3633 -0.2721
 2586W        W18055   9.342   3.551   4.089  0.0482 -0.0777  0.0034
 2587W        W18056   3.381   3.892   1.573  0.1889 -0.4268  0.1451
 2588W        W18057  12.256  17.386  13.338  0.1469  0.0101  0.2388
 2589W        W18058   4.881   2.154  11.833 -0.0008  0.0846  0.1826
 2590W        W18059  16.416  14.664   1.650 -0.0542  0.0114  0.1400
 2591W        W18060  12.252  10.364   5.468  0.0906  0.1029 -0.0501
 2592W        W18061  11.724  13.456   5.292  0.2401  0.1168 -0.3448
 2593W        W18062   6.406   6.077  13.708  0.2964  0.2257 -0.0770
 2594W        W18063   4.693   1.281   0.703  0.0820 -0.1886 -0.0594
 2595W        W18064   5.672  10.259  14.798  0.3042 -0.0510  0.1560
 2596W        W18065  14.477   4.129   1.627  0.1137 -0.2475 -0.0601
 2597W        W18066   1.595   0.967  12.312  0.1595 -0.0341 -0.1088
 2598W        W18067   0.747  13.121  13.385  0.0296 -0.2130  0.0473
 2599W        W18068  10.625   7.150   5.827  0.1813  0.1872  0.2305
 2600W        W18069  12.543   1.305   5.005 -0.0941  0.2339 -0.2497
 2601W        W18070   1.206  17.645  15.767  0.4703  0.3020 -0.2624
 2602W        W18071   3.523  15.391  15.692 -0.2033 -0.2491 -0.0753
 2603W        W18072   0.991  11.281   0.276  0.0126  0.0993  0.0850
 2604W        W18073  17.270  14.245   4.011  0.2207  0.0830 -0.0705
 2605W        W18074   8.858   7.069  12.991 -0.1564 -0.2366 -0.1573
 2606W        W18075   5.394  15.950   0.086 -0.1689  0.1405  0.1634
 2607W        W18076   2.096   7.761  11.964  0.1491 -0.0312  0.1429
 2608W        W18077   3.450  17.377   1.277 -0.0551  0.0550  0.0450
 2609W        W18078   0.462   5.594   5.223  0.1232 -0.1043 -0.2314
 2610W        W18079   1.173   3.099   1.309  0.1969  0.0791 -0.1724
 2611W        W18080   7.118  17.892   1.399  0.0911 -0.0498 -0.0551
 2612W        W18081  14.752  14.923  15.975  0.0551 -0.1954  0.4326
 2613W        W18082  14.352   0.546  15.142 -0.0103  0.0781 -0.1274
 2614W        W18083  12.863   4.568   1.571  0.3371 -0.3207 -0.1247
 2615W        W18084  16.047   3.341   2.164  0.0501  0.0109  0.1045
 2616W        W18085   6.892  12.557   4.224 -0.0328  0.2667 -0.2949
 2617W        W18086  11.120  10.992   3.491 -0.1095  0.0644 -0.2883
 2618W        W18087  12.854   8.861   3.164  0.0613  0.1309  0.2173
 2619W        W18088  17.882   9.902   4.835  0.1057 -0.2429 -0.1739
 2620W        W18089   5.417   4.857  15.353 -0.0925 -0.4349 -0.0911
 2621W        W18090   2.457  17.967  15.499  0.3732 -0.0769 -0.3107
 2622W        W18091   8.241  14.101  13.363  0.1958 -0.2846 -0.1542
 2623W        W18092  13.854   8.422  12.859 -0.3181 -0.2819  0.0954
 2624W        W18093   3.802  17.735   1.409 -0.2441 -0.0644 -0.2629
 2625W        W18094   1.767   5.729  13.069  0.2241 -0.1104 -0.3574
 2626W        W18095   4.868  17.254  12.674  0.1035 -0.3583 -0.0024
 2627W        W18096   9.942  16.370  14.220 -0.0811  0.0797 -0.1070
 2628W        W18097   4.772   1.366  11.917 -0.0567 -0.1185 -0.1729
 2629W        W18098  15.741  14.598   5.657 -0.0839 -0.1330 -0.1987
 2630W        W18099  12.623  15.275  11.672  0.1444  0.0325 -0.3229
 2631W        W18100  12.589  15.209  14.772 -0.0152  0.0445  0.2178
 2632W        W18101   4.086  14.101  12.664 -0.1286  0.0650  0.1558
 2633W        W18102   3.876   1.571   9.788 -0.1019  0.1153  0.3716
 2634W        W18103   6.302  12.986   2.515 -0.0713  0.1286 -0.0650
 2635W        W18104  15.270  15.972  14.471  0.2779 -0.1737 -0.0166
 2636W        W18105  10.314   2.585  12.850  0.1251 -0.1154 -0.0190
 2637W        W18106   5.825   9.169   2.098 -0.4700  0.0757 -0.0581
 2638W        W18107   6.943   8.592   2.456  0.0946 -0.1215  0.2169
 2639W        W18108  15.819   2.358  11.613 -0.2829 -0.1694 -0.4185
 2640W        W18109   9.263   5.609   0.178 -0.2146 -0.1398  0.2049
 2641W        W18110   1.250   7.708   4.601  0.2351  0.0630 -0.0856
 2642W        W18111   1.305   1.996  12.158 -0.0400 -0.0008  0.1069
 2643W        W18112   5.543   4.822   3.489  0.3525  0.3285  0.1886
 2644W        W18113  16.969  11.349  11.643  0.1183 -0.3959 -0.1853
 2645W        W18114   5.540   1.168  13.414  0.0269 -0.0214 -0.0117
 2646W        W18115   3.293  14.101   3.232  0.0576 -0.0128 -0.0708
 2647W        W18116  10.101   9.215   4.922 -0.1541  0.0349 -0.0568
 2648W        W18117  12.857   2.529   2.218  0.2751  0.0289 -0.2038
 2649W        W18118   4.796   6.288   5.599 -0.0382  0.2231  0.0283
 2650W        W18119  11.629  15.380   1.356 -0.0806  0.0501  0.2595
 2651W        W18120  11.998   9.656   2.431  0.1080 -0.1211 -0.1114
 2652W        W18121   4.669  11.648  11.251 -0.1550  0.0193  0.1574
 2653W        W18122  12.839   3.102  14.452 -0.2573  0.0962  0.1728
 2654W        W18123   8.856  11.316  14.862 -0.0650 -0.2178  0.1641
 2655W        W18124  15.458   3.507  12.261  0.0037  0.0774  0.3232
 2656W        W18125  13.159   8.737  10.829 -0.0884 -0.3443  0.0796
 2657W        W18126   8.707   1.396   5.626  0.0318  0.1390  0.0731
 2658W        W18127  17.150  10.690   3.791 -0.1572  0.0128 -0.0172
 2659W        W18128   1.475  10.995  13.362 -0.0137 -0.1128  0.1542
 2660W        W18129   0.849   1.070  14.685  0.2243  0.0075  0.0976
 2661W        W18130   6.326  16.774   2.956  0.5501  0.0176  0.0592
 2662W        W18131  15.537   9.990  15.157 -0.0106 -0.3174  0.2620
 2663W        W18132  16.984   7.426  15.114 -0.2760 -0.1978 -0.0469
 2664W        W18133   3.551  10.593  11.319 -0.2030  0.0735 -0.0101
 2665W        W18134   1.806   5.484  14.974  0.0005  0.1155  0.2250
 2666W        W18135  12.468  18.273   1.056  0.2583  0.0294  0.0518
 2667W        W18136   3.977  12.010  13.881  0.4671  0.1984  0.0576
 2668W        W18137   3.597  13.164   3.452  0.1871  0.0314  0.0381
 2669W        W18138   4.004  12.451   5.268 -0.0818  0.0587  0.1895
 2670W        W18139   9.787   7.858  15.072 -0.1495 -0.0162  0.3200
 2671W        W18140  11.738   1.982   3.481  0.1152  0.2837 -0.1875
 2672W        W18141   1.111   9.302  12.995  0.0350 -0.1005  0.1619
 2673W        W18142   6.000   6.805   2.126 -0.4361  0.0685  0.0888
 2674W        W18143   3.266   2.618   1.035  0.2146  0.0560  0.2281
 2675W        W18144   9.057   0.400   2.722  0.2295  0.0882 -0.0774
 2676W        W18145   5.694  17.298  16.164 -0.1065  0.1223  0.0258
 2677W        W18146   6.829  10.801   3.775 -0.0904  0.0486  0.0137
 2678W        W18147   1.779   4.394  10.941 -0.3135  0.0649  0.2257
 2679W        W18148  16.400  14.177   1.839  0.0852 -0.0790 -0.1206
 2680W        W18149   3.320   0.985   5.047  0.0001 -0.1120  0.0890
 2681W        W18150  14.608  16.173   1.793  0.0883  0.1258  0.3505
 2682W        W18151   6.389   8.712   4.731 -0.0359  0.0279  0.0529
 2683W        W18152   1.574  14.876   0.606  0.1298  0.1758  0.2030
 2684W        W18153   6.015   5.941  14.860  0.0338  0.0708  0.1243
 2685W        W18154   4.251  13.370  13.221 -0.2725 -0.0504  0.0664
 2686W        W18155   5.474  12.706   5.489  0.0569 -0.3154 -0.0660
 2687W        W18156   3.657   7.208   5.542 -0.0292  0.0541  0.0226
 2688W        W18157   9.757   2.298   0.031  0.0938  0.3379 -0.0286
 2689W        W18158   7.611   4.992   4.275  0.2600  0.0411 -0.1205
 2690W        W18159  16.787  12.135   4.519 -0.2440  0.0498 -0.1258
 2691W        W18160   2.212   7.343  15.864  0.2945  0.1332 -0.0240
 2692W        W18161   9.625   0.435   1.855 -0.0147  0.1279 -0.0298
 2693W        W18162  15.015   0.036  13.645  0.4528 -0.0137  0.2039
 2694W        W18163  12.139   0.152   4.801 -0.3599  0.0606 -0.2101
 2695W        W18164  15.759   2.112   0.233 -0.0716 -0.2136 -0.0967
 2696W        W18165  16.526   7.554   3.562  0.1039  0.2128 -0.0767
 2697W        W18166   9.949  11.757  15.653 -0.2167 -0.1177  0.0244
 2698W        W18167   9.864  14.889   1.636  0.3277  0.3944  0.0075
 2699W        W18168  12.101   0.361  13.878 -0.0243  0.0235  0.2233
 2700W        W18169  10.612   0.081   2.025  0.0957 -0.1541 -0.4108
 2701W        W18170   5.393  10.712  14.790 -0.0322  0.0156 -0.0069
 2702W        W18171  10.858   6.207   2.144 -0.0308  0.1660  0.0997
 2703W        W18172   4.240   7.574  15.363 -0.0072 -0.1549  0.4218
 2704W        W18173  17.920  13.813  15.530 -0.1478  0.0824 -0.1665
 2705W        W18174   3.533   6.562   2.508  0.0231 -0.1887 -0.0351
 2706W        W18175   2.383   3.712   0.519  0.2511  0.2313 -0.4007
 2707W        W18176   7.663   7.742   3.908  0.1054 -0.0675  0.1814
 2708W        W18177  11.587  14.016  12.825 -0.0476 -0.1335  0.1250
 2709W        W18178  13.480   9.475  12.746  0.0537 -0.1135  0.4602
 2710W        W18179  16.075   3.268  13.281  0.1491 -0.0845  0.0272
 2711W        W18180  16.709   4.701   6.132 -0.3746 -0.3721 -0.2237
 2712W        W18181   4.262   9.564  12.488  0.2542 -0.0498  0.3256
 2713W        W18182   3.646  14.888  13.195  0.3341  0.1403 -0.3037
 2714W        W18183   2.293  15.327   0.349  0.0380  0.0503 -0.2496
 2715W        W18184   3.702   8.347  11.920  0.3135  0.0270 -0.1162
 2716W        W18185  11.084   7.183  13.864  0.2935  0.1017 -0.1384
 2717W        W18186   2.019  10.648  11.281 -0.1829 -0.0377 -0.0674
 2718W        W18187  15.816   3.765   4.697  0.0596  0.3836 -0.0350
 2719W        W18188   4.829  10.138  14.549 -0.1091  0.0264  0.2318
 2720W        W18189   0.095   1.930  14.748  0.1441  0.0455 -0.0923
 2721W        W18190  14.581  17.263  12.075  0.0372 -0.6283 -0.0219
 2722W        W18191  14.934  12.156  10.514  0.0375 -0.0969 -0.2417
 2723W        W18192   8.495   0.311  14.884 -0.1885 -0.1510 -0.1877
 2724W        W18193   9.428   7.407  13.747  0.3520  0.0716  0.0937
 2725W        W18194  12.707   9.827   5.477 -0.1360 -0.4509  0.0786
 2726W        W18195   3.994   5.783  11.445  0.0699 -0.1146  0.1246
 2727W        W18196  15.477  12.820  12.332  0.0055  0.0157  0.0744
 2728W        W18197  18.126   8.885  11.045 -0.1661 -0.4642  0.1472
 2729W        W18198   9.951  11.506   1.783  0.0567  0.1710  0.1624
 2730W        W18199  14.777   1.541  15.869 -0.1524 -0.1143  0.0240
 2731W        W18200  10.106   5.581  12.887  0.1640  0.1237 -0.2574
 2732W        W18201   1.687   4.373   1.577 -0.2861  0.1324 -0.4828
 2733W        W18202   1.881  11.568  11.192 -0.1384 -0.0089  0.1725
 2734W        W18203   8.517   6.147   3.739 -0.6164  0.0504 -0.0855
 2735W        W18204  14.564   3.740  13.384  0.1049 -0.0729  0.0962
 2736W        W18205   3.846  14.753  12.780 -0.1180  0.4270 -0.1100
 2737W        W18206   5.424  14.408   2.722 -0.2052  0.1796  0.2096
 2738W        W18207   5.327  11.733   3.957 -0.2274  0.2189  0.0609
 2739W        W18208   8.671  17.164  11.838 -0.1426 -0.1350  0.2007
 2740W        W18209  12.200  18.058   4.538 -0.0970 -0.1900 -0.1412
 2741W        W18210   5.315   8.061  11.915 -0.1609  0.0202 -0.0219
 2742W        W18211  15.514  10.145   4.964 -0.2100 -0.2321  0.1937
 2743W        W18212  10.147  16.932   4.144 -0.0402 -0.0058 -0.1740
 2744W        W18213   1.431  12.348  14.142 -0.0613  0.0325  0.0349
 2745W        W18214   3.161   2.624   4.749  0.0999  0.1253 -0.0603
 2746W        W18215  11.762   5.637  13.273 -0.2622 -0.0052  0.0648
 2747W        W18216  13.903  15.637  10.564  0.0877 -0.2559 -0.0758
 2748W        W18217  13.041   6.964  12.621  0.1661  0.0122 -0.0552
 2749W        W18218  15.069  15.845   1.794 -0.1511 -0.1801  0.3378
 2750W        W18219  12.904   1.674  14.064  0.0852  0.1905  0.0486
 2751W        W18220   6.816   9.408   5.476 -0.1456  0.1910  0.2354
 2752W        W18221  15.492  16.744   6.011 -0.0779  0.0134  0.1575
 2753W        W18222  14.636   2.774  12.988 -0.0823 -0.3115 -0.3620
 2754W        W18223   2.699  17.464   0.951  0.1056 -0.0239 -0.1042
 2755W        W18224  17.759   4.447   3.888 -0.1471 -0.1265 -0.0892
 2756W        W18225  13.167   7.335  14.175 -0.0029 -0.2444  0.1648
 2757W        W18226   2.688   7.591   5.715  0.0928  0.1287  0.3747
 2758W        W18227   9.963  11.728   4.330  0.2533  0.0676  0.0490
 2759W        W18228   8.333  14.418   3.319  0.3198 -0.0478  0.1565
 2760W        W18229  10.585   0.532  13.811  0.0738 -0.1162 -0.2188
 2761W        W18230  11.812  12.506  13.273 -0.0692  0.0111  0.3887
 2762W        W18231   9.284  16.500   0.542  0.0446 -0.0964  0.4719
 2763W        W18232  15.235  12.035   1.366 -0.1458  0.0903 -0.1345
 2764W        W18233  18.069   8.136   0.470 -0.0565 -0.0612  0.2980
 2765W        W18234   5.263  12.133  15.970  0.1049  0.2124  0.4220
 2766W        W18235   8.452   3.242   0.117  0.4299 -0.1366 -0.2463
 2767W        W18236   7.107   4.357  12.495  0.1668 -0.1383 -0.0481
 2768W        W18237  10.860   5.695   3.940 -0.2816 -0.1637  0.2702
 2769W        W18238   1.450   8.966  15.640  0.4273 -0.0402 -0.1244
 2770W        W18239   2.648   6.466   3.643  0.0266  0.0374 -0.3345
 2771W        W18240   2.915  15.881  11.766 -0.2103  0.2007 -0.1571
 2772W        W18241   0.650   8.392  13.454  0.1208  0.0194 -0.0691
 2773W        W18242  10.715  13.378   2.552  0.3194  0.1221 -0.1970
 2774W        W18243   0.344   1.795  14.352 -0.0402 -0.1434  0.1017
 2775W        W18244   1.623  11.907   3.225  0.0145 -0.2104  0.0696
 2776W        W18245   4.242   7.881   3.186  0.3520 -0.3281  0.2633
 2777W        W18246  17.284   1.338   4.022 -0.2392  0.2352  0.3719
 2778W        W18247   6.066  14.911   0.543 -0.4510  0.2153  0.1124
 2779W        W18248   3.573   7.535   2.463 -0.2435  0.2356 -0.2394
 2780W        W18249   4.511   3.103  11.760  0.1505 -0.0484  0.4353
 2781W        W18250  15.360  13.533   0.962 -0.0411 -0.1777 -0.0050
 2782W        W18251   4.297   1.352   1.821  0.0613 -0.1956 -0.0042
 2783W        W18252  11.570  17.068  12.684  0.2852 -0.2491  0.0283
 2784W        W18253  16.717  14.814   4.666  0.1425  0.0990 -0.0118
 2785W        W18254   6.007  10.506   1.293  0.1871 -0.2169  0.0045
 2786W        W18255  14.542   5.839  13.242  0.4079  0.1542  0.1986
 2787W        W18256   8.094   8.294  14.952  0.0873  0.0063  0.2673
 2788W        W18257   5.982  10.532   3.261  0.0898 -0.1174 -0.0246
 2789W        W18258  13.897   0.675  14.956  0.0375  0.1386 -0.3153
 2790W        W18259   4.171   5.463  15.827  0.2110 -0.2674  0.2556
 2791W        W18260   1.937   3.524  13.447 -0.1536  0.0650 -0.0416
 2792W        W18261  14.974  16.442   0.607  0.1740  0.1270  0.2858
 2793W        W18262  17.578  11.640  15.394 -0.0779  0.1237 -0.0198
 2794W        W18263  17.278   6.763   1.424 -0.0178 -0.1374 -0.1586
 2795W        W18264   5.943  10.015  15.677  0.0693 -0.0731  0.0443
 2796W        W18265   1.360   7.143   0.152  0.0983  0.3622  0.1162
 2797W        W18266   7.398   9.796   4.423 -0.5496  0.1317 -0.0740
 2798W        W18267   9.724   8.333  15.480 -0.0919 -0.1363 -0.0164
 2799W        W18268  15.683   7.006  14.748 -0.2624  0.3799  0.0890
 2800W        W18269  12.137  14.440   2.453 -0.1742 -0.1344  0.0411
 2801W        W18270   7.592  14.432  11.359 -0.2349 -0.1809  0.1954
 2802W        W18271  17.248   0.410  14.703  0.1862 -0.3404  0.0413
 2803W        W18272  10.341   2.618  11.462 -0.1734  0.4144  0.0285
 2804W        W18273  17.196   9.426   4.986  0.1582  0.0668 -0.3389
 2805W        W18274   5.008   8.193   3.206 -0.0017  0.1205 -0.1951
 2806W        W18275  16.401  13.319  14.096  0.1285  0.1782  0.2526
 2807W        W18276  14.005   3.511  12.357  0.3688 -0.1332  0.0750
 2808W        W18277  12.515   4.040   4.766 -0.1035 -0.4055  0.1609
 2809W        W18278   2.525   7.167  14.014 -0.1635 -0.0583 -0.1206
 2810W        W18279   4.505   7.823   3.969 -0.0127  0.1902  0.0126
 2811W        W18280   8.472   6.783   0.056  0.1831 -0.1405  0.1239
 2812W        W18281   5.708  16.109   2.668  0.1005 -0.0328  0.1086
 2813W        W18282  12.638  12.716  10.872 -0.1895 -0.1058 -0.1020
 2814W        W18283  13.514   3.294   1.472 -0.0781 -0.0684 -0.0369
 2815W        W18284   5.172  12.481   1.239  0.0445  0.0943 -0.1171
 2816W        W18285   6.856  11.254   1.178 -0.4178  0.1561  0.1115
 2817W        W18286   8.566  12.747  15.267  0.1651 -0.2844  0.2310
 2818W        W18287  18.276  16.217   4.575  0.2355  0.1177 -0.0482
 2819W        W18288   1.953  11.108  16.000 -0.1132  0.0612  0.0951
 2820W        W18289  17.250  17.096   5.056  0.3631  0.2252  0.1248
 2821W        W18290  14.154  10.061   0.454  0.3899  0.0157  0.0412
 2822W        W18291  17.867   5.164   4.402 -0.2722  0.0024  0.3880
 2823W        W18292   3.964  12.848  13.286  0.1468  0.2357  0.0551
 2824W        W18293   9.856   3.492   2.562  0.0910 -0.0423  0.0209
 2825W        W18294  11.689  14.903  11.769 -0.1346  0.0293 -0.3592
 2826W        W18295   3.700   1.643   0.028  0.4063  0.0760  0.3044
 2827W        W18296   6.958   3.162  10.489  0.0765  0.1396 -0.0983
 2828W        W18297  17.631  13.548  14.231  0.0185  0.0542  0.1714
 2829W        W18298   4.234  17.154   2.143 -0.1295  0.2893 -0.0056
 2830W        W18299  11.869   9.183   3.190  0.0507 -0.0084 -0.1028
 2831W        W18300   8.186   5.011  15.894  0.1016 -0.1866 -0.3890
 2832W        W18301   8.899   3.828  11.084  0.2481  0.1803  0.2597
 2833W        W18302  14.320   7.493   4.991 -0.1942 -0.0898 -0.0537
 2834W        W18303   3.305   9.085  14.074  0.1037  0.1841  0.3490
 2835W        W18304   0.943   2.845  14.162  0.1770 -0.2160  0.1396
 2836W        W18305   4.674   5.338   4.849 -0.4234 -0.1082 -0.1994
 2837W        W18306  11.185  14.758  11.716  0.2236  0.1895 -0.2457
 2838W        W18307  18.172  14.994  13.663  0.0935  0.1557  0.1105
 2839W        W18308   6.613  17.270   3.824  0.0809  0.2356 -0.3179
 2840W        W18309   3.476   1.675   0.878 -0.2959  0.2191  0.0308
 2841W        W18310  14.586  12.449   4.937  0.3195 -0.2829  0.0006
 2842W        W18311   5.335   8.075   4.445  0.1813  0.2949  0.2441
 2843W        W18312   1.897   7.632   1.273  0.1675  0.1771  0.0320
 2844W        W18313   8.867  15.090  13.804  0.0391  0.0059  0.3121
 2845W        W18314   2.855  13.737   3.392 -0.2469  0.0883  0.1226
 2846W        W18315   6.523   0.166   2.014  0.0214 -0.0838  0.3406
 2847W        W18316   6.085   2.351   5.226  0.1382 -0.0332  0.0604
 2848W        W18317   6.360  13.254  11.327  0.2400 -0.1037  0.1540
 2849W        W18318   6.519  16.510   2.166  0.2045  0.0361 -0.0129
 2850W        W18319   1.704  13.681  13.025 -0.1650  0.0378  0.0504
 2851W        W18320   7.002   3.770  13.127 -0.0014  0.0166 -0.0659
 2852W        W18321  15.698   5.479  13.782 -0.1360 -0.0468  0.0981
 2853W        W18322   7.574   1.951  13.273  0.2049  0.0404  0.3434
 2854W        W18323   8.069  15.916  12.808 -0.0290 -0.0286 -0.0444
 2855W        W18324   7.348   6.769  14.597  0.2012 -0.4222 -0.0673
 2856W        W18325   8.706   2.744   3.737 -0.3165  0.0582  0.0529
 2857W        W18326  12.820   5.295  11.902  0.2658 -0.2198 -0.2040
 2858W        W18327  12.030  11.334   0.241  0.0103  0.0691  0.3029
 2859W        W18328   9.063  12.434   3.033 -0.0902 -0.4363 -0.0606
 2860W        W18329   9.059   3.178   0.107  0.2795 -0.1192 -0.0258
 2861W        W18330  13.766   7.511  15.626 -0.0533  0.1105 -0.1818
 2862W        W18331  11.635  10.799  10.848  0.0164  0.0566  0.0557
 2863W        W18332   2.576   8.669  15.302 -0.2468  0.2126  0.2846
 2864W        W18333   6.346  11.488   3.295  0.0682 -0.2079  0.1056
 2865W        W18334   3.843  16.646  14.185 -0.0181  0.1648 -0.2443
 2866W        W18335   3.609   2.160   2.539 -0.2465  0.0437  0.1333
 2867W        W18336  12.556   5.524  12.944  0.1794  0.0693  0.1042
 2868W        W18337  13.246  17.663   0.759  0.1581 -0.0908 -0.0066
 2869W        W18338  13.875   0.215   2.025  0.0086 -0.2906 -0.1395
 2870W        W18339   4.027   4.361   1.156 -0.2866  0.1081  0.2288
 2871W        W18340   3.765   7.545   5.046 -0.0262  0.1725 -0.3176
 2872W        W18341   6.295   5.159   0.023 -0.2209 -0.0855 -0.1650
 2873W        W18342  10.271   4.397  14.825  0.0727  0.1019  0.1289
 2874W        W18343   5.043   5.092   5.087 -0.0083 -0.3432  0.1835
 2875W        W18344   0.416   9.935   6.146 -0.0412 -0.0027 -0.0808
 2876W        W18345   8.635   8.780   1.131  0.2520  0.0307  0.1228
 2877W        W18346  13.741   6.173   2.536  0.0184 -0.0949  0.1410
 2878W        W18347  16.486   4.873  14.448  0.0332  0.1826  0.0389
 2879W        W18348   8.224  12.477   2.155 -0.0302 -0.0962 -0.2027
 2880W        W18349  12.686  10.087  15.822 -0.1662  0.0422  0.0923
 2881W        W18350   2.519  11.187  13.669  0.1773 -0.3400  0.2414
 2882W        W18351  16.779   7.667   4.875 -0.1082  0.0896 -0.0733
 2883W        W18352   1.565   0.188   2.002  0.0513 -0.0025 -0.3125
 2884W        W18353   7.452  11.890   4.539  0.0077 -0.0190  0.2494
 2885W        W18354  16.463   2.726   4.016  0.2535 -0.2518  0.0709
 2886W        W18355   6.212   2.745   2.078 -0.0158  0.0324 -0.1118
 2887W        W18356   7.520   4.887   0.290 -0.0029 -0.0808 -0.2475
 2888W        W18357   4.716   5.420   5.305  0.2118  0.0618 -0.3118
 2889W        W18358  12.648   6.635  11.502  0.2389  0.0830  0.1770
 2890W        W18359  11.619  11.148  14.873 -0.0081 -0.0682 -0.0930
 2891W        W18360  16.236   5.722  12.111  0.5033 -0.1774  0.0233
 2892W        W18361   5.590   5.243   5.028  0.2089  0.1586 -0.0378
 2893W        W18362   1.966   6.439  12.549  0.3453  0.2265 -0.0087
 2894W        W18363   0.601  13.639  14.578 -0.2104 -0.1486  0.1404
 2895W        W18364  12.156   7.211   6.177  0.0844  0.0506 -0.1480
 2896W        W18365  14.760  16.772  15.231  0.2491 -0.0222 -0.1220
 2897W        W18366  15.197  18.010   2.016  0.3162 -0.1115  0.3485
 2898W        W18367   0.046  12.517   3.380 -0.1069 -0.0243 -0.0048
 2899W        W18368   9.333  17.831   4.620  0.3353 -0.2241 -0.0112
 2900W        W18369   5.273   7.806  10.468 -0.0077 -0.1031  0.2174
 2901W        W18370  16.435  16.383  15.912  0.0647 -0.2307  0.3026
 2902W        W18371  11.191   2.300  12.586  0.0754 -0.0147  0.0583
 2903W        W18372  14.814  15.837  11.347 -0.2209  0.0495 -0.0941
 2904W        W18373   3.023   5.222   4.131 -0.1768  0.2831  0.1984
 2905W        W18374  14.105   8.277   5.601  0.1141  0.1426  0.0763
 2906W        W18375  10.499   2.789   2.915 -0.0226  0.1397  0.1445
 2907W        W18376  16.846   3.464   1.069  0.0950 -0.0851 -0.1960
 2908W        W18377   0.230   2.453  15.540  0.0576  0.0624  0.0082
 2909W        W18378   4.909   0.522   3.032  0.2127 -0.1444  0.1844
 2910W        W18379  12.744  12.554   1.596 -0.1795 -0.0052 -0.1373
 2911W        W18380  12.054  15.873   4.275  0.1788  0.1132 -0.0450
 2912W        W18381  15.177   3.494   3.972 -0.2319  0.0127 -0.1194
 2913W        W18382  14.586   5.543   4.405  0.0694 -0.0486 -0.1210
 2914W        W18383  10.823  11.715  10.857  0.0029 -0.0098 -0.0109
 2915W        W18384   6.525  10.433  10.995  0.1967  0.0399  0.3468
 2916W        W18385   9.940   5.468   2.953  0.4127  0.2184 -0.1981
 2917W        W18386   6.131   2.172  13.956  0.2280 -0.0805  0.2629
 2918W        W18387   2.795  16.251  12.108 -0.0466 -0.1286  0.2333
 2919W        W18388   2.242  12.809   1.123  0.0257  0.0080  0.3475
 2920W        W18389  12.237  15.542   3.916  0.1988 -0.1583  0.3269
 2921W        W18390   5.636  14.218   4.772 -0.0471 -0.0168  0.0045
 2922W        W18391   7.467  12.335   3.247  0.0245  0.1557  0.0440
 2923W        W18392   1.608  14.817  15.025 -0.2891 -0.0005 -0.0719
 2924W        W18393   1.887   9.781   2.205  0.1606  0.1770 -0.3433
 2925W        W18394  16.713  10.497  15.699 -0.4238 -0.0446  0.1596
 2926W        W18395   5.807   6.964   0.138 -0.1637  0.0150 -0.0269
 2927W        W18396   0.443   5.210   3.286  0.1361  0.0551 -0.0231
 2928W        W18397  10.396  10.414   4.521  0.1005 -0.2167  0.1119
 2929W        W18398  10.594   1.393   5.106 -0.1919 -0.2367  0.2226
 2930W        W18399   2.689   3.241  12.560  0.0716 -0.5999 -0.0130
 2931W        W18400  18.165   8.380   3.650 -0.0766  0.1969  0.0811
 2932W        W18401   8.838  17.530  14.301 -0.3810  0.1239  0.0908
 2933W        W18402  16.559   7.573  15.750  0.1592 -0.1242 -0.3004
 2934W        W18403  14.574   1.399  12.954  0.2037 -0.1701  0.0807
 2935W        W18404  10.310   0.414  13.429  0.2014  0.0428  0.0209
 2936W        W18405   7.508  14.230  15.407  0.1389  0.1893  0.0602
 2937W        W18406   1.592  11.729   1.418  0.0655  0.1521  0.0054
 2938W        W18407  15.705   2.522  16.011  0.3217 -0.1457 -0.2813
 2939W        W18408  15.863   3.740  12.325 -0.4197 -0.2783 -0.0267
 2940W        W18409   1.148   3.851   0.566  0.1851 -0.2125  0.0644
 2941W        W18410  14.013   9.041  11.061  0.2345  0.1863  0.0374
 2942W        W18411  11.338  14.134   2.033  0.3322  0.2216  0.2630
 2943W        W18412   4.532  18.000  14.101  0.1513  0.0397  0.1723
 2944W        W18413   5.059   8.612   2.262 -0.3077 -0.1459 -0.0077
 2945W        W18414  17.834   2.114   3.145 -0.1293  0.2127 -0.0061
 2946W        W18415  12.642  16.567  14.174 -0.0352  0.2404 -0.0238
 2947W        W18416   8.339  10.671   2.646  0.2477 -0.2086  0.3226
 2948W        W18417  17.966  12.348   5.775  0.3050  0.0314  0.0035
 2949W        W18418   3.572   7.462  12.422 -0.0169 -0.0641 -0.1159
 2950W        W18419  10.783  13.859   1.804 -0.0838  0.0144 -0.0045
 2951W        W18420  16.561  16.453   1.341 -0.0944 -0.3566 -0.0397
 2952W        W18421  17.889  15.900  13.939  0.2598 -0.2248  0.0333
 2953W        W18422  11.441   5.070  13.077 -0.0186  0.1920 -0.1612
 2954W        W18423   2.475  16.135  10.279 -0.1578  0.0402 -0.0394
 2955W        W18424   7.676  12.288   3.749  0.2835  0.2224  0.0404
 2956W        W18425   7.405   5.291   0.953  0.0256 -0.1827  0.1072
 2957W        W18426   1.463   7.822  13.296 -0.0840  0.1601  0.2242
 2958W        W18427   6.447  12.748   0.434 -0.4214 -0.1392 -0.2594
 2959W        W18428   9.668  15.475  12.172 -0.0008  0.2044  0.1491
 2960W        W18429   7.559  11.464  11.951 -0.1362  0.1803 -0.2724
 2961W        W18430   1.473   8.692   4.421  0.0967  0.0856 -0.2191
 2962W        W18431   8.068   6.448   5.389 -0.3844  0.0357  0.0424
 2963W        W18432   5.952  14.091   5.606 -0.0168 -0.0284  0.0292
 2964W        W18433   9.427   8.595   4.878 -0.0224  0.1154  0.2621
 2965W        W18434  10.025   9.377   3.074  0.0382 -0.0931 -0.0626
 2966W        W18435   6.937   4.412   4.984  0.2546 -0.1101  0.0501
 2967W        W18436   4.685  10.253   3.888 -0.1943  0.2541 -0.0105
 2968W        W18437   2.078  15.747   5.152 -0.2026 -0.1805 -0.0285
 2969W        W18438  15.755   9.480   1.584  0.0660 -0.2086  0.1700
 2970W        W18439   0.015   6.136  13.805  0.1350 -0.0320 -0.2363
 2971W        W18440   5.712  11.587  10.969 -0.1253  0.0180 -0.2070
 2972W        W18441  13.790   7.523   6.050 -0.3903  0.1623  0.4649
 2973W        W18442   2.545  14.679  11.553 -0.1545  0.2425  0.0632
 2974W        W18443   3.967  14.060   4.937  0.2741 -0.0461 -0.0395
 2975W        W18444  18.257   1.909  16.079  0.2315 -0.1125  0.1628
 2976W        W18445   8.886  16.278   2.869 -0.1755 -0.1168 -0.1358
 2977W        W18446   1.985  10.066   1.072  0.1108 -0.3140 -0.0845
 2978W        W18447  11.329  14.963  10.037  0.1527 -0.0945 -0.0463
 2979W        W18448  13.091  12.525  12.577 -0.0303 -0.0158 -0.0732
 2980W        W18449   8.286   8.766   2.174  0.1595  0.1337 -0.0685
 2981W        W18450  10.377  17.664   4.877 -0.0235  0.1156 -0.2907
 2982W        W18451  16.139   8.305  11.053 -0.1551  0.0261  0.1928
 2983W        W18452  16.111  14.679   6.060  0.0121 -0.1639  0.0351
 2984W        W18453  14.100   2.894  13.077 -0.0515 -0.1932 -0.1451
 2985W        W18454  10.938  14.552   0.818  0.2972  0.0851 -0.0678
 2986W        W18455   5.591   7.547  13.084  0.3645  0.0563  0.0274
 2987W        W18456  17.768  15.996   3.251 -0.1403 -0.0802  0.0707
 2988W        W18457   0.606  12.010  14.055 -0.0495  0.1930  0.1690
 2989W        W18458   0.960  16.804   1.462  0.2216  0.2266 -0.2283
 2990W        W18459  13.468   9.534   2.315  0.1348  0.1685  0.0140
 2991W        W18460   5.229  14.107   0.047  0.0609  0.2648  0.1651
 2992W        W18461   0.693  16.892   3.281 -0.1604  0.2404 -0.2151
 2993W        W18462   7.244   0.023   1.682 -0.0215 -0.3158  0.1646
 2994W        W18463  14.153  12.679   2.805 -0.4520  0.4302 -0.2448
 2995W        W18464  15.941   9.993   4.615  0.2411  0.0279 -0.1475
 2996W        W18465  12.607  18.184   3.515  0.2995  0.4210  0.2321
 2997W        W18466   8.230  11.030   5.730 -0.0834 -0.2931  0.0031
 2998W        W18467  12.444  13.963   2.440  0.2138 -0.0315 -0.0568
 2999W        W18468   3.202  11.071  11.521 -0.0589  0.0010  0.0773
 3000W        W18469  14.477   8.160   0.801  0.1920 -0.0805 -0.0374
 3001W        W18470   5.842   8.943  13.068  0.0964 -0.1294 -0.3679
 3002W        W18471   6.183  12.090  12.748 -0.0572  0.0180 -0.0230
 3003W        W18472   6.884   6.188   0.064 -0.0317  0.0149  0.3037
 3004W        W18473  17.793  11.777   4.565 -0.2284  0.0054  0.2366
 3005W        W18474   6.526  10.993  10.086  0.1847  0.0948  0.1821
 3006W        W18475  15.663   2.459   4.353 -0.0988 -0.0632  0.4822
 3007W        W18476   7.245   4.190   0.251  0.2672  0.3425 -0.2373
 3008W        W18477   6.481  15.922  10.616 -0.0977  0.0464  0.0168
 3009W        W18478   3.621  17.146   2.130  0.0561  0.0162 -0.1240
 3010W        W18479   2.056   4.943  15.981  0.0796  0.2912  0.0216
 3011W        W18480  15.728   4.671   0.499  0.2612  0.1809  0.2829
 3012W        W18481  11.848   7.282  10.979  0.0768  0.0132 -0.3498
 3013W        W18482  11.034  15.043   4.742  0.1669 -0.1260  0.0272
 3014W        W18483  16.564  11.507  11.414 -0.0806 -0.0335  0.2683
 3015W        W18484  13.859   7.032   3.287 -0.1172  0.0340 -0.0691
 3016W        W18485   0.821   6.518  11.165  0.1633  0.0805  0.2838
 3017W        W18486  16.000   9.594   3.245  0.0252  0.2705  0.0208
 3018W        W18487   8.849   0.509   0.867 -0.1204 -0.0511 -0.2205
 3019W        W18488   9.474  16.206  11.591  0.0245  0.0719  0.0568
 3020W        W18489  12.942  12.796   0.394 -0.3165  0.0890 -0.3113
 3021W        W18490   7.426   6.322  13.660 -0.0871 -0.1700  0.2411
 3022W        W18491  17.197  17.431  10.670 -0.1194  0.3328  0.0215
 3023W        W18492  14.656   8.592  10.821 -0.0848 -0.1824  0.0610
 3024W        W18493  17.666  11.774   0.305  0.0582 -0.3898 -0.0730
 3025W        W18494   8.847   5.711  15.422  0.1227  0.0359 -0.0475
 3026W        W18495  10.919  14.215   3.073 -0.0439 -0.0183 -0.0227
 3027W        W18496   1.871  10.492   3.803  0.0625  0.1197  0.2576
 3028W        W18497  13.298  17.994   0.412  0.1025 -0.1083  0.3308
 3029W        W18498  13.474   9.499  12.230  0.0202 -0.1115 -0.0880
 3030W        W18499   3.482   0.089   0.080 -0.1509 -0.1136 -0.0070
 3031W        W18500   5.857   5.375   1.860  0.3175  0.0825  0.2024
 3032W        W18501   2.328   4.980   5.258  0.3328 -0.1935 -0.1112
 3033W        W18502  12.756   5.929   2.520 -0.0010  0.1162 -0.1088
 3034W        W18503  10.487  15.132   1.936  0.1999 -0.1090 -0.1908
 3035W        W18504  12.505   9.598   1.677 -0.0684 -0.0485 -0.1344
 3036W        W18505   7.630   8.165   1.219  0.0498 -0.1155  0.2956
 3037W        W18506  10.575   4.327  13.547  0.1611  0.2894 -0.2059
 3038W        W18507   5.764  12.255   5.558  0.0841 -0.0244  0.0056
 3039W        W18508  17.387   5.156   0.365 -0.0091 -0.1255 -0.1878
 3040W        W18509   9.249   5.732   4.739  0.2068  0.1715  0.1917
 3041W        W18510   0.796   6.966  14.175  0.1812  0.1119 -0.2165
 3042W        W18511   6.088   9.470   4.838  0.1371 -0.5055  0.0918
 3043W        W18512  16.509   9.439   0.793 -0.0204  0.0122 -0.0268
 3044W        W18513  11.484   3.568  15.783 -0.1926 -0.2205  0.0469
 3045W        W18514  14.500   1.192   2.698  0.0814  0.0100 -0.0265
 3046W        W18515  14.172   5.922   3.398  0.3613 -0.1530 -0.4571
 3047W        W18516  17.132  15.483  14.296 -0.2072 -0.0377  0.1112
 3048W        W18517   4.578  14.798  14.226 -0.3161  0.1236 -0.1550
 3049W        W18518   7.467  14.871  14.459 -0.1802 -0.1222 -0.1981
 3050W        W18519  14.254   3.533  15.819 -0.2516 -0.1315 -0.0539
 3051W        W18520  10.489  13.966   0.122  0.0657  0.2039  0.2800
 3052W        W18521  15.577   7.627  11.559 -0.1861 -0.1604 -0.1571
 3053W        W18522  14.376   5.740  15.862 -0.0314  0.0699  0.1659
 3054W        W18523  15.215  11.883  11.376  0.1537  0.1381 -0.1715
 3055W        W18524  12.397  17.954  10.411  0.0313  0.1135  0.0085
 3056W        W18525   7.934  17.739  15.580 -0.2072  0.4447 -0.0421
 3057W        W18526  15.713   5.885  12.905  0.1814 -0.1788 -0.1677
 3058W        W18527   3.841   6.310  13.530  0.0041 -0.0658 -0.1241
 3059W        W18528   9.495  17.102   2.925  0.0975 -0.2294  0.0716
 3060W        W18529   2.207   7.948  12.479 -0.2478  0.0300  0.1229
 3061W        W18530  12.100  16.592  11.457  0.1168  0.2309  0.1774
 3062W        W18531  14.054   3.128   0.296  0.3397  0.1059 -0.1420
 3063W        W18532  13.427   9.927   2.640 -0.0904  0.3017  0.1548
 3064W        W18533  15.572   1.457   1.447  0.0929 -0.0459 -0.1150
 3065W        W18534   4.517   6.617   4.739 -0.0092  0.0386 -0.3249
 3066W        W18535  10.990  17.011  13.467  0.0441  0.0622 -0.4477
 3067W        W18536  12.042   6.278  15.782 -0.0541  0.1839  0.1829
 3068W        W18537   4.886   7.034   4.991 -0.0989  0.1565 -0.0969
 3069W        W18538   1.824  16.888  15.431 -0.0412  0.0080  0.1148
 3070W        W18539   9.029   6.049   3.851  0.2402  0.0986 -0.0533
 3071W        W18540   3.128  18.213   2.154 -0.0540  0.0045 -0.1794
 3072W        W18541   2.733   8.888  12.360  0.0256  0.0195  0.0577
 3073W        W18542   2.875   4.247  14.106 -0.1811 -0.1218 -0.2308
 3074W        W18543  12.815   8.244  15.525  0.1344 -0.2492  0.4252
 3075W        W18544   2.691  16.230   3.754 -0.0537  0.1313  0.1033
 3076W        W18545  14.083  11.402   9.714  0.1316 -0.2921 -0.5620
 3077W        W18546  10.939   9.672   2.973 -0.0985 -0.0439  0.0747
 3078W        W18547  15.734   2.545  12.590  0.0402 -0.2350 -0.1794
 3079W        W18548  15.029  17.524   4.100 -0.0899 -0.0828 -0.0993
 3080W        W18549  12.770  12.648   4.217 -0.1390 -0.0260  0.1035
 3081W        W18550   4.539   4.102   1.360 -0.3046  0.2060 -0.1971
 3082W        W18551   7.271  11.817  13.454  0.2290  0.2504  0.1940
 3083W        W18552   7.897   6.320  10.166 -0.2142  0.1203  0.3403
 3084W        W18553   8.508   2.284  12.978 -0.1300 -0.1416 -0.1660
 3085W        W18554   2.170   9.919  14.478  0.5276  0.1758  0.0600
 3086W        W18555   4.914  12.876  14.317 -0.2662  0.0845 -0.1122
 3087W        W18556  13.026   6.543   2.190 -0.1057 -0.2144  0.1765
 3088W        W18557   3.876  11.651  12.073 -0.1044  0.1613 -0.2942
 3089W        W18558  17.568  11.704  12.662  0.0592 -0.0533 -0.1304
 3090W        W18559  16.640   9.075  11.904  0.0320 -0.2825  0.1080
 3091W        W18560  10.873  16.754   5.969 -0.1687 -0.2890 -0.2138
 3092W        W18561  15.070   9.243   2.114  0.1944  0.2159  0.1067
 3093W        W18562  11.944  13.620  10.984 -0.1260 -0.0038 -0.6425
 3094W        W18563  13.553   3.730  12.236 -0.1275 -0.4812 -0.1060
 3095W        W18564  15.492   6.301   3.820 -0.1225  0.0330 -0.0859
 3096W        W18565  14.986   1.043   3.322 -0.1491 -0.0267 -0.2764
 3097W        W18566  12.676   4.167   2.125  0.2195  0.0345 -0.2622
 3098W        W18567   0.215   7.185   5.077 -0.0546  0.1026  0.1674
 3099W        W18568  17.285   6.447   3.749  0.2449  0.1021 -0.2883
 3100W        W18569   3.869  15.827  13.608  0.0879  0.0415 -0.3621
 3101W        W18570   3.127   6.714  14.453 -0.0704  0.1544  0.0021
 3102W        W18571  15.581  13.947   3.393 -0.2345 -0.0161  0.0762
 3103W        W18572  14.869   1.146   3.947 -0.0221  0.0575 -0.1629
 3104W        W18573  15.990  10.046  12.059  0.2169  0.0718 -0.2977
 3105W        W18574  12.206  11.670   1.544 -0.0344  0.1082 -0.2207
 3106W        W18575  11.311   1.851  13.220  0.2037 -0.1044  0.1658
 3107W        W18576   4.449   3.841  13.866  0.2464  0.2610  0.0809
 3108W        W18577   3.680  16.306  11.247  0.0010 -0.4568 -0.0802
 3109W        W18578   9.872  17.560  12.257 -0.1294  0.4913 -0.1773
 3110W        W18579   8.653   7.280   0.212 -0.3003 -0.2124 -0.2640
 3111W        W18580   3.476   5.235  10.706  0.2188  0.2722  0.0327
 3112W        W18581   4.064   3.998  12.969  0.0239  0.0695 -0.0215
 3113W        W18582  14.084   6.316  15.057  0.2187 -0.2247 -0.2915
 3114W        W18583  12.562   2.953  13.358  0.1084 -0.1488  0.1967
 3115W        W18584  14.987  11.390   0.600  0.2088 -0.1457  0.0803
 3116W        W18585  13.701   1.379   1.966  0.2616 -0.2222 -0.1043
 3117W        W18586   7.178   6.615   3.509 -0.3324 -0.0447 -0.0012
 3118W        W18587   0.977  15.356  15.317  0.0560 -0.0982 -0.3677
 3119W        W18588   7.590   3.707  13.180  0.0341  0.0435 -0.0562
 3120W        W18589  14.159  13.849   2.206 -0.0310 -0.1548 -0.2121
 3121W        W18590  16.672   9.639  14.557 -0.4259  0.2305 -0.2132
 3122W        W18591   6.635   2.185  10.693 -0.1245 -0.0726  0.1285
 3123W        W18592  10.138  10.499   2.194 -0.1053  0.2191 -0.2159
 3124W        W18593  10.495  11.421   2.664 -0.1253  0.1353 -0.1327
 3125W        W18594  14.751  13.753  15.413 -0.6203  0.1422 -0.0545
 3126W        W18595   4.212   6.254  11.424 -0.0958 -0.0861  0.2086
 3127W        W18596   6.879   4.023   2.572 -0.0243  0.1404  0.0666
 3128W        W18597  18.055   3.113   4.197 -0.0696 -0.0536  0.1977
 3129W        W18598  13.656  13.801   1.994 -0.1393 -0.0892 -0.0112
 3130W        W18599   5.028  18.192   2.369 -0.2031 -0.1481 -0.0103
 3131W        W18600   7.999   9.945   0.134  0.1027  0.3519  0.0964
 3132W        W18601   4.327   7.330  11.984  0.3539 -0.2817 -0.1984
 3133W        W18602  17.946   7.856   3.423 -0.0269  0.2389  0.2744
 3134W        W18603   3.844   6.245   2.279  0.1913  0.1753 -0.2073
 3135W        W18604   5.517   0.399  15.287  0.2881  0.2277 -0.1753
 3136W        W18605   5.568   6.108  13.172  0.1636  0.1586 -0.2471
 3137W        W18606  10.226  15.978  12.059 -0.0685 -0.0874 -0.0332
 3138W        W18607  15.291   1.537  15.846  0.2399 -0.1841 -0.2431
 3139W        W18608   4.545   0.442   4.206  0.0052 -0.6045  0.1034
 3140W        W18609   3.710   6.389   4.189 -0.0029  0.1053  0.1849
 3141W        W18610   5.393  13.390   2.491  0.1793  0.0490  0.1322
 3142W        W18611   3.737   0.737   5.165 -0.0396 -0.0298 -0.1498
 3143W        W18612   1.152  16.757   2.815 -0.3287 -0.1797  0.0209
 3144W        W18613  11.533  12.350  11.659  0.1503  0.0576  0.0120
 3145W        W18614  15.508  14.359   4.273 -0.0012  0.3328 -0.1191
 3146W        W18615   4.679   0.457   0.670 -0.0071 -0.0215 -0.0205
 3147W        W18616   8.685  14.670   0.052 -0.2711 -0.0648  0.1147
 3148W        W18617   4.693  15.555  15.223  0.0667 -0.1368  0.0947
 3149W        W18618  12.358   5.177  14.129  0.0019 -0.2011 -0.1568
 3150W        W18619   2.838  16.661   1.234  0.0784 -0.0308 -0.0314
 3151W        W18620   2.518  11.006   3.796  0.2147 -0.1063 -0.0449
 3152W        W18621  14.196   3.627   1.002 -0.2317 -0.1294 -0.1295
 3153W        W18622  15.001  14.372   1.165 -0.3279  0.3858  0.1121
 3154W        W18623   9.917  16.951  13.604  0.1693 -0.4457 -0.0560
 3155W        W18624  16.582   3.654  11.657  0.0223 -0.0125 -0.0819
 3156W        W18625  11.717  14.332   4.691 -0.0108  0.1751 -0.1795
 3157W        W18626  14.005   8.730  12.061  0.1743 -0.0578  0.1968
 3158W        W18627   7.784  16.203  11.266  0.2847 -0.1943 -0.3703
 3159W        W18628   3.451  10.398  13.164  0.0106 -0.0210  0.1788
 3160W        W18629  12.520   4.237  15.217 -0.1196 -0.1274  0.0231
 3161W        W18630   6.225   3.062  16.073  0.1717 -0.0596 -0.1809
 3162W        W18631   9.891   3.602   4.616  0.0440  0.2081  0.1659
 3163W        W18632  10.713  10.320   4.022 -0.3044  0.0342 -0.2912
 3164W        W18633   9.372  17.805   3.618  0.1654  0.1046 -0.0241
 3165W        W18634   1.455  17.983   1.930 -0.0147  0.1458 -0.2820
 3166W        W18635  12.472  13.152   1.989  0.4489 -0.2405 -0.0060
 3167W        W18636  14.104   2.456   1.678  0.1522 -0.4004  0.0420
 3168W        W18637  15.443  15.137   4.009  0.0047  0.2080  0.1256
 3169W        W18638   6.229   6.941  10.980 -0.4149 -0.1821  0.2174
 3170W        W18639   3.806   9.803   4.172 -0.2805  0.0873  0.2926
 3171W        W18640  13.934   7.478   4.129  0.2362  0.0072  0.2289
 3172W        W18641   0.636  11.761   3.330  0.2885  0.0522 -0.0170
 3173W        W18642   4.083  14.204   0.600 -0.0442 -0.1312  0.0194
 3174W        W18643   9.180  17.069   1.657  0.2989  0.0494  0.1057
 3175W        W18644   9.666   9.280  15.203  0.2518  0.2420  0.0121
 3176W        W18645   9.201   5.432  12.443 -0.1698  0.1622 -0.3681
 3177W        W18646  17.199   4.424   2.530  0.0297 -0.2175 -0.3376
 3178W        W18647   3.284   2.478  14.071  0.3392 -0.0912 -0.3893
 3179W        W18648  15.929   3.006   0.247  0.2714 -0.1610  0.1554
 3180W        W18649  11.959   5.895  14.591 -0.1107  0.0440  0.1846
 3181W        W18650   7.342   7.973   2.501  0.1171 -0.0291  0.0414
 3182W        W18651   1.852   8.641  11.919  0.0485  0.3373 -0.0043
 3183W        W18652  18.193  13.219   2.892 -0.1902 -0.4457  0.1445
 3184W        W18653   5.296   9.479   0.801 -0.4156 -0.2445 -0.1942
 3185W        W18654  11.371   6.412  14.157  0.0735 -0.0564  0.1570
 3186W        W18655   9.729  17.463  11.791  0.0202  0.1737  0.1007
 3187W        W18656  17.201  10.452  11.153  0.0438 -0.1048  0.1474
 3188W        W18657  17.770  10.669  14.293 -0.4586 -0.3081  0.2540
 3189W        W18658   6.858  15.728   2.758 -0.0575 -0.0969  0.0440
 3190W        W18659   9.353   1.508   3.769  0.1922 -0.1955 -0.0571
 3191W        W18660  10.491   2.059   4.387  0.0416 -0.0724 -0.0374
 3192W        W18661  15.263   2.697   5.317 -0.1962  0.1241  0.0954
 3193W        W18662  11.904   5.449  15.468  0.1027 -0.0640 -0.0889
 3194W        W18663  15.275   2.484   4.048  0.1003 -0.1813  0.1763
 3195W        W18664  12.773  14.012  11.138 -0.0470  0.0172  0.0137
 3196W        W18665  17.772   2.481  15.210  0.1186 -0.1825  0.1335
 3197W        W18666   8.066   9.686  11.269 -0.1477 -0.1062 -0.1867
 3198W        W18667  14.983   3.648  15.180 -0.0246 -0.5127 -0.0562
 3199W        W18668   7.659  10.767   0.721  0.2377  0.2237 -0.1960
 3200W        W18669  18.251  16.464  15.597 -0.3567 -0.3438  0.0514
 3201W        W18670  17.730   6.002  14.871  0.1866 -0.0930  0.2463
 3202W        W18671  11.214  10.907  15.877  0.0880 -0.3373 -0.1481
 3203W        W18672  12.534  12.986   4.960 -0.3753  0.2201 -0.0581
 3204W        W18673   9.282   4.185   2.023  0.1883 -0.0490  0.0078
 3205W        W18674   8.583   9.227  14.058 -0.0299 -0.1026 -0.0685
 3206W        W18675   2.198   5.631  12.032 -0.1653 -0.1422 -0.0988
 3207W        W18676   3.382  16.553   0.143 -0.0297  0.2384 -0.2754
 3208W        W18677  15.381  15.920  13.233  0.0910  0.2090 -0.2125
 3209W        W18678  14.908   4.066   3.886 -0.0268 -0.2386  0.0582
 3210W        W18679  13.788   2.541  13.021 -0.0017  0.2248 -0.0310
 3211W        W18680   0.364  10.894   0.583 -0.0698 -0.0051  0.0179
 3212W        W18681  10.556   9.860   2.564  0.2824 -0.3687  0.2267
 3213W        W18682   1.932   0.229  11.970 -0.0131  0.1115  0.4300
 3214W        W18683   6.090   8.018   0.463 -0.3450  0.1121  0.3168
 3215W        W18684   3.530   8.780  13.373  0.0354  0.1717 -0.1327
 3216W        W18685  16.742   7.934   2.130 -0.1183 -0.0645 -0.2862
 3217W        W18686   1.814   1.149   5.021 -0.0926  0.0715 -0.2147
 3218W        W18687   0.136   4.870  15.690  0.3421 -0.2644 -0.0572
 3219W        W18688  13.915  16.600  14.961 -0.0538 -0.3040  0.0918
 3220W        W18689   7.731  11.898  12.117  0.3296 -0.1497 -0.1614
 3221W        W18690  14.285  13.143  14.307 -0.1970  0.2958 -0.0338
 3222W        W18691  18.013  15.757   1.803  0.3688  0.1602 -0.1681
 3223W        W18692   8.180  16.370   2.225  0.1317  0.0221  0.2798
 3224W        W18693   3.632  10.772  14.477 -0.0172  0.0696 -0.0089
 3225W        W18694   3.960  17.362   0.141 -0.1576 -0.0065 -0.1207
 3226W        W18695   6.481  14.018  11.670  0.0766  0.2365 -0.0842
 3227W        W18696  12.029  11.262   4.852  0.0307 -0.0585  0.2371
 3228W        W18697  18.107   5.262  15.959  0.4592 -0.3174  0.2973
 3229W        W18698  16.579   4.489  14.182 -0.3567  0.0166  0.1009
 3230W        W18699  17.401   3.445  12.062  0.0467  0.1899 -0.0825
 3231W        W18700   0.104  13.992   3.459 -0.1665  0.0964 -0.0114
 3232W        W18701  14.335  15.426   4.654 -0.0168 -0.4114  0.0759
 3233W        W18702  14.407  12.826  15.696 -0.0159 -0.2031  0.3622
 3234W        W18703  10.004   2.974   0.184  0.0186  0.2241  0.0448
 3235W        W18704  12.147   8.991  13.727  0.3134  0.2757  0.0515
 3236W        W18705   1.443   3.490  11.655  0.1131  0.1630 -0.0897
 3237W        W18706  12.920   3.055  11.040 -0.3114  0.0012  0.2000
 3238W        W18707   3.612  14.410  13.807 -0.0231  0.0482  0.0420
 3239W        W18708  16.507  17.104   2.054 -0.3507  0.3398  0.1014
 3240W        W18709   8.279   3.553   3.565  0.0258 -0.1804  0.0484
 3241W        W18710  11.822  11.214   4.280 -0.1427 -0.1563 -0.0825
 3242W        W18711   5.712  13.334  15.653 -0.1002  0.2776 -0.3719
 3243W        W18712  11.242  14.829  10.491  0.3289 -0.3026  0.2701
 3244W        W18713   6.230  15.416   2.041 -0.2873  0.1409  0.0899
 3245W        W18714   2.037   2.329  10.812 -0.1630 -0.2299  0.3030
 3246W        W18715  12.575  12.039   3.903 -0.1163  0.1455  0.2546
 3247W        W18716  13.249  12.104  15.880  0.1938 -0.1873  0.0441
 3248W        W18717  15.651   4.153   4.200 -0.0398  0.0741 -0.2282
 3249W        W18718   1.012   7.432  14.948 -0.1850 -0.0053 -0.0964
 3250W        W18719  14.101   0.236  13.369  0.2030 -0.0884 -0.3265
 3251W        W18720  10.059  10.114  13.879  0.2285 -0.2110  0.0848
 3252W        W18721  11.630   6.431  16.061  0.2375  0.1584 -0.0127
 3253W        W18722   1.800  15.372   2.128 -0.1667 -0.1360  0.1966
 3254W        W18723   6.511  13.942  11.103 -0.3040  0.1598 -0.1555
 3255W        W18724   1.750  15.707   4.821 -0.0505 -0.0324 -0.0255
 3256W        W18725   2.253   8.479   4.085 -0.3523 -0.4120  0.0936
 3257W        W18726   2.929  12.567   0.603 -0.0271  0.0425  0.0438
 3258W        W18727  13.060  14.865  14.044 -0.0057  0.1313  0.0812
 3259W        W18728   2.460   6.589  15.713 -0.0773  0.0188 -0.0337
 3260W        W18729   5.173  17.314   1.293  0.2916  0.0911 -0.1379
 3261W        W18730  16.845   0.695  14.734  0.2350  0.1165  0.0224
 3262W        W18731  12.284   4.339  14.382 -0.3438  0.0420 -0.1058
 3263W        W18732   2.763   9.151   0.003 -0.0792  0.1790  0.0695
 3264W        W18733   3.936   1.173  14.725  0.1214 -0.1411 -0.1702
 3265W        W18734  11.021   2.305  15.806 -0.0022  0.0571 -0.0891
 3266W        W18735   7.467  14.127   3.410 -0.1308  0.0190 -0.0225
 3267W        W18736  18.157   0.645  16.148  0.0585 -0.1388 -0.0422
 3268W        W18737   2.426   8.271  13.650 -0.1209  0.0218 -0.3586
 3269W        W18738   3.840  18.305  11.264 -0.0257  0.3238  0.0845
 3270W        W18739   6.920   1.483  13.784  0.3616 -0.2171  0.1048
 3271W        W18740  13.918   8.927  13.417  0.1644  0.0589  0.3373
 3272W        W18741   8.018  15.845   1.477  0.1757 -0.0354 -0.0131
 3273W        W18742   6.980   5.708   0.164 -0.0303  0.0475  0.2716
 3274W        W18743   9.114   9.609  14.385  0.0047  0.3472 -0.0830
 3275W        W18744  10.486   1.803  11.215 -0.0218  0.2952 -0.0744
 3276W        W18745  10.471  14.157   4.751 -0.2539 -0.1772 -0.0155
 3277W        W18746  15.850  14.236  13.831  0.1523  0.1310 -0.3268
 3278W        W18747  17.757  14.574   5.016 -0.1553 -0.0546 -0.5233
 3279W        W18748   4.634  10.807   0.831 -0.4142  0.0111  0.0487
 3280W        W18749   2.699   0.650  14.426 -0.0227 -0.0403 -0.0584
 3281W        W18750  13.709   1.769   2.310 -0.0548 -0.2284 -0.0425
 3282W        W18751   2.972  18.104  11.131 -0.0072 -0.2061 -0.3497
 3283W        W18752  16.367  12.237  14.782 -0.1774  0.0886  0.0602
 3284W        W18753  10.936   3.078   0.062  0.0728  0.0616  0.1775
 3285W        W18754  12.277  16.104   0.551  0.0900 -0.0483  0.1533
 3286W        W18755  15.147  13.631  13.602  0.0227  0.1213  0.1205
 3287W        W18756  16.518   4.718  11.330  0.0720  0.2672 -0.1108
 3288W        W18757  16.035   3.276  10.912  0.0321 -0.1134  0.1872
 3289W        W18758   9.684   2.042   1.021 -0.3049  0.0189  0.1475
 3290W        W18759   8.319  14.698  14.554 -0.2770 -0.0877  0.0052
 3291W        W18760  17.934   7.272  12.286  0.4773 -0.0534  0.0508
 3292W        W18761   5.528   1.688   0.313 -0.2979  0.2286 -0.1915
 3293W        W18762   5.653   5.214   4.451 -0.0553  0.3543 -0.0264
 3294W        W18763   8.641   6.661  14.021 -0.1824  0.2119 -0.0716
 3295W        W18764   0.778   8.717  12.605 -0.2722  0.4987 -0.0550
 3296W        W18765  12.578   8.958  14.778  0.1166  0.1553  0.0978
 3297W        W18766   4.393   2.952   0.490 -0.0301  0.1322  0.3988
 3298W        W18767   1.654   3.711  15.478 -0.1601  0.0016 -0.2862
 3299W        W18768   8.141  11.021  15.930  0.0996  0.1383  0.0130
 3300W        W18769   1.562   1.428  15.061  0.0796  0.0818 -0.2077
 3301W        W18770  16.629  13.105  11.350  0.0538 -0.3610  0.1862
 3302W        W18771  17.175  11.054  12.087  0.0749 -0.1287 -0.1284
 3303W        W18772  12.527   0.438   5.507 -0.2827 -0.0799  0.1342
 3304W        W18773  10.800   9.606   4.711 -0.0358  0.0963  0.3339
 3305W        W18774  15.568   3.810  16.096  0.0838 -0.3989 -0.1139
 3306W        W18775   7.708  10.893   3.466 -0.1807 -0.2342  0.5170
 3307W        W18776   1.835  10.743  13.808 -0.1355  0.1994 -0.2121
 3308W        W18777   0.750   5.873   6.199 -0.4722 -0.0139 -0.0426
 3309W        W18778   1.171  13.760   0.834  0.2016 -0.1512  0.1751
 3310W        W18779   8.744   0.888   4.704  0.0526 -0.3208 -0.4285
 3311W        W18780  15.612   1.119  10.766 -0.2759  0.0224  0.0581
 3312W        W18781  14.659   0.867   5.972 -0.2583  0.0213  0.0461
 3313W        W18782   7.157   6.062  11.902 -0.0139 -0.0028  0.0296
 3314W        W18783  17.964  17.430   0.195 -0.2095 -0.2323  0.0815
 3315W        W18784   8.158   6.978   5.236 -0.1712  0.0613  0.2928
 3316W        W18785   2.137  18.243   5.186 -0.1038 -0.0144 -0.0861
 3317W        W18786   0.314  12.228   2.330 -0.2296  0.3538 -0.3446
 3318W        W18787   9.227  14.159   5.740  0.0578 -0.1686 -0.2035
 3319W        W18788  13.309   4.478  15.890 -0.3705  0.0689  0.1529
 3320W        W18789   8.458  10.716  14.489  0.0210 -0.3270  0.0936
 3321W        W18790  14.304   8.760   4.228 -0.0376 -0.0473  0.1050
 3322W        W18791  13.075  12.300   5.385 -0.0057 -0.1431  0.0710
 3323W        W18792  10.479  13.030  13.467 -0.2556 -0.1044 -0.4198
 3324W        W18793   6.419  15.925   2.907 -0.0303  0.0548  0.2397
 3325W        W18794   1.461  15.348   0.454 -0.2217 -0.0921  0.1994
 3326W        W18795   7.853   1.841   3.689  0.2471  0.0005  0.0383
 3327W        W18796   8.454   6.475  13.626  0.2776  0.0046  0.0570
 3328W        W18797   8.920  13.004  14.634  0.2048 -0.3563 -0.3261
 3329W        W18798   2.507   5.191  13.093 -0.1916 -0.1815 -0.4961
 3330W        W18799   5.968   4.804  12.238  0.1174  0.1538 -0.1494
 3331W        W18800   9.497  17.341   4.637 -0.0139  0.0188  0.1873
 3332W        W18801  12.424   8.132  12.552 -0.1798  0.1208 -0.4390
 3333W        W18802  16.137  17.342  16.004 -0.2163 -0.1074 -0.0238
 3334W        W18803   7.110   2.225  14.965 -0.0921 -0.1271 -0.0567
 3335W        W18804   4.828   6.041  14.360 -0.1013 -0.2837  0.0124
 3336W        W18805   2.210  11.775   4.320  0.0635 -0.2259 -0.0771
 3337W        W18806  16.475  15.209   3.791 -0.0651 -0.0283 -0.0674
 3338W        W18807   8.513   4.255   5.046  0.5227 -0.0432 -0.1375
 3339W        W18808  14.581   1.896   2.135  0.1491  0.1960  0.0239
 3340W        W18809  15.678   1.241  12.656  0.2795  0.0909 -0.0863
 3341W        W18810  10.755   1.679  14.484 -0.4334 -0.0590 -0.0993
 3342W        W18811  17.809   7.650   1.038  0.4316  0.0487 -0.0037
 3343W        W18812   4.255  14.698   3.124 -0.1487 -0.0979  0.1352
 3344W        W18813  10.175   2.241  13.745 -0.2278  0.0214 -0.2059
 3345W        W18814   8.485   5.354   4.741 -0.0290  0.0468 -0.0721
 3346W        W18815   5.751  10.100   3.136 -0.0684  0.0265 -0.0409
 3347W        W18816   9.195  14.948  15.226  0.1438 -0.2149  0.0678
 3348W        W18817  12.407   8.303  14.698  0.1920 -0.1198 -0.2100
 3349W        W18818  13.787  17.067  12.387 -0.2928 -0.0196  0.4593
 3350W        W18819  12.016   5.753  11.033 -0.1770  0.0293  0.1568
 3351W        W18820  13.834  14.838  14.590  0.0340 -0.1759 -0.1572
 3352W        W18821   4.255  12.193  11.422  0.3065 -0.2267  0.3234
 3353W        W18822  13.075   7.771   3.601  0.1207  0.2671 -0.0370
 3354W        W18823  17.228  15.142  10.547  0.3590 -0.0053 -0.0646
 3355W        W18824  17.658   3.510   4.928  0.0498 -0.0403 -0.2769
 3356W        W18825   4.055   1.981  13.786  0.1913 -0.0916  0.1176
 3357W        W18826   2.906  10.877   3.460 -0.0400  0.2205 -0.1723
 3358W        W18827   1.130   3.846   5.076  0.1711  0.1927 -0.0394
 3359W        W18828   7.073  18.041  13.304 -0.0401  0.4492 -0.0361
 3360W        W18829  14.328  16.410   2.123  0.2374  0.0503 -0.2842
 3361W        W18830   4.295   4.549   0.264 -0.2524  0.2615  0.1291
 3362W        W18831  11.116  10.279   6.463  0.0345 -0.1605 -0.0502
 3363W        W18832  15.281  15.315  12.586 -0.4033 -0.0321  0.0945
 3364W        W18833   2.877   2.229  15.905  0.1314  0.0998 -0.1718
 3365W        W18834  13.958   7.784   2.673  0.0175  0.3666  0.1391
 3366W        W18835   2.571   7.629   0.562 -0.0915 -0.2364  0.1367
 3367W        W18836   8.369  12.952  12.841 -0.2405 -0.2410  0.2519
 3368W        W18837  17.595   2.033   4.000  0.0565 -0.3613 -0.0347
 3369W        W18838   7.941  10.359  12.830  0.2079 -0.0072 -0.0337
 3370W        W18839   5.879   0.339  13.933  0.1309 -0.0495 -0.1587
 3371W        W18840   1.758   9.216   0.769  0.0410  0.0374  0.0111
 3372W        W18841   3.835   5.283   0.145  0.1939 -0.2661  0.2813
 3373W        W18842   8.133   0.730  11.186 -0.2135 -0.1152 -0.2233
 3374W        W18843  13.214   1.906   5.295 -0.2976  0.0044 -0.1689
 3375W        W18844  11.462   9.939  14.330  0.0085  0.0488 -0.3206
 3376W        W18845  18.108   4.237  10.059 -0.0019 -0.2677 -0.3164
 3377W        W18846  13.487   1.207   2.376 -0.1842  0.0709 -0.2221
 3378W        W18847  16.044  10.326  14.391 -0.1932  0.0475  0.1604
 3379W        W18848  16.154  16.410  12.412 -0.2236 -0.1240 -0.0623
 3380W        W18849   3.512   3.103   3.539  0.1394  0.4512  0.1832
 3381W        W18850   1.701   2.284  12.052 -0.1474 -0.4217 -0.0716
 3382W        W18851  11.048   3.145  13.264  0.2822 -0.0335  0.0693
 3383W        W18852  15.666   0.906   0.545  0.0740 -0.3234  0.1967
 3384W        W18853  13.722  12.985   2.472  0.0282 -0.0253 -0.0369
 3385W        W18854   7.069  10.969   0.247 -0.1669  0.0239 -0.1333
 3386W        W18855  12.958   1.545  13.596 -0.0162 -0.2685  0.1013
 3387W        W18856   7.699  16.980   0.685  0.0190 -0.0291  0.0927
 3388W        W18857   5.644   6.149   1.665 -0.1022 -0.1853 -0.2950
 3389W        W18858   9.781  14.999   3.422  0.0540  0.3422 -0.0562
 3390W        W18859   2.731  12.922  14.196 -0.1735  0.1713 -0.0959
 3391W        W18860   7.199   6.611  11.164  0.2337  0.4195 -0.1761
 3392W        W18861  13.560   1.027   4.909  0.1099 -0.0738 -0.2817
 3393W        W18862   9.646   0.722  15.451  0.1170 -0.1475  0.1930
 3394W        W18863   9.002  12.613   3.871  0.2479 -0.1602 -0.1564
 3395W        W18864   6.638   3.838   0.757 -0.2876  0.0896  0.0311
 3396W        W18865   7.803   2.660   5.166 -0.2851 -0.0247 -0.0076
 3397W        W18866   3.211   3.709  10.853 -0.1959  0.0218  0.3638
 3398W        W18867  13.990   1.748  12.276 -0.0158 -0.3604  0.0358
 3399W        W18868  17.228  10.625  15.626 -0.0398  0.0723 -0.0641
 3400W        W18869   9.409   9.956   3.767  0.0596  0.4690 -0.0440
 3401W        W18870   0.593  14.425  13.363  0.1150  0.0267 -0.0452
 3402W        W18871   5.667   2.800  14.204 -0.2838 -0.5678 -0.0588
 3403W        W18872  15.794   5.470   4.715 -0.2638 -0.1484  0.1247
 3404W        W18873   6.059  10.628  14.683 -0.1478  0.2413  0.0050
 3405W        W18874   9.850   5.150   0.976 -0.5892 -0.1472  0.1063
 3406W        W18875   4.832  15.786   4.306 -0.0361  0.3189 -0.0956
 3407W        W18876  14.260   6.206   0.133 -0.0647  0.2457  0.2026
 3408W        W18877   2.877  16.694   3.811 -0.1970 -0.3709  0.1678
 3409W        W18878  15.466   6.496  12.217 -0.4000 -0.0085  0.1469
 3410W        W18879   1.732  14.389   5.520  0.0609 -0.2739  0.3553
 3411W        W18880   6.044   7.244  12.971 -0.0060  0.2934 -0.2848
 3412W        W18881   7.889   2.006   2.496  0.1803  0.1289 -0.1245
 3413W        W18882  10.926   4.354   3.026  0.3598 -0.0669  0.1600
 3414W        W18883  10.746  10.225   0.885 -0.0179 -0.1906  0.0511
 3415W        W18884   8.653  10.937  13.458  0.0496 -0.0140  0.0469
 3416W        W18885  12.597  14.249   2.837  0.0288 -0.0917  0.3912
 3417W        W18886   9.199  14.188  12.363 -0.0689  0.2483  0.1583
 3418W        W18887  15.580   4.487  13.596 -0.0091  0.2903  0.1562
 3419W        W18888  11.438   8.097   3.071  0.0741  0.0231  0.4360
 3420W        W18889  16.772   3.734  12.624  0.0496  0.2696 -0.0102
 3421W        W18890   8.844  14.837  14.748  0.1210  0.0158 -0.0719
 3422W        W18891   0.797   1.715  15.500 -0.0834 -0.1056 -0.1303
 3423W        W18892   0.199  10.308  15.706  0.2841  0.0186 -0.1350
 3424W        W18893   7.645  13.443  14.123 -0.3369 -0.2329 -0.0261
 3425W        W18894   6.860  15.301   0.891  0.3570  0.0420 -0.1339
 3426W        W18895  10.169   1.892  12.072 -0.6101 -0.2737  0.0153
 3427W        W18896   2.256   3.520   4.094 -0.1329  0.2274  0.0130
 3428W        W18897  10.818   5.862  15.426 -0.1284  0.0068 -0.0877
 3429W        W18898   7.470   2.639   0.236  0.0571 -0.2466  0.1387
 3430W        W18899  17.789   0.779  14.607  0.1046  0.3153  0.1738
 3431W        W18900  14.496   2.919  14.727 -0.2060 -0.2271 -0.0741
 3432W        W18901  10.225  14.737  12.014 -0.0186  0.3441 -0.1025
 3433W        W18902   2.469  14.837   2.703 -0.3178  0.2926  0.2336
 3434W        W18903   5.232   4.198  16.128  0.1170  0.0781  0.0516
 3435W        W18904  10.240   0.465  10.843 -0.4591  0.0221  0.0737
 3436W        W18905  14.278   4.576   1.224  0.3165 -0.1187  0.0120
 3437W        W18906  13.041   9.172   0.805 -0.1105  0.2711 -0.0613
 3438W        W18907   4.339  16.796   1.690 -0.0749 -0.0798 -0.0860
 3439W        W18908  16.665   5.144  14.827  0.1544  0.1926 -0.2107
 3440W        W18909   2.148   2.114  11.814  0.1206  0.0019  0.2517
 3441W        W18910  17.981   9.503   0.333 -0.3406 -0.0330  0.1304
 3442W        W18911   6.530   6.549  16.008 -0.2602  0.0867  0.1747
 3443W        W18912  14.000   4.768  15.110 -0.2392  0.2094 -0.3361
 3444W        W18913  10.340   1.073  14.072 -0.1743 -0.0585  0.3039
 3445W        W18914  14.470   5.803   1.443  0.0829  0.0004  0.0425
 3446W        W18915  16.066  13.274   4.533  0.1354 -0.1935 -0.1760
 3447W        W18916   1.399  16.378   0.331  0.2489 -0.0178 -0.1225
 3448W        W18917   7.564  12.067   0.926  0.2727  0.1026 -0.2364
 3449W        W18918   1.994   3.132   3.936 -0.0421 -0.0945  0.0127
 3450W        W18919   9.578  11.696  12.554  0.1325 -0.1992 -0.4897
 3451W        W18920   1.479   3.385   0.367 -0.0543  0.1466  0.0918
 3452W        W18921  11.982  13.331  13.851 -0.0757  0.0163  0.0370
 3453W        W18922   2.028  10.116  11.271  0.2047 -0.0728 -0.0143
 3454W        W18923   1.451   6.322   5.562 -0.1522 -0.0848 -0.0591
 3455W        W18924   2.925  16.196   4.179  0.1530 -0.0820  0.0582
 3456W        W18925   0.507   2.103   2.930  0.2813  0.1763 -0.4036
 3457W        W18926   1.506   2.574   3.796  0.0644  0.0246  0.1361
 3458W        W18927   1.249   6.543  10.900 -0.0860 -0.0322  0.1721
 3459W        W18928   0.685   0.923   0.945  0.1622 -0.0036  0.2762
 3460W        W18929   2.008   8.721   2.365  0.0533  0.0308  0.0029
 3461W        W18930  11.215  12.288  14.060  0.1780  0.0311 -0.0256
 3462W        W18931   9.113  12.301   0.658  0.1672  0.2021 -0.1497
 3463W        W18932   0.647  16.906  12.224  0.0561 -0.0254 -0.1976
 3464W        W18933  12.918  14.344  12.592 -0.1525 -0.0563 -0.0774
 3465W        W18934  12.580   6.027   0.284 -0.1364  0.2601  0.1098
 3466W        W18935  10.760  15.233  11.582  0.3567  0.4563  0.2220
 3467W        W18936   0.411   0.312  12.326  0.1713 -0.0112 -0.1587
 3468W        W18937   2.412   0.050   1.726  0.0234  0.0421 -0.0638
 3469W        W18938   3.608  13.042   1.071  0.0479  0.0831  0.1843
 3470W        W18939   5.664  15.756   4.383  0.1369  0.4253 -0.0363
 3471W        W18940  11.300  13.283   4.577  0.2126 -0.1926 -0.0952
 3472W        W18941   7.236  15.626   2.184 -0.0079 -0.0494 -0.0736
 3473W        W18942   2.076   3.608   4.691 -0.0357 -0.0096 -0.1846
 3474W        W18943  18.240   7.864   0.084 -0.0291 -0.1136 -0.0221
 3475W        W18944  17.409  10.281  11.811 -0.3117  0.1127  0.0597
 3476W        W18945   0.616   9.814   3.709  0.0116  0.0562  0.1302
 3477W        W18946  14.172   5.197   3.094  0.0436  0.1230 -0.0804
 3478W        W18947   2.593   4.821  15.221 -0.1963  0.2095  0.1883
 3479W        W18948  13.093  13.806   3.218 -0.1014 -0.2478 -0.1025
 3480W        W18949   8.041  15.213   1.534  0.0316  0.1402  0.3412
 3481W        W18950  17.266   5.547  11.868 -0.2361  0.0351 -0.0694
 3482W        W18951  12.204   7.598   2.437  0.0023 -0.1505  0.0157
 3483W        W18952   0.688  10.855   3.416  0.3847 -0.2263  0.2542
 3484W        W18953   5.002   3.810  14.927  0.0416  0.1356  0.0378
 3485W        W18954  12.728   4.065   3.935  0.0415  0.1973  0.0652
 3486W        W18955  13.037  10.356  14.006 -0.2201 -0.5531  0.1441
 3487W        W18956  13.550   2.334   0.811 -0.1436  0.1255 -0.0201
 3488W        W18957   2.806  16.096   0.978  0.1515 -0.3335  0.0895
 3489W        W18958  14.925   9.118   1.098 -0.1451  0.2724 -0.2191
 3490W        W18959  12.317   9.888   2.919 -0.0599 -0.3607  0.0052
 3491W        W18960  11.453   8.737   0.360  0.0292  0.0339 -0.0614
 3492W        W18961   6.473  11.013  13.863  0.0324  0.0862 -0.1241
 3493W        W18962   9.703  14.368   3.769 -0.1877  0.0752  0.0982
 3494W        W18963   3.242  17.727   0.745  0.1183  0.0755 -0.0571
 3495W        W18964   0.225  13.757  12.191  0.2797  0.1796  0.2355
 3496W        W18965  12.462   2.930  12.816  0.2092  0.1015  0.0656
 3497W        W18966   1.278   9.874   1.496 -0.1317 -0.3577  0.3861
 3498W        W18967   4.040   3.860  14.814  0.3116  0.1966  0.2825
 3499W        W18968  15.336   0.117   5.336 -0.1524 -0.1391 -0.0508
 3500W        W18969   3.917   2.178   0.035  0.0042  0.1560  0.0566
 3501W        W18970  11.194   4.862   4.380  0.0676 -0.0494  0.0638
 3502W        W18971   8.988   7.149  12.356 -0.3671  0.1972  0.0390
 3503W        W18972  14.385  15.371   2.063 -0.0457  0.0242 -0.2091
 3504W        W18973  16.759   2.044   2.147  0.2835  0.1694 -0.1075
 3505W        W18974  13.601  16.675   3.621  0.0115  0.1738 -0.0289
 3506W        W18975  11.380   3.711  12.525 -0.0559  0.2207 -0.0375
 3507W        W18976  15.748   8.705  12.278 -0.3016  0.4573 -0.1041
 3508W        W18977  12.317  11.005  13.658  0.1366 -0.0983  0.3716
 3509W        W18978   6.409  12.797  15.938  0.0441  0.2882  0.0264
 3510W        W18979   0.195  15.364  15.056 -0.2127 -0.1055  0.0521
 3511W        W18980  17.733   5.978   3.534  0.5618  0.3295 -0.1189
 3512W        W18981  17.956  16.926   0.282 -0.1585 -0.0186  0.5313
 3513W        W18982   3.658   0.432  10.905 -0.0523  0.0909  0.1477
 3514W        W18983  10.893   2.298   4.070  0.1946 -0.0786 -0.0631
 3515W        W18984   9.166  17.846   0.355 -0.0146  0.0946  0.2823
 3516W        W18985   0.517   3.258  14.891 -0.1084  0.2987  0.1753
 3517W        W18986  12.729   1.101   0.677 -0.2306  0.2408 -0.1322
 3518W        W18987  14.438  15.586  14.611 -0.1608 -0.0369 -0.2704
 3519W        W18988  17.161   2.154   3.767  0.4121  0.0501  0.3597
 3520W        W18989   1.850  17.195  14.453  0.3195  0.0010  0.1709
 3521W        W18990   4.850  11.521   2.228  0.2534 -0.2775  0.2166
 3522W        W18991   5.930  15.826  13.666  0.1275 -0.1354  0.1092
 3523W        W18992   3.220  12.716   2.631 -0.1871  0.2906 -0.2555
 3524W        W18993  10.881   3.009  12.814  0.0321 -0.2715  0.1711
 3525W        W18994   1.569  18.067   4.327  0.4282 -0.1531  0.3701
 3526W        W18995  13.310   9.123   3.200 -0.2099 -0.0158  0.1504
 3527W        W18996  11.523   8.119  14.322  0.0784 -0.0686 -0.0240
 3528W        W18997  11.201   6.726  11.638 -0.3782  0.0406  0.1279
 3529W        W18998   7.621   0.737   4.701 -0.0151  0.0993  0.1346
 3530W        W18999   8.179  12.553  15.921 -0.0741 -0.0723 -0.0067
 3531W        W19000  17.962  15.149   1.932  0.1001 -0.0654 -0.0002
 3532W        W19001   0.996  17.315  11.972 -0.1296 -0.0260  0.0275
 3533W        W19002  16.820   9.318   4.293  0.3689  0.1295  0.4507
 3534W        W19003  12.790  16.099   1.533  0.0285  0.0171  0.2336
 3535W        W19004  17.907   2.412   5.737  0.2638 -0.3139 -0.4184
 3536W        W19005   5.873   7.543  10.449 -0.0197 -0.3510 -0.2558
 3537W        W19006  14.303  10.345  14.385 -0.1147  0.0751  0.2215
 3538W        W19007  11.381  12.949  11.014 -0.0143 -0.2443  0.0787
 3539W        W19008   3.540   4.618  12.560  0.1017 -0.0149  0.1243
 3540W        W19009  15.734  12.672   0.911 -0.2277 -0.0098 -0.2975
 3541W        W19010   1.188  18.043  11.577 -0.1421  0.0607 -0.1891
 3542W        W19011   5.719   7.178  15.248 -0.2318 -0.3411 -0.2916
 3543W        W19012  12.103  16.894   2.742  0.1501 -0.1925  0.0494
 3544W        W19013  11.950   3.530   5.345  0.0001 -0.2216 -0.2509
 3545W        W19014   7.560  15.312   5.076 -0.1724 -0.2149 -0.0270
 3546W        W19015  13.858   3.458  13.703  0.1017 -0.0899  0.0223
 3547W        W19016  12.570   8.607   4.234  0.1856 -0.2672 -0.1226
 3548W        W19017   4.304  16.977  13.021  0.0824 -0.1755  0.0900
 3549W        W19018   3.687   9.609   2.413 -0.0922  0.0638 -0.0921
 3550W        W19019  12.951  15.119   3.318 -0.0752 -0.1221 -0.0953
 3551W        W19020  11.897  11.828   0.224 -0.0165 -0.1243  0.1738
 3552W        W19021   4.060  15.099  10.933 -0.1009  0.2565  0.3013
 3553W        W19022   8.885  15.344   2.312  0.1776 -0.2442 -0.0173
 3554W        W19023   9.061  14.859   3.543 -0.0122 -0.0640 -0.2668
 3555W        W19024   7.264  11.091  15.032  0.0074 -0.2216  0.0013
 3556W        W19025  11.226   2.553   2.528  0.3266  0.0762  0.0086
 3557W        W19026   6.303   9.286  15.192  0.0351 -0.2354 -0.4818
 3558W        W19027   3.663   6.257   3.662  0.1560 -0.0868  0.1519
 3559W        W19028  16.662  14.435   0.680 -0.2208 -0.0530  0.1027
 3560W        W19029   0.230   5.811  15.631  0.2261  0.2025  0.1258
 3561W        W19030  12.886   3.565  15.887  0.1402 -0.0976 -0.3163
 3562W        W19031   5.637   6.230  15.460 -0.0500  0.1625  0.2848
 3563W        W19032   2.194  16.495   5.495  0.1238 -0.1558  0.0602
 3564W        W19033   2.468   9.987   1.192 -0.1268  0.2634  0.0493
 3565W        W19034  14.649   6.974   0.006  0.2588 -0.1658  0.2818
 3566W        W19035   2.119   7.094  13.258 -0.2224  0.3485  0.2000
 3567W        W19036  13.424  14.291  13.118 -0.2024  0.1536  0.1670
 3568W        W19037   2.112  11.746  12.415 -0.0540  0.2371  0.1243
 3569W        W19038   5.613  14.952  15.856 -0.1881 -0.1791  0.1608
 3570W        W19039   7.018  17.770  14.249  0.0521  0.0688  0.0239
 3571W        W19040   8.579  12.744  15.764  0.1302  0.0223  0.3124
 3572W        W19041   9.496  11.675   9.877 -0.2163 -0.1966 -0.0502
 3573W        W19042  13.579  13.955  11.375 -0.4275 -0.0910  0.4117
 3574W        W19043  11.715  12.588  15.735 -0.4738  0.4172 -0.0025
 3575W        W19044   9.132   8.932   0.503  0.0005  0.2176 -0.0577
 3576W        W19045   2.978  18.030  12.421 -0.1378 -0.0701 -0.0157
 3577W        W19046   1.342  13.551  15.077  0.0581  0.0443 -0.1413
 3578W        W19047   4.299  14.501   5.786  0.2027  0.0895  0.3411
 3579W        W19048  13.167  15.635  11.573  0.1969 -0.4872 -0.0702
 3580W        W19049   1.843  16.670  11.249  0.1310  0.3332  0.1100
 3581W        W19050   1.097  16.218   2.899 -0.2805 -0.3496 -0.2001
 3582W        W19051   9.243   2.360  14.003  0.1335  0.0116 -0.1774
 3583W        W19052  11.472  10.019   5.691 -0.1271 -0.3268  0.2557
 3584W        W19053   6.785   3.965  12.466 -0.1081  0.1648  0.0312
 3585W        W19054  14.901   0.564   1.001 -0.0158  0.0837 -0.2567
 3586W        W19055   1.082  16.561  16.106 -0.0660 -0.1813  0.2376
 3587W        W19056   0.295  16.697  11.594 -0.1781  0.0836 -0.0199
 3588W        W19057   9.530  10.710   1.778  0.0058 -0.0748  0.0727
 3589W        W19058   3.271  18.113  15.206  0.1277 -0.0612  0.0478
 3590W        W19059   4.492  11.935   4.282 -0.1326 -0.1967 -0.0370
 3591W        W19060   3.746   2.294   3.753  0.1708  0.2546 -0.0489
 3592W        W19061   9.666   3.756  14.696 -0.2246  0.0083 -0.0441
 3593W        W19062  15.241   4.558  11.379  0.3584 -0.4594 -0.2172
 3594W        W19063  14.758  14.304   4.286  0.0104  0.1267  0.1210
 3595W        W19064  12.370  12.899  15.354 -0.1005 -0.0602 -0.1546
 3596W        W19065  16.439  10.661   1.402 -0.4022  0.0109  0.1576
 3597W        W19066  12.644   2.079   4.790  0.0595 -0.0272 -0.1820
 3598W        W19067  16.411  16.713   0.944  0.1058 -0.1094 -0.4152
 3599W        W19068  17.069  14.054  10.087  0.3530  0.0992  0.0411
 3600W        W19069   9.609   7.260  15.923 -0.2238  0.2717 -0.4149
 3601W        W19070  17.072   1.118   3.619  0.1792 -0.3157 -0.0597
 3602W        W19071  14.213  17.759  10.973 -0.1073 -0.0023 -0.0012
 3603W        W19072  16.048   5.561  13.136  0.0810 -0.2448  0.0288
 3604W        W19073   1.431   7.877   2.626  0.0415 -0.1030  0.0821
 3605W        W19074   6.892  10.192  15.338  0.1474  0.1249 -0.1397
 3606W        W19075   7.195  15.979  12.086  0.1999 -0.3431  0.0677
 3607W        W19076  10.380  12.902   4.887 -0.0857  0.2965  0.0527
 3608W        W19077  17.077  10.793   1.646  0.3034  0.0810  0.2226
 3609W        W19078  12.654   0.368   0.200 -0.0454  0.0363  0.2150
 3610W        W19079  13.670   6.200  14.357  0.3106 -0.0058 -0.0974
 3611W        W19080  13.000   2.293   1.769 -0.1065  0.1061  0.0821
 3612W        W19081  15.521  13.373  13.301  0.0552  0.0021  0.0292
 3613W        W19082  15.901   5.480   2.517  0.0609  0.0001  0.0493
 3614W        W19083   7.869  17.866  11.819 -0.0184 -0.2247 -0.0707
 3615W        W19084   4.723   4.070  15.305  0.0174 -0.2549  0.1028
 3616W        W19085  16.920   0.632   5.774  0.0557 -0.2089  0.2060
 3617W        W19086  10.694  16.879   3.563 -0.4900  0.1035  0.1191
 3618W        W19087   9.082  11.894  14.532 -0.0769  0.3513  0.1307
 3619W        W19088  12.641  18.116   5.464 -0.0100  0.2955 -0.0811
 3620W        W19089  15.862   2.374  13.068 -0.0719 -0.1131  0.0593
 3621W        W19090   5.812   8.612  13.451  0.0779 -0.0098  0.0699
 3622W        W19091  13.895   3.346   4.379  0.1264 -0.2369  0.0607
 3623W        W19092   4.023  12.754  11.438  0.0073 -0.3319 -0.2183
 3624W        W19093   5.824  14.691   4.939  0.0460 -0.0896  0.0522
 3625W        W19094  15.104  17.114   5.178  0.1043  0.2133  0.0311
 3626W        W19095   8.526   1.877  13.375 -0.0434  0.0115  0.3228
 3627W        W19096   4.897  17.897  14.792 -0.1690  0.1029 -0.1282
 3628W        W19097   3.513   8.340   4.271  0.0624 -0.1706 -0.0724
 3629W        W19098   5.366  11.509   3.269  0.1628 -0.0839 -0.1110
 3630W        W19099   1.604  14.862  10.961  0.1378 -0.2582  0.0546
 3631W        W19100   9.668  17.084  14.438 -0.0110  0.0987  0.1496
 3632W        W19101   4.770   6.691   3.588  0.0299 -0.0751 -0.2476
 3633W        W19102   7.540   5.421  14.183  0.2231  0.2231 -0.1415
 3634W        W19103  14.818  11.132  14.568  0.0822  0.2491  0.0400
 3635W        W19104   2.851  11.638   5.777 -0.0900  0.1517 -0.0397
 3636W        W19105  18.103  12.263   2.364  0.0893 -0.0643 -0.1521
 3637W        W19106  14.843   6.046  14.869 -0.1693 -0.1549 -0.1953
 3638W        W19107   0.264  13.074   3.688 -0.2295  0.1740 -0.2742
 3639W        W19108  14.060   3.776   0.543  0.1145  0.2137  0.0051
 3640W        W19109  16.708   8.840   6.209 -0.1052  0.0483 -0.0560
 3641W        W19110   6.716  14.990   3.011 -0.2412  0.1608 -0.2050
 3642W        W19111   0.045  15.349   4.050 -0.0052 -0.0140  0.5213
 3643W        W19112   1.866   8.577   3.699  0.0895  0.2103 -0.1045
 3644W        W19113  17.558   7.302  15.066 -0.0545 -0.0915  0.4627
 3645W        W19114   7.334   0.539  15.328  0.0611  0.0551  0.3818
 3646W        W19115   7.713   0.402   4.254  0.1077  0.0769  0.3553
 3647W        W19116   1.464   9.948   5.248  0.0226 -0.0429  0.2299
 3648W        W19117   1.912  12.122   1.556  0.0800 -0.1355  0.0081
 3649W        W19118  13.244   9.660   0.843  0.2818  0.0884 -0.1701
 3650W        W19119   8.472  11.467   0.611 -0.0347  0.0122 -0.2234
 3651W        W19120  14.248   2.310  15.430 -0.1903  0.0372 -0.3306
 3652W        W19121  12.762  15.642   1.697 -0.2036 -0.2737 -0.2381
 3653W        W19122  16.211   8.774  14.553 -0.3512 -0.2503  0.0355
 3654W        W19123   4.484   5.451   3.264 -0.0712 -0.1263  0.3245
 3655W        W19124   1.624  11.913  14.480 -0.0113  0.2380  0.3262
 3656W        W19125  10.843  15.660  14.635 -0.1069  0.0930  0.3928
 3657W        W19126  16.801  10.203   3.859 -0.0611  0.0698  0.0942
 3658W        W19127   9.425  10.501   0.887  0.3510  0.4526  0.1378
 3659W        W19128   9.040  16.967  11.403  0.2322  0.0893  0.0892
 3660W        W19129   3.696  17.008  14.491 -0.0007  0.2709  0.3422
 3661W        W19130   7.528   8.885   0.653  0.1515  0.0864  0.0134
 3662W        W19131   1.526  10.605  11.491  0.1842 -0.2319  0.0556
 3663W        W19132  10.149  10.578  11.739  0.1586  0.0908  0.2596
 3664W        W19133   5.884   2.490   1.756 -0.0977  0.2472 -0.1969
 3665W        W19134  11.091   4.198   0.315  0.1483  0.0151 -0.1362
 3666W        W19135  17.049  17.460  14.067 -0.1916 -0.1363  0.1741
 3667W        W19136   0.055   5.758  16.151  0.0621  0.1424  0.0886
 3668W        W19137  17.730   5.146  14.441 -0.1168 -0.0014  0.0793
 3669W        W19138   5.676  11.729  15.101 -0.0776  0.1929  0.3073
 3670W        W19139   8.796   2.977   4.780  0.1376 -0.1634 -0.1296
 3671W        W19140   7.142   5.117  11.000 -0.0454  0.1604  0.2319
 3672W        W19141   9.372  10.766  12.849 -0.2884  0.0489  0.0260
 3673W        W19142   2.191   3.811   5.282 -0.2640  0.3928  0.0012
 3674W        W19143   4.702   6.474   2.800  0.2036  0.1680  0.1175
 3675W        W19144   3.419  17.010   1.667  0.1174  0.1979 -0.2605
 3676W        W19145  12.675   7.346   6.172  0.1422 -0.2518 -0.1752
 3677W        W19146   7.720   1.152   0.343  0.3494  0.1499  0.1162
 3678W        W19147   0.284  13.252  11.010  0.5201  0.4158  0.0345
 3679W        W19148   9.754   5.228  12.018  0.1213 -0.0229 -0.0236
 3680W        W19149   8.138   3.697  12.041  0.2813  0.1767 -0.0763
 3681W        W19150   1.952  12.545  15.148  0.0590 -0.4469 -0.3569
 3682W        W19151   1.030  12.897  14.265  0.0213  0.2228  0.3089
 3683W        W19152   7.256   2.602   3.961  0.1168 -0.0505  0.1890
 3684W        W19153  10.872   1.229   1.635  0.0588  0.0037 -0.1248
 3685W        W19154  11.817   1.581   3.771 -0.0412 -0.2515  0.0877
 3686W        W19155   0.211   6.676   4.043  0.2362 -0.2319  0.2308
 3687W        W19156   3.846  13.253   1.502  0.3764  0.0983  0.0472
 3688W        W19157   1.338   1.404  12.226  0.0176  0.0596 -0.0189
 3689W        W19158   7.487   3.982   2.498 -0.1409  0.1650  0.0880
 3690W        W19159   0.801   3.625  15.566 -0.0587 -0.0695 -0.0692
 3691W        W19160  14.178   0.050   0.066  0.2717 -0.1703 -0.1576
 3692W        W19161  13.727   7.293   1.874 -0.1110  0.0130  0.0394
 3693W        W19162   8.599  12.405  12.808  0.0672  0.0489  0.0766
 3694W        W19163  17.231  13.288  13.343  0.1562 -0.3071  0.0411
 3695W        W19164  14.329   7.079  12.517  0.0390 -0.2064 -0.1605
 3696W        W19165   0.320  12.017   4.639 -0.0150  0.4007 -0.0205
 3697W        W19166  12.403   1.406   0.989 -0.1407 -0.0247  0.1283
 3698W        W19167  16.456  11.112  11.108 -0.0166  0.0587  0.1464
 3699W        W19168   0.805  11.317   4.603  0.2114 -0.1812  0.2908
 3700W        W19169   1.924   4.234   0.528  0.1794  0.1483  0.0668
 3701W        W19170  15.186   9.230  13.932 -0.3285  0.0066 -0.1971
 3702W        W19171   4.108  12.554  14.628 -0.1169  0.1064  0.0406
 3703W        W19172   6.493  14.037  12.238  0.1406 -0.1263 -0.2391
 3704W        W19173   6.954   2.754  13.713  0.0129  0.2770  0.0562
 3705W        W19174  13.628  12.478   4.557  0.0730  0.0211 -0.1797
 3706W        W19175   3.187  11.594   4.234  0.0597  0.0202 -0.2154
 3707W        W19176  17.800  12.600   0.244  0.1372  0.2164 -0.0409
 3708W        W19177  13.002  14.739  13.025  0.1497  0.0409 -0.0209
 3709W        W19178   4.599   4.084   5.172  0.0845  0.2865 -0.0497
 3710W        W19179  10.311   4.547  15.935  0.2895 -0.0548  0.1762
 3711W        W19180  16.701   0.051   0.741 -0.2136  0.0262  0.1095
 3712W        W19181   2.778  17.473  13.996  0.2091  0.0582 -0.2324
 3713W        W19182   0.229   5.481   4.746  0.0878  0.1577  0.0713
 3714W        W19183  13.501  10.844  11.070  0.0478  0.1276  0.4235
 3715W        W19184   2.290  12.731  14.408 -0.2398  0.0068 -0.3097
 3716W        W19185   2.947   0.731  13.103 -0.0755  0.0266 -0.1879
 3717W        W19186  10.625   7.773   3.860 -0.0278 -0.0181 -0.0432
 3718W        W19187   8.903  17.852  15.384  0.2369 -0.2796 -0.1811
 3719W        W19188   8.204   9.758   5.063  0.2052  0.0807  0.1230
 3720W        W19189   4.958   5.451   3.517  0.2457  0.0888  0.4698
 3721W        W19190  10.508  12.303   4.963  0.1574 -0.1573  0.1113
 3722W        W19191   1.656  12.533  16.074  0.0009  0.1711  0.0404
 3723W        W19192  13.411   8.187  12.584  0.0603 -0.1937 -0.1011
 3724W        W19193   3.623   7.928  12.135 -0.0305  0.3819 -0.2832
 3725W        W19194  17.281   5.260  15.475 -0.1342  0.0801  0.0164
 3726W        W19195  12.020  15.030   2.343  0.0488  0.2911 -0.0129
 3727W        W19196   5.450  15.353  10.953  0.2649 -0.0972 -0.1354
 3728W        W19197   2.049   9.960  12.023 -0.0909 -0.1698  0.2338
 3729W        W19198  15.165   0.953   1.114 -0.0565 -0.3199  0.0495
 3730W        W19199   8.327  12.530   3.304  0.2190  0.3365 -0.0934
 3731W        W19200  13.302   5.457   5.655  0.0435 -0.0082  0.1676
 3732W        W19201  17.759  14.440  12.061 -0.0483  0.3697 -0.0776
 3733W        W19202   1.880  12.026   2.051  0.2570  0.0498  0.0176
 3734W        W19203   5.796   2.297  11.624 -0.0679 -0.0118 -0.3557
 3735W        W19204  14.534   8.656   0.671  0.2381 -0.2144 -0.1337
 3736W        W19205   8.341   8.255  12.737 -0.1469 -0.0898 -0.1302
 3737W        W19206   1.049  11.105   2.079 -0.1772  0.1550 -0.2447
 3738W        W19207  13.635   2.227   1.323  0.1004  0.2804  0.3130
 3739W        W19208  15.963   7.165   1.430 -0.0483  0.0497 -0.3243
 3740W        W19209  10.377  12.223   1.292  0.1018 -0.0586  0.1430
 3741W        W19210   7.348   9.075   1.110 -0.0379  0.3016  0.2360
 3742W        W19211   1.836  16.313   1.263 -0.0710 -0.0817  0.1855
 3743W        W19212  10.729   0.225   2.522  0.1826  0.0339 -0.2187
 3744W        W19213  17.934  13.949   0.009  0.0146  0.0593  0.0224
 3745W        W19214  10.154  17.630  13.597 -0.1034  0.0271 -0.1467
 3746W        W19215  14.579  10.032  10.913 -0.1565 -0.0774  0.0156
 3747W        W19216  18.015   6.664  12.902 -0.1585 -0.1841  0.0266
 3748W        W19217  15.730   5.296   2.945  0.0867  0.1362 -0.1982
 3749W        W19218   8.007   4.073   5.754  0.1956  0.1672 -0.0141
 3750W        W19219   2.357  10.279  14.151  0.0395  0.2172  0.1641
 3751W        W19220   3.599   4.637   0.936  0.1583  0.1741  0.3573
 3752W        W19221   1.891   6.947   5.053 -0.3125 -0.1242  0.3082
 3753W        W19222  14.613  14.444   2.714 -0.1690 -0.2347 -0.0819
 3754W        W19223   5.718   8.354   0.366 -0.0024  0.4055  0.0113
 3755W        W19224  12.699   3.773   0.754  0.2481  0.1253  0.2452
 3756W        W19225  12.107   6.863   4.082 -0.0517 -0.0794  0.0149
 3757W        W19226  18.228  15.337   3.182  0.3297 -0.1443 -0.0317
 3758W        W19227  13.641   0.528   0.287  0.1763 -0.1432  0.1193
 3759W        W19228   5.389  14.270   1.537 -0.3199  0.2202 -0.0670
 3760W        W19229  16.625  12.503   4.873  0.0490 -0.1645 -0.0608
 3761W        W19230   6.220  10.212  11.499  0.0708 -0.2266 -0.2375
 3762W        W19231  16.777  17.439   6.168 -0.0030 -0.0149  0.0273
 3763W        W19232   4.855   3.557  15.468  0.1463 -0.1942 -0.2773
 3764W        W19233   7.232   2.767  14.188  0.0021 -0.0871 -0.1045
 3765W        W19234   9.553   7.118  13.359 -0.1553  0.1594 -0.2913
 3766W        W19235  15.751   1.565  13.543  0.1185 -0.0103  0.0200
 3767W        W19236   5.937   0.773   5.065  0.1630  0.2350 -0.1624
 3768W        W19237  13.900   7.711   5.205 -0.0089  0.0026  0.3069
 3769W        W19238   1.041  10.258  13.683 -0.0818 -0.3115  0.1439
 3770W        W19239  15.669   4.682  11.691 -0.0022  0.0193 -0.4913
 3771W        W19240   6.320  10.557  14.068  0.0531 -0.2047  0.1380
 3772W        W19241   2.024  11.107   3.656  0.1800 -0.0703 -0.4090
 3773W        W19242  12.291  10.078   5.050 -0.4493  0.0986  0.1073
 3774W        W19243   3.875   6.405   1.729 -0.1910  0.6070 -0.2339
 3775W        W19244   0.563   0.887   2.041 -0.1686  0.0496 -0.1758
 3776W        W19245   2.280  16.652  15.474  0.1717  0.2447  0.1292
 3777W        W19246   3.011   9.365   0.606 -0.0402 -0.0146 -0.1501
 3778W        W19247  16.386   2.330   3.553  0.4508  0.0527 -0.0904
 3779W        W19248   3.204  15.090  15.453  0.2888  0.2671 -0.0194
 3780W        W19249   5.439  17.312   2.845  0.4121  0.2031  0.0342
 3781W        W19250  15.925   5.006   4.544  0.1559  0.0432 -0.2471
 3782W        W19251   7.130   9.970  15.700 -0.0144 -0.2316  0.2105
 3783W        W19252  11.737   4.012  15.007  0.0538  0.1482  0.1927
 3784W        W19253   4.160   2.928  15.676 -0.1692  0.1414 -0.3428
 3785W        W19254  10.090  11.507   1.270 -0.1114  0.0914  0.1802
 3786W        W19255   4.828   2.713   1.840  0.0348 -0.0932  0.0647
 3787W        W19256  14.700  12.951  15.221  0.1801  0.0204 -0.1354
 3788W        W19257   3.415  11.322  15.215  0.2467 -0.0547  0.2809
 3789W        W19258  13.185   0.633  11.214  0.4424  0.0366 -0.1017
 3790W        W19259  17.287   2.248  15.199  0.3665 -0.2780  0.0095
 3791W        W19260   3.622   1.345  12.536  0.0407  0.0021 -0.1993
 3792W        W19261   7.428   4.570  16.134 -0.0280  0.2515  0.0142
 3793W        W19262  17.913  11.124  14.127  0.0851 -0.0910  0.2011
 3794W        W19263   9.649  12.157  13.855  0.1029 -0.3426  0.0938
 3795W        W19264   3.559   4.539   3.956 -0.2724  0.3606  0.0098
 3796W        W19265   4.175   2.630   4.496  0.2198 -0.0356  0.0254
 3797W        W19266  13.511   6.106  11.112 -0.0343  0.1640  0.0544
 3798W        W19267   4.708   7.390  12.984 -0.1677 -0.0060 -0.0397
 3799W        W19268   3.123  13.366  14.541  0.0451  0.0244 -0.0985
 3800W        W19269  13.257   5.949  11.540 -0.3908  0.0286  0.0703
 3801W        W19270  16.144  16.601   4.108  0.2203 -0.2526 -0.1294
 3802W        W19271  17.659   3.195  15.676 -0.0330  0.0900 -0.0393
 3803W        W19272  11.627   9.170  13.207  0.0562 -0.0341  0.2217
 3804W        W19273   4.378   8.470  13.041 -0.2809  0.0238 -0.2226
 3805W        W19274   7.933  12.079   4.857  0.0596  0.0785 -0.0478
 3806W        W19275  17.880  14.904  14.134 -0.3581  0.1180  0.2224
 3807W        W19276  17.200   9.759  14.034  0.0147 -0.0956 -0.0039
 3808W        W19277  17.894   3.883  14.845 -0.0954 -0.0562  0.0968
 3809W        W19278   1.692  11.020  11.150  0.3075 -0.1409  0.1521
 3810W        W19279  15.419   7.883  11.173 -0.0630 -0.1775 -0.0436
 3811W        W19280  12.311  17.216  10.792  0.1073  0.0773  0.0469
 3812W        W19281  17.701   1.396   1.697  0.1639  0.1437  0.1552
 3813W        W19282   1.405   6.536  13.099  0.1272  0.0114  0.1976
 3814W        W19283  17.326  11.893   3.708 -0.1971  0.0620 -0.0340
 3815W        W19284   7.256   4.989  15.695 -0.2378 -0.2527 -0.1176
 3816W        W19285   6.808  14.383  12.125  0.1017  0.0064  0.1980
 3817W        W19286   0.619  17.233   0.298 -0.0799 -0.0254  0.1403
 3818W        W19287   6.212   2.697  11.816  0.2048 -0.3260 -0.3771
 3819W        W19288   5.622  16.602   2.592  0.2142 -0.2384 -0.2002
 3820W        W19289   9.654   7.647  11.703  0.1658 -0.3809  0.0692
 3821W        W19290  12.540   2.692   1.911 -0.1915 -0.2121 -0.3075
 3822W        W19291  10.552  17.103  12.144  0.1051 -0.0027  0.3270
 3823W        W19292  12.334   7.761   4.569 -0.3507  0.0824 -0.0331
 3824W        W19293   8.692   8.479  13.010 -0.0035 -0.2716 -0.1483
 3825W        W19294  14.137  13.335   4.325 -0.0085 -0.1493  0.1004
 3826W        W19295  18.184   5.426   0.303  0.0609 -0.0030  0.2285
 3827W        W19296   1.040   2.721  12.790 -0.1086  0.1975  0.1984
 3828W        W19297   2.667  12.106  13.751  0.1608  0.2645 -0.1456
 3829W        W19298  12.543   9.392   4.584  0.2014  0.1810  0.0327
 3830W        W19299  13.860  10.970   0.457  0.0714 -0.1226  0.0957
 3831W        W19300   7.354  10.314  13.561  0.0906  0.1095  0.3382
 3832W        W19301   6.099   1.670  13.626  0.0155 -0.1491 -0.0425
 3833W        W19302   8.939  10.527   1.044  0.1119  0.2599  0.1134
 3834W        W19303  16.862  11.628   4.749 -0.0377 -0.0981  0.1302
 3835W        W19304  13.010   1.442   5.273  0.0365 -0.2490  0.1609
 3836W        W19305   6.769   8.526   5.039  0.0553 -0.1295  0.0284
 3837W        W19306  13.418  11.057  15.110 -0.0150 -0.2669 -0.0456
 3838W        W19307  12.901   8.046   3.085 -0.1009  0.0784 -0.2329
 3839W        W19308  13.647   6.983   1.403 -0.2375  0.2488  0.1263
 3840W        W19309   2.747  12.513   4.791 -0.1378  0.1133 -0.2680
 3841W        W19310  17.531   0.791  13.164 -0.0997  0.2028 -0.1033
 3842W        W19311  17.093   1.695   2.927  0.0666  0.1373  0.0796
 3843W        W19312   0.741  18.161  12.276  0.0551 -0.0223  0.4269
 3844W        W19313  12.739  10.540  10.596 -0.1345 -0.1354  0.0994
 3845W        W19314  13.534   0.296   5.498 -0.1388 -0.2227 -0.0468
 3846W        W19315   9.709   8.257  14.208  0.1498 -0.6451  0.2308
 3847W        W19316  15.215   8.848  15.806  0.0994  0.2459  0.0950
 3848W        W19317   9.511  10.831   4.495 -0.0412 -0.0716  0.0203
 3849W        W19318   6.506   1.594   5.915 -0.0933  0.2603  0.1540
 3850W        W19319   2.589   9.838  12.113  0.0619  0.1110 -0.2418
 3851W        W19320   3.226   6.786  15.256 -0.1367 -0.1111 -0.0142
 3852W        W19321  13.699  10.812  13.776  0.4005  0.1333 -0.1016
 3853W        W19322   8.652  17.711  11.776 -0.2179  0.1933  0.1504
 3854W        W19323   5.149   4.145   2.528 -0.2075  0.2996 -0.1755
 3855W        W19324   7.322   9.374  13.824  0.0045  0.0218  0.1191
 3856W        W19325   0.730   1.784   1.514  0.0051  0.3497  0.1186
 3857W        W19326  17.253  16.628   4.858 -0.1730 -0.0942 -0.5151
 3858W        W19327   2.478  13.382   3.772  0.1442  0.2601 -0.1490
 3859W        W19328  15.091  14.666  13.518  0.0588 -0.1527  0.4186
 3860W        W19329  13.369  15.220  13.816 -0.0271 -0.0097  0.5509
 3861W        W19330  16.051   7.714   3.537 -0.1821 -0.1353 -0.0698
 3862W        W19331   1.275  12.030   0.899  0.4804 -0.0406 -0.3698
 3863W        W19332  17.257   4.538   3.786 -0.1226  0.0168 -0.0959
 3864W        W19333   3.609   3.298  11.184 -0.2959  0.0560  0.3396
 3865W        W19334  18.126  13.215  13.631 -0.2235  0.1678  0.2160
 3866W        W19335   1.030   9.878  14.960  0.4032  0.0917 -0.0924
 3867W        W19336   2.706   8.599   3.128 -0.2582 -0.1537 -0.0552
 3868W        W19337   8.026   7.339   2.555 -0.4640  0.2007  0.0727
 3869W        W19338   8.158   0.572   2.678  0.0948  0.1243  0.0293
 3870W        W19339  17.127   9.758  10.927 -0.5029  0.0493  0.0502
 3871W        W19340  13.561   4.106   0.500 -0.0374  0.1052  0.1147
 3872W        W19341  15.226   0.870  15.339 -0.1651  0.1714  0.0172
 3873W        W19342   3.218   3.245  11.578 -0.1756 -0.0659 -0.0200
 3874W        W19343  15.331  11.843   5.017 -0.0297  0.2292 -0.2799
 3875W        W19344   5.842  16.975  14.937  0.1764 -0.2340 -0.1606
 3876W        W19345   1.372   7.843   3.253 -0.0482  0.6522  0.0626
 3877W        W19346   5.211   4.491   0.370 -0.0218 -0.1586 -0.1824
 3878W        W19347  18.183  12.520  16.018  0.0200  0.0436  0.0342
 3879W        W19348   5.324   8.134   1.746  0.0051 -0.3018 -0.3404
 3880W        W19349  12.328   2.543  11.807  0.0850 -0.2441  0.2549
 3881W        W19350   1.331  16.819  12.926 -0.2598  0.0806  0.0086
 3882W        W19351  16.910   7.269   3.421 -0.2273  0.1674  0.1059
 3883W        W19352  17.125  10.254   0.378  0.0569  0.1730 -0.2410
 3884W        W19353  14.752  12.367  12.218  0.2442 -0.1527  0.0060
 3885W        W19354  13.790   5.930  13.868  0.0078  0.2261  0.1259
 3886W        W19355  10.489   9.953   4.800  0.3461 -0.1857  0.0270
 3887W        W19356  10.170   5.132   3.233  0.1433  0.1399  0.1052
 3888W        W19357  15.513   3.312  13.072  0.0624  0.2933  0.3046
 3889W        W19358   9.073   1.466   1.922 -0.0806  0.2572  0.1381
 3890W        W19359   8.917  16.444   0.930  0.0710 -0.0722 -0.0939
 3891W        W19360  17.954   7.213   2.424  0.1171 -0.2960 -0.4345
 3892W        W19361  16.776   2.941   1.732  0.0661 -0.3092 -0.1516
 3893W        W19362  12.703   8.549  15.100  0.0422  0.0792 -0.3931
 3894W        W19363   5.163   6.680   6.178  0.0063 -0.0197  0.0180
 3895W        W19364  11.862   7.255   3.830  0.1044  0.0748  0.1397
 3896W        W19365  10.167   9.634  11.260 -0.0364 -0.1160  0.1221
 3897W        W19366  15.215  12.375  12.320  0.2025  0.0509 -0.1323
 3898W        W19367   5.596   7.782  13.647  0.1335  0.0844 -0.1523
 3899W        W19368   1.633   0.288   5.264 -0.0673  0.1539 -0.2136
 3900W        W19369   5.309   8.674   1.727 -0.0336  0.2331  0.1745
 3901W        W19370   0.123  11.358  15.968 -0.0602 -0.0478  0.0535
 3902W        W19371  11.093  11.978   2.881  0.2054 -0.1819 -0.0664
 3903W        W19372   7.931   9.228  15.682 -0.1927 -0.0896  0.2654
 3904W        W19373  10.556  16.008   0.790  0.3065  0.1606  0.0185
 3905W        W19374  12.347   3.840  14.284  0.0903  0.0513 -0.0011
 3906W        W19375  13.491   6.803  13.663  0.1655 -0.1005 -0.0858
 3907W        W19376  18.153   6.414  13.473 -0.1059  0.1383  0.1535
 3908W        W19377  11.816  11.911  14.974  0.0804 -0.0611 -0.2280
 3909W        W19378  11.287  18.244  13.813 -0.2657  0.2066 -0.2058
 3910W        W19379  15.544  15.241   1.031  0.1524 -0.2143 -0.0357
 3911W        W19380   0.520   4.987  10.741  0.1359  0.2844 -0.1993
 3912W        W19381  18.006   0.062  15.444  0.2590  0.0531 -0.1140
 3913W        W19382   2.842   6.186  11.659 -0.0374  0.0046 -0.0351
 3914W        W19383   2.457   1.899  13.624 -0.0939 -0.4277  0.1325
 3915W        W19384   2.711   0.467   1.632 -0.1942  0.0777  0.2145
 3916W        W19385   4.039   4.979   2.375  0.0131  0.0486  0.1040
 3917W        W19386  11.026   4.365  13.749  0.2492  0.0177 -0.0304
 3918W        W19387   5.565  14.583   0.829 -0.0390 -0.1161 -0.0321
 3919W        W19388   7.439  18.131  14.857 -0.0186 -0.0431  0.0093
 3920W        W19389   3.763   8.194   0.483 -0.2708  0.2940 -0.2713
 3921W        W19390  14.362   2.860   1.479 -0.1781  0.0451 -0.3610
 3922W        W19391   7.883  16.196   3.338 -0.2388 -0.0914  0.1105
 3923W        W19392   4.371   2.418  15.013  0.3329 -0.3541  0.2001
 3924W        W19393   2.186   3.159  14.436  0.1245  0.0034 -0.1186
 3925W        W19394   0.426   8.491  12.979 -0.0062 -0.1382 -0.1319
 3926W        W19395  12.087   2.381  14.401 -0.0304  0.0226  0.3018
 3927W        W19396   1.095  15.606  12.578  0.0666  0.2107  0.1468
 3928W        W19397   7.175  13.768   2.502 -0.0140  0.0072  0.3113
 3929W        W19398  14.270   7.558   2.339  0.0428 -0.2781 -0.0681
 3930W        W19399  17.884  17.103   2.229 -0.1740 -0.2430 -0.1601
 3931W        W19400   1.728   1.165   4.115  0.0921 -0.0240 -0.3112
 3932W        W19401   4.941  18.251   4.219  0.0590 -0.0700 -0.2768
 3933W        W19402  11.758  10.185  14.737 -0.1082  0.2050  0.1713
 3934W        W19403   7.021  15.057   1.708  0.1346  0.2791 -0.0507
 3935W        W19404   2.215   6.756   3.698  0.0343  0.0097 -0.1934
 3936W        W19405   8.458   4.854   0.906  0.1187 -0.0525 -0.0242
 3937W        W19406   9.518   5.899  12.968 -0.0294  0.0627  0.1568
 3938W        W19407   0.166   2.321  14.277 -0.0768  0.0671 -0.0206
 3939W        W19408   0.640  16.626  10.347 -0.0904 -0.0756  0.1021
 3940W        W19409  17.850   3.301   0.095  0.0642 -0.2087  0.0709
 3941W        W19410   5.868  15.843  15.767 -0.1863 -0.0864  0.0724
 3942W        W19411   3.203   8.214   5.176 -0.0386 -0.0009 -0.1083
 3943W        W19412   9.204   3.331  13.109  0.0845  0.2770 -0.0194
 3944W        W19413  17.470  15.957  14.289  0.2517 -0.1147 -0.1841
 3945W        W19414   8.155   6.043  13.178  0.1320  0.0715 -0.0560
 3946W        W19415   4.700   4.418   2.957  0.0988  0.0665  0.1620
 3947W        W19416  14.526   2.708  12.473  0.3916  0.1038  0.0163
 3948W        W19417  10.178  13.343  11.772 -0.2202  0.3363  0.0134
 3949W        W19418  13.072  12.886  15.726 -0.1524 -0.0616 -0.0332
 3950W        W19419   0.725  11.759   4.884 -0.1626 -0.3772 -0.0463
 3951W        W19420  18.269   2.181   5.534  0.1453 -0.1709  0.2220
 3952W        W19421  15.461  12.630   4.828 -0.0153 -0.1932 -0.2231
 3953W        W19422   4.520   9.844  15.496  0.0921  0.2400 -0.2279
 3954W        W19423   4.167  18.075   3.881 -0.0562  0.1504  0.2259
 3955W        W19424   3.488  14.164   2.782 -0.1692 -0.0042 -0.0587
 3956W        W19425   4.508   1.045  13.946 -0.1289 -0.3108 -0.1028
 3957W        W19426  18.234   6.802   2.533 -0.0121  0.2242  0.0214
 3958W        W19427   5.924  17.810   0.033  0.0576 -0.0128 -0.1955
 3959W        W19428   6.646  11.115   0.536 -0.1030  0.0852 -0.0331
 3960W        W19429   0.079  13.987  15.971  0.0813  0.0096 -0.2084
 3961W        W19430   6.548  11.064   2.738 -0.0470  0.2823 -0.0914
 3962W        W19431  10.360  12.641   1.971 -0.1905  0.1092 -0.0401
 3963W        W19432   3.682  16.275   2.062  0.1583 -0.0372 -0.0249
 3964W        W19433  11.996   5.953  11.865 -0.1478 -0.1681 -0.3730
 3965W        W19434   9.314  17.429   3.295  0.2398  0.2601 -0.1168
 3966W        W19435  15.441  16.281  11.578 -0.0378 -0.2962 -0.0577
 3967W        W19436  17.930  12.282   1.229  0.1505 -0.4561 -0.2267
 3968W        W19437   2.135  10.420  14.603  0.1920 -0.0040  0.1137
 3969W        W19438   5.965   5.801  12.406 -0.1784  0.2064  0.3347
 3970W        W19439  16.630   0.568  15.340  0.1369 -0.0753 -0.3381
 3971W        W19440   9.112   9.008   1.029  0.1528 -0.4062 -0.0364
 3972W        W19441  17.754   2.010  12.081 -0.1059  0.1729 -0.0097
 3973W        W19442  17.340  16.105  12.114 -0.2162 -0.0204 -0.1493
 3974W        W19443   9.936  10.157   0.467 -0.2481 -0.1240  0.0407
 3975W        W19444   9.490  12.827  12.256 -0.3678  0.4035  0.0050
 3976W        W19445   3.425   8.493   2.273  0.1947  0.0213 -0.1230
 3977W        W19446   6.639   5.219  14.074 -0.0996  0.1486 -0.2253
 3978W        W19447  10.310   0.097  15.145 -0.0503  0.1583 -0.3021
 3979W        W19448   7.769  13.223  15.532  0.1780 -0.2831  0.0641
 3980W        W19449   1.907  17.571   0.939  0.0689  0.0133  0.0225
 3981W        W19450  15.736  17.566  11.748  0.4305 -0.3196  0.1933
 3982W        W19451   6.340   0.383   1.209 -0.0132  0.0163 -0.0412
 3983W        W19452  15.496  16.409   4.776 -0.2854  0.0034  0.1044
 3984W        W19453   8.552   6.367  15.376 -0.1466  0.0108  0.1134
 3985W        W19454  14.896   7.731   0.239 -0.2938  0.1597 -0.1608
 3986W        W19455  12.767  14.396   5.489  0.1567 -0.0610 -0.0097
 3987W        W19456   2.010  11.813   4.791  0.0210  0.2325  0.2251
 3988W        W19457   3.939   5.913  14.446 -0.1359 -0.2617  0.0507
 3989W        W19458  16.160  13.367   5.028 -0.0672 -0.0472 -0.0218
 3990W        W19459  10.079  10.697   1.704 -0.1680  0.0316 -0.0587
 3991W        W19460   0.031   9.236   3.652  0.2454  0.1484  0.0848
 3992W        W19461  14.372  11.491   2.341 -0.0195  0.2847 -0.3691
 3993W        W19462   0.657  15.305  14.932  0.0468  0.0555 -0.0671
 3994W        W19463  14.992   4.139  15.301 -0.2495  0.1777  0.2993
 3995W        W19464  10.674   8.423   3.589 -0.0842 -0.0122  0.0355
 3996W        W19465   5.124   6.497  13.119  0.0827  0.2213 -0.0584
 3997W        W19466  10.418  11.291  12.584  0.3777 -0.1766  0.0539
 3998W        W19467   7.015   4.946  12.562  0.3696  0.3395  0.3146
 3999W        W19468  15.137   8.113   3.499 -0.2020 -0.0077 -0.0322
 4000W        W19469   0.914   2.676   1.211 -0.2083 -0.2321 -0.1292
 4001W        W19470   8.135   9.264  13.816  0.2673  0.0133  0.1034
 4002W        W19471  10.604  14.077  14.170  0.0709  0.2277 -0.2051
 4003W        W19472  11.115   6.070  12.806 -0.0730  0.4013  0.1308
 4004W        W19473   7.612  13.751   1.590 -0.2440 -0.0396  0.1946
 4005W        W19474  10.329   4.709   0.219 -0.1908  0.1590  0.0123
 4006W        W19475  13.686   4.635  12.006 -0.0381 -0.0380 -0.0086
 4007W        W19476   0.903   4.440  11.522  0.2238  0.0581  0.1256
 4008W        W19477  14.244  13.895  12.690  0.5208  0.1407  0.0796
 4009W        W19478   0.146  15.939   5.426  0.0763 -0.4342  0.1056
 4010W        W19479  14.916   3.810  12.481  0.1418  0.3510 -0.0213
 4011W        W19480   8.021   1.522   5.117  0.5260  0.3665 -0.0980
 4012W        W19481  11.884   6.540  14.400  0.0723 -0.0875  0.1331
 4013W        W19482   1.619  12.398   4.797 -0.0118 -0.0507 -0.0861
 4014W        W19483  11.737  11.381   2.661  0.1124 -0.0024  0.0160
 4015W        W19484  12.186   0.303   5.876 -0.3048  0.6040 -0.1547
 4016W        W19485   2.851  12.218  11.435  0.0474  0.0831 -0.1510
 4017W        W19486   6.875   8.112   2.323 -0.0036  0.0333 -0.3005
 4018W        W19487   8.650  13.691  15.755 -0.0631 -0.2438  0.0195
 4019W        W19488   2.736  14.198  12.253  0.1840 -0.2979  0.1668
 4020W        W19489   1.756   1.248  13.213 -0.1248 -0.1651 -0.2681
 4021W        W19490  12.452   4.947   2.706  0.2799 -0.0208  0.0713
 4022W        W19491   1.813  16.667   2.055  0.3487  0.3090  0.3926
 4023W        W19492   7.088   9.592   5.803 -0.2561 -0.1898  0.1143
 4024W        W19493  11.151  14.749   4.215 -0.1673  0.1547 -0.0399
 4025W        W19494   0.486   3.934   3.591  0.0548  0.0335  0.0064
 4026W        W19495  16.427  15.654  12.380  0.1757 -0.1319  0.3186
 4027W        W19496  16.986  16.010   3.763 -0.0594 -0.2555 -0.0091
 4028W        W19497  17.157  16.505   0.774 -0.0934 -0.1767  0.3057
 4029W        W19498  15.229   9.613  10.389 -0.3565  0.0727  0.1872
 4030W        W19499   3.102   7.742   3.303  0.1423 -0.1251  0.2210
 4031W        W19500   2.206   0.546  11.701 -0.0369  0.2084 -0.3243
 4032W        W19501   5.014  16.496  13.854 -0.2806  0.0097  0.0222
 4033W        W19502   0.018   7.358   2.822 -0.0628 -0.2349 -0.2834
 4034W        W19503   4.567   9.901  11.840  0.1504  0.0139 -0.2204
 4035W        W19504  15.582   6.128  14.282  0.1018  0.1155  0.0767
 4036W        W19505   6.939   7.907  12.639 -0.2634  0.0714 -0.1640
 4037W        W19506   8.553  12.268   5.506  0.1748  0.0159 -0.1435
 4038W        W19507  13.975   4.703  14.150 -0.0231 -0.0668  0.1405
 4039W        W19508   5.738  13.484   3.650  0.1125 -0.1095 -0.2189
 4040W        W19509  10.453   5.687   5.795  0.1138 -0.2609  0.1473
 4041W        W19510  10.506   3.764   0.524  0.0236 -0.3191 -0.1168
 4042W        W19511   7.667   0.128  11.880 -0.2584  0.0743 -0.3473
 4043W        W19512   7.666  12.330   4.527  0.0753 -0.0617  0.2985
 4044W        W19513   1.196   6.264  13.529  0.3272 -0.1955  0.0848
 4045W        W19514  13.975   6.964  13.683  0.1444 -0.4909  0.0419
 4046W        W19515  10.424   2.041   5.291  0.0664 -0.0961  0.0665
 4047W        W19516   6.158   7.433  10.898 -0.0522 -0.1782 -0.2104
 4048W        W19517  13.843   0.901  14.430 -0.1174 -0.2778  0.1389
 4049W        W19518  12.034   8.103  14.272 -0.0064  0.1518 -0.1445
 4050W        W19519   3.550  10.419   4.952 -0.0668  0.1752 -0.1425
 4051W        W19520  12.712  16.424  15.827 -0.2652 -0.2794 -0.1898
 4052W        W19521   7.567   2.245  10.799  0.2072 -0.2041  0.0244
 4053W        W19522  16.161   4.272   5.554  0.0307  0.1143  0.2697
 4054W        W19523   5.571  17.982   0.782 -0.0226 -0.0315  0.0600
 4055W        W19524   9.900   1.710  15.542  0.0312 -0.1829  0.2208
 4056W        W19525  11.739  13.064   3.293  0.0024  0.0863  0.3233
 4057W        W19526  16.581   8.384   3.243 -0.0521 -0.0328 -0.0756
 4058W        W19527   1.397  13.636  12.529 -0.0360 -0.0675  0.1622
 4059W        W19528   5.246   0.051   1.891  0.0798  0.3710  0.4006
 4060W        W19529   1.804  10.496   4.338 -0.1345  0.1347  0.2736
 4061W        W19530   0.423   9.818  16.106  0.0618  0.1116 -0.0309
 4062W        W19531  11.689   6.768   3.770 -0.2678 -0.0401  0.1099
 4063W        W19532   7.391   5.740  14.545  0.0451  0.0822  0.0188
 4064W        W19533  16.275  12.775   4.401 -0.1900 -0.0254  0.1863
 4065W        W19534  17.551   1.031   1.331 -0.2061  0.1610  0.1586
 4066W        W19535   0.408   7.168   4.024  0.1666 -0.0038 -0.0710
 4067W        W19536  14.497   7.251  12.031  0.1690  0.1062  0.1996
 4068W        W19537   2.445   8.274   4.618  0.2230 -0.0873 -0.1713
 4069W        W19538   2.832   8.466  13.918  0.1657 -0.4212  0.0534
 4070W        W19539  13.069   3.371  11.780  0.1249 -0.1202 -0.1045
 4071W        W19540  13.197  14.876  12.584 -0.0715  0.0113  0.0300
 4072W        W19541   6.165   8.765  13.858 -0.0024  0.0784  0.1990
 4073W        W19542  12.604  10.781   5.443  0.0701 -0.0651  0.0015
 4074W        W19543  15.650  15.894   1.878  0.2007  0.0412  0.2047
 4075W        W19544  16.686  14.759   5.401  0.0280  0.0510 -0.1220
 4076W        W19545   8.077   1.033  13.608 -0.0073 -0.3624  0.1111
 4077W        W19546   4.198   3.652  16.127  0.0833  0.3110  0.1193
 4078W        W19547   8.070   4.833  11.690 -0.2518  0.0034 -0.1492
 4079W        W19548   0.945   4.482   0.873 -0.3602  0.0950  0.1050
 4080W        W19549   8.088   2.322   3.453  0.0770  0.0057 -0.0568
 4081W        W19550   1.061   4.311   3.092 -0.1044  0.2146  0.0827
 4082W        W19551   0.273   8.099   2.585  0.0071 -0.3062  0.2163
 4083W        W19552   7.348  14.578   0.988 -0.1465 -0.0765  0.1842
 4084W        W19553  15.640  17.585   0.032  0.0434 -0.2280  0.1163
 4085W        W19554   8.614  16.465   1.317  0.1047  0.0398 -0.3475
 4086W        W19555  14.569  13.719   5.590  0.0861 -0.1169  0.1032
 4087W        W19556   9.051   5.776  12.787 -0.2972  0.2517 -0.2600
 4088W        W19557  12.174   4.204  14.873  0.0309 -0.2632 -0.3613
 4089W        W19558   6.416   5.086   3.566  0.1316 -0.1811 -0.1116
 4090W        W19559  13.555   9.201  13.201  0.1871  0.1367 -0.0520
 4091W        W19560   2.535  17.714  12.578 -0.1513 -0.0400  0.2710
 4092W        W19561   7.013  17.367   1.330  0.1099  0.0403 -0.2343
 4093W        W19562  10.935  16.545  11.455  0.2279 -0.4136 -0.0882
 4094W        W19563   1.161   1.835  15.808 -0.0517 -0.0934  0.2322
 4095W        W19564   4.472   0.993   4.474  0.1035  0.2300  0.1307
 4096W        W19565  13.792  17.954  10.730 -0.3953  0.0350  0.3455
 4097W        W19566  17.043  10.064  13.118  0.1538  0.0098  0.0144
 4098W        W19567   2.693  12.893  12.764 -0.0036  0.0310 -0.3647
 4099W        W19568   3.939  15.909   5.079  0.2689 -0.2290 -0.4332
 4100W        W19569  12.524   2.235  13.571 -0.0471  0.2013  0.2236
 4101W        W19570  17.581   5.431   1.671 -0.4890  0.2831 -0.0607
 4102W        W19571   0.057   8.280  14.108  0.2137  0.2156 -0.1135
 4103W        W19572   0.775   2.963  11.414  0.2891  0.1426 -0.0810
 4104W        W19573  12.859   5.521   4.578 -0.2705  0.1186  0.0162
 4105W        W19574  12.728   9.826   4.767  0.2345  0.0043 -0.0891
 4106W        W19575  16.017  14.096  15.878 -0.1122 -0.1308  0.0502
 4107W        W19576   4.323  16.644  14.164 -0.2609 -0.1759  0.1552
 4108W        W19577   2.413   2.777   3.811 -0.2308 -0.1614  0.1785
 4109W        W19578  15.784   7.384  13.987  0.0246  0.3194 -0.3228
 4110W        W19579  11.966   3.466  15.111  0.1175  0.4177 -0.0217
 4111W        W19580  17.792  14.292   3.826 -0.3364  0.2979  0.2442
 4112W        W19581   0.531  17.067   4.247 -0.0276  0.2497  0.1959
 4113W        W19582   1.882  13.230   5.180  0.1565  0.0272  0.1571
 4114W        W19583  16.417  15.961   4.848 -0.4995 -0.0228  0.1540
 4115W        W19584  12.682  17.758  11.884  0.5239  0.0341 -0.0417
 4116W        W19585  11.583  15.632   3.037 -0.0976  0.1170  0.2103
 4117W        W19586   5.189  10.106  11.393  0.1044 -0.1248 -0.0771
 4118W        W19587   8.554   7.160  11.643 -0.1248  0.3112 -0.1869
 4119W        W19588  13.857   4.417  16.145  0.4237  0.0041 -0.0040
 4120W        W19589  14.429   1.911  13.221  0.1646  0.0961 -0.1544
 4121W        W19590   4.407   3.831   2.166  0.0923  0.1213 -0.2301
 4122W        W19591  11.178   6.610  15.689 -0.4865  0.2819 -0.3930
 4123W        W19592   4.899  16.125   2.083 -0.0838 -0.3342 -0.0042
 4124W        W19593   2.080   7.627  14.889  0.1848 -0.0765  0.1879
 4125W        W19594   7.307   3.189  11.332  0.1546  0.0130 -0.0179
 4126W        W19595  15.116   6.001  11.561  0.1756 -0.1764 -0.0222
 4127W        W19596   5.590  15.397   3.847  0.3950  0.1347  0.0756
 4128W        W19597  16.696   5.997   0.323  0.1710  0.0875  0.0212
 4129W        W19598   7.994  11.038   2.920 -0.1082 -0.0051 -0.2342
 4130W        W19599   5.714   6.440   4.106  0.1173  0.0594 -0.1181
 4131W        W19600   6.156   1.276   5.076  0.0702  0.0901 -0.0473
 4132W        W19601  15.234  17.446   1.993  0.3790  0.2658 -0.0723
 4133W        W19602   4.369   7.316  11.436  0.1421 -0.0696  0.0523
 4134W        W19603   1.095   7.597   3.730 -0.2979  0.3496  0.0997
 4135W        W19604   7.715   7.166   3.363  0.0331  0.0956 -0.1007
 4136W        W19605  15.350  17.728  13.090 -0.1718 -0.0391 -0.1287
 4137W        W19606   7.538  16.194  14.187  0.0227 -0.0825 -0.0157
 4138W        W19607  15.090   8.278   1.772  0.0889 -0.0944  0.0693
 4139W        W19608   6.972   1.321   5.026 -0.1486 -0.0437  0.3242
 4140W        W19609  14.129  10.772  11.129 -0.0225 -0.2324 -0.0113
 4141W        W19610   9.662   8.899   3.033 -0.1863  0.0504 -0.0994
 4142W        W19611  11.294   9.465  13.497 -0.3460  0.1470  0.2067
 4143W        W19612   7.096  16.135   3.523 -0.1831  0.0395  0.0573
 4144W        W19613   0.473   5.952   3.421  0.1325  0.0493 -0.3975
 4145W        W19614  10.747  15.541  10.662 -0.0336  0.0941 -0.2158
 4146W        W19615   2.151   0.113   2.266  0.1224 -0.0357  0.0962
 4147W        W19616  12.180   1.065  15.212  0.1961  0.0833  0.2878
 4148W        W19617  10.368   1.535  14.218  0.3030  0.1690  0.0666
 4149W        W19618   0.021  10.763  14.512  0.2695 -0.1188  0.2897
 4150W        W19619  12.395  11.298  15.181  0.2829  0.2331 -0.1856
 4151W        W19620  12.984   2.071  14.862  0.0691 -0.1788 -0.0655
 4152W        W19621   3.899  10.372   5.431 -0.1625  0.0612  0.2960
 4153W        W19622  12.012  12.091   3.101 -0.1510  0.0142 -0.0896
 4154W        W19623   7.261   7.064   3.112  0.0023  0.0026 -0.1474
 4155W        W19624   3.050  14.164   9.926 -0.2340 -0.0305 -0.3443
 4156W        W19625  11.457  18.055   3.214 -0.0646 -0.2163 -0.1746
 4157W        W19626  14.426  13.566   2.871 -0.4343  0.0114 -0.1612
 4158W        W19627   3.489   7.299  10.356 -0.3539 -0.0157 -0.2073
 4159W        W19628  16.765  10.660  12.311  0.0174  0.2338 -0.0647
 4160W        W19629   4.042   9.467  13.857 -0.1959  0.1313  0.0525
 4161W        W19630   7.474  13.346   3.807  0.0083 -0.5856 -0.0808
 4162W        W19631  12.884  13.352   1.141 -0.2907  0.2926  0.2751
 4163W        W19632  11.187   4.147  15.010  0.1673 -0.2267  0.1936
 4164W        W19633   7.314   7.131  14.257 -0.1054 -0.0363  0.1694
 4165W        W19634  15.431   9.643  13.744  0.1488 -0.2107  0.0233
 4166W        W19635   8.367  12.208  11.769 -0.0693  0.1757  0.0155
 4167W        W19636  14.660   9.886  15.360  0.0190 -0.0182 -0.2649
 4168W        W19637   1.081  12.550   4.882  0.3907  0.0019  0.2153
 4169W        W19638  13.551   4.990   3.362  0.1800  0.0437  0.0777
 4170W        W19639  12.591  16.806   5.706  0.2081 -0.0095 -0.0488
 4171W        W19640   7.000   1.577  15.059 -0.0111 -0.2080 -0.0220
 4172W        W19641   6.250   8.091  12.203  0.1859  0.1665 -0.0585
 4173W        W19642   5.607   2.430   0.801  0.0299  0.0090 -0.1081
 4174W        W19643  15.565  13.324   4.264 -0.1659 -0.0057 -0.4872
 4175W        W19644   1.073   6.098   5.845  0.1106 -0.2144  0.0334
 4176W        W19645  16.355  17.137   0.695  0.1160 -0.3687 -0.1139
 4177W        W19646   4.096  12.358  11.861 -0.1350  0.4376 -0.1458
 4178W        W19647   9.177  14.370   3.892  0.2365 -0.0129  0.0848
 4179W        W19648   2.357  15.905   2.448  0.0495  0.0258  0.3257
 4180W        W19649  13.122   9.965  10.828  0.2613  0.0693 -0.0974
 4181W        W19650   4.479  12.509   5.198 -0.0472 -0.0095  0.0685
 4182W        W19651  10.617  17.111  15.247  0.1204 -0.0571 -0.0269
 4183W        W19652   4.716   2.410   3.804  0.4120 -0.4521 -0.1814
 4184W        W19653   4.685   8.298  14.886 -0.1518 -0.1037  0.1222
 4185W        W19654   7.312  15.700   0.729 -0.0426  0.1310 -0.2190
 4186W        W19655  17.404   3.374   0.949 -0.2259  0.1726 -0.1896
 4187W        W19656   5.067  15.214   0.435 -0.2322 -0.2360  0.0124
 4188W        W19657   2.580   1.705   1.333  0.1160 -0.0684  0.1075
 4189W        W19658   2.752  14.572   1.083 -0.0060  0.1616 -0.0735
 4190W        W19659   0.402  11.889   1.963  0.1248 -0.2036  0.1013
 4191W        W19660   4.953  12.681   5.418 -0.2136  0.0137  0.0069
 4192W        W19661   0.287  17.946   3.326 -0.2001  0.0616  0.0209
 4193W        W19662   8.325  10.639   6.076 -0.2741 -0.2716 -0.0694
 4194W        W19663   0.995  13.455   3.011  0.2377  0.0881 -0.0814
 4195W        W19664   5.692   2.766   2.174  0.1852 -0.3358  0.0134
 4196W        W19665   4.640  15.392   5.683  0.1123  0.1016 -0.1183
 4197W        W19666  11.773   9.155   0.234 -0.0134 -0.0443 -0.3219
 4198W        W19667   7.417   4.147  14.061  0.0146 -0.0298 -0.3512
 4199W        W19668  17.577   1.690   4.428 -0.2335 -0.1661 -0.0958
 4200W        W19669  12.193   6.826   0.534  0.3188 -0.0864  0.1048
 4201W        W19670   8.719   1.678  14.333  0.1275 -0.1666  0.0530
 4202W        W19671  11.773  12.229   4.798  0.2001  0.2751  0.0219
 4203W        W19672  13.425   7.102  11.746 -0.1953 -0.2358 -0.3726
 4204W        W19673  10.756   8.432   5.307  0.0621 -0.1194 -0.0083
 4205W        W19674   1.242   3.937  15.695  0.0289  0.0922  0.0691
 4206W        W19675   7.153  15.216  11.110 -0.0694  0.3240 -0.2145
 4207W        W19676   4.507   5.442   0.105 -0.1673  0.2739 -0.2267
 4208W        W19677   4.093   5.585   3.653  0.0444 -0.1978 -0.2209
 4209W        W19678  11.898  11.088  14.409 -0.2082 -0.4804 -0.0233
 4210W        W19679   9.964  12.597   0.065  0.1807  0.0925  0.0173
 4211W        W19680  15.005  12.036  13.692  0.1023 -0.1758 -0.2789
 4212W        W19681  11.906  16.973  11.066  0.0581 -0.0575  0.0375
 4213W        W19682  14.383   6.315   2.899  0.2710  0.3921 -0.1834
 4214W        W19683   0.467   3.786  11.993  0.2752 -0.3184  0.2917
 4215W        W19684  14.728   8.921   4.936 -0.0430  0.0351 -0.4071
 4216W        W19685  14.909   2.859  13.827 -0.0924 -0.0950 -0.1434
 4217W        W19686   3.253  16.255  10.853  0.0829  0.0804  0.2693
 4218W        W19687   0.180  18.111   4.348 -0.0831  0.0019 -0.1929
 4219W        W19688  15.173   5.051  13.958 -0.1475  0.3308  0.0992
 4220W        W19689  13.938  12.663  14.910 -0.0844 -0.1137  0.0797
 4221W        W19690  11.320  11.182  13.117 -0.1603  0.1016  0.1019
 4222W        W19691  14.171   6.105  13.579 -0.3761 -0.0364  0.1471
 4223W        W19692  13.582   3.854   1.659 -0.1731 -0.0185  0.2393
 4224W        W19693   3.586   9.068   3.277  0.0408  0.1183 -0.0285
 4225W        W19694   7.274   7.036  12.666  0.0798 -0.1573  0.3198
 4226W        W19695   5.457   5.016   5.428  0.2454 -0.0892  0.1234
 4227W        W19696  12.849  15.737   1.174  0.1011  0.1478  0.0582
 4228W        W19697  10.653  11.606  15.679  0.1820  0.1243  0.0637
 4229W        W19698   8.994   5.199  15.495 -0.2996  0.1448 -0.1200
 4230W        W19699   6.949  10.274  12.568 -0.0554 -0.3271 -0.0994
 4231W        W19700   5.700  16.541  12.358  0.0954  0.0945 -0.2339
 4232W        W19701   0.601  12.753  12.906 -0.2009  0.1974  0.0849
 4233W        W19702   6.435  12.728  13.941  0.0146  0.1784  0.1311
 4234W        W19703   3.289  14.825   2.289  0.0364  0.1822 -0.1226
 4235W        W19704   0.084   9.778  15.733 -0.1099  0.0808  0.0054
 4236W        W19705  17.181  14.551  14.265  0.2036  0.1476 -0.0858
 4237W        W19706  15.575   7.569  14.762 -0.0320 -0.0679 -0.0031
 4238W        W19707  12.816  16.065  11.243  0.0014  0.0074 -0.0608
 4239W        W19708   5.952  13.252   2.313  0.1483 -0.0796 -0.1567
 4240W        W19709  11.565  13.742   0.003  0.1785 -0.3833  0.0796
 4241W        W19710   3.673   9.990   0.762  0.1729  0.2424 -0.0172
 4242W        W19711   6.754   5.517  14.950 -0.0707  0.2117 -0.0718
 4243W        W19712   2.738   4.875   3.076 -0.5251  0.0358  0.2057
 4244W        W19713  13.612  18.104   2.215 -0.0065  0.2179 -0.0544
 4245W        W19714  11.507   8.755  11.006  0.2637  0.1268  0.1039
 4246W        W19715   6.552   1.952   5.368  0.1063 -0.0926 -0.2065
 4247W        W19716  15.153   7.950  14.634 -0.0198 -0.0750  0.0725
 4248W        W19717   3.349  11.479   3.699  0.0154  0.1785  0.0827
 4249W        W19718   0.500   8.047  13.102 -0.0138  0.3430 -0.0902
 4250W        W19719  10.747   8.070   2.307  0.0158 -0.2144 -0.0375
 4251W        W19720   6.408  10.901  14.451 -0.0449  0.1193  0.0908
 4252W        W19721   6.015   0.875   3.800 -0.2519 -0.4515 -0.1114
 4253W        W19722  10.541  17.820  10.566 -0.2265  0.2707  0.0195
 4254W        W19723  17.519   6.732  10.991  0.1830 -0.1560 -0.1960
 4255W        W19724  12.575  11.371   1.782  0.2909  0.0517 -0.1716
 4256W        W19725   9.109   1.000  13.442 -0.0084 -0.0503 -0.2100
 4257W        W19726  10.686   7.914  13.888 -0.1093  0.1774 -0.0384
 4258W        W19727   2.963   3.288   2.213  0.4760  0.1859  0.0798
 4259W        W19728   6.020   1.123  13.653 -0.3479 -0.0837  0.0850
 4260W        W19729   8.769   1.592  10.930 -0.1423  0.0696 -0.3135
 4261W        W19730   0.458   0.268  15.393  0.1380  0.0708  0.1394
 4262W        W19731   5.882  15.945   5.262  0.0118 -0.2598  0.1052
 4263W        W19732  16.048  16.545   2.858  0.1057  0.1458  0.1621
 4264W        W19733  15.130  17.829  11.593  0.1842  0.0604 -0.0589
 4265W        W19734  14.628   7.197   0.451  0.0871 -0.1676 -0.0162
 4266W        W19735   1.496   0.044  11.897  0.7133 -0.0434  0.1825
 4267W        W19736   2.096   4.196  12.208 -0.3313 -0.0099  0.0244
 4268W        W19737   6.286  12.919  15.497  0.4136 -0.0049 -0.3640
 4269W        W19738  16.294   1.434  13.428 -0.0409  0.5040 -0.0333
 4270W        W19739   9.601   2.982   3.469  0.0050  0.1355  0.0898
 4271W        W19740   3.959   9.595   0.877 -0.0834 -0.1569 -0.1563
 4272W        W19741   6.869   3.072   5.371 -0.0959  0.0852  0.0573
 4273W        W19742   3.867   4.059  13.644  0.0050 -0.3535  0.0962
 4274W        W19743  12.389   0.086  14.300 -0.3732 -0.1699  0.3469
 4275W        W19744   5.176   2.350   1.099 -0.1243  0.3641  0.2338
 4276W        W19745  16.935  15.985   1.387 -0.0866  0.0963 -0.1307
 4277W        W19746  17.746  16.874  14.623  0.0337  0.1923  0.1544
 4278W        W19747   0.861   8.207   4.510  0.1059  0.1624 -0.1184
 4279W        W19748   6.962   4.304   1.421 -0.1486 -0.0306 -0.1171
 4280W        W19749  15.042   7.435   1.219  0.0120 -0.0264  0.0948
 4281W        W19750   4.457   4.223   0.626  0.1627  0.1040 -0.1458
 4282W        W19751  12.600  17.480   1.643 -0.0341 -0.0108 -0.2972
 4283W        W19752   3.664   8.060   5.254  0.1149 -0.1678 -0.0829
 4284W        W19753  15.535  18.276   1.687 -0.0088  0.2175 -0.2572
 4285W        W19754   2.911   2.926   5.510  0.0234 -0.2361  0.1675
 4286W        W19755  11.469   7.191  13.591  0.0018  0.1108 -0.1699
 4287W        W19756  17.661  18.207  11.202 -0.0891  0.0707  0.1059
 4288W        W19757   8.397  11.270   4.948 -0.2287  0.2102 -0.3955
 4289W        W19758   4.186   7.258  10.061  0.0181  0.1673 -0.4340
 4290W        W19759  17.234   0.923   5.003  0.1984  0.1270  0.1443
 4291W        W19760  17.058  13.457  14.222  0.1189  0.0615 -0.0028
 4292W        W19761   6.326   1.835  15.794 -0.0541  0.2055  0.0676
 4293W        W19762  12.425  16.552   2.495 -0.1845 -0.0142  0.2061
 4294W        W19763  11.779   7.021   2.738  0.1733 -0.0801 -0.0875
 4295W        W19764   3.201   0.017  13.430  0.0916  0.0219  0.0846
 4296W        W19765  12.098   1.397   4.712  0.1753  0.0390  0.1690
 4297W        W19766   8.133   3.397   5.400  0.1486  0.0800 -0.2763
 4298W        W19767   6.360   6.899  12.002  0.1635  0.0467 -0.0779
 4299W        W19768   0.788  14.063   1.060 -0.1272  0.2862 -0.0562
 4300W        W19769   7.567   2.932   1.616  0.1953  0.1811 -0.2760
 4301W        W19770  12.255   2.001   1.284 -0.2197  0.0527 -0.0562
 4302W        W19771   8.022  16.546  10.849 -0.2009  0.1830 -0.1815
 4303W        W19772  11.148   7.140   3.195 -0.1255  0.1105  0.1781
 4304W        W19773  14.979   1.510  14.547 -0.1100 -0.1170  0.0250
 4305W        W19774  16.159  10.285  11.118  0.1819 -0.0986 -0.1680
 4306W        W19775  15.612   4.368  12.754 -0.1176  0.1086  0.3549
 4307W        W19776   3.219   0.634  11.387  0.1744 -0.2992  0.0579
 4308W        W19777   0.242  13.158   2.553 -0.0984 -0.0380  0.0511
 4309W        W19778   1.082   7.161   0.956 -0.1647 -0.2200 -0.1667
 4310W        W19779   7.237  11.500   1.608 -0.0735 -0.2968  0.1854
 4311W        W19780   7.246  12.119   0.513  0.0197 -0.0921  0.0150
 4312W        W19781   6.470   1.550   4.097 -0.0948  0.4625  0.2169
 4313W        W19782   2.780  15.845  15.780  0.1524  0.1931  0.0299
 4314W        W19783   0.370   5.827   1.123  0.1284 -0.0445 -0.0308
 4315W        W19784   8.479  11.513   2.357 -0.2462  0.0223  0.0625
 4316W        W19785   6.517  17.753   0.785  0.1799  0.0750 -0.1853
 4317W        W19786   8.079  11.229  15.416  0.1459 -0.2329  0.1427
 4318W        W19787   0.415  15.492   5.416 -0.2710  0.1002  0.2636
 4319W        W19788  16.770   6.630  12.300 -0.0721 -0.3103  0.1018
 4320W        W19789  17.613   4.658   0.591 -0.1156  0.1739  0.0664
 4321W        W19790   4.536   3.321   4.096 -0.0586  0.1551 -0.2584
 4322W        W19791   9.553  15.377  15.402 -0.1351  0.2663 -0.3583
 4323W        W19792   7.298   4.864   3.876 -0.0049  0.2195  0.1417
 4324W        W19793  12.032   2.210   0.393  0.1320  0.0081 -0.0212
 4325W        W19794   8.033   1.203  15.227  0.0461 -0.0782 -0.1626
 4326W        W19795  17.160   9.040  10.435 -0.0176  0.1246  0.0338
 4327W        W19796  12.208  14.348   0.138  0.2863 -0.0451  0.1909
 4328W        W19797  10.927   1.358  16.175  0.1743 -0.1224 -0.2812
 4329W        W19798  10.178   9.124   1.021 -0.1178 -0.2179  0.0196
 4330W        W19799   0.646   2.404  12.769  0.2216 -0.1077  0.4708
 4331W        W19800   5.308   1.665  14.138 -0.1157 -0.0432 -0.3795
 4332W        W19801   2.880   6.452   2.673  0.3187 -0.0878 -0.1574
 4333W        W19802  10.774   2.962   0.883  0.0859  0.0801 -0.2965
 4334W        W19803   0.103   6.799   0.874  0.1526  0.0599 -0.0319
 4335W        W19804   3.831   0.335   3.875 -0.0261  0.0473  0.0321
 4336W        W19805   1.280   4.763  11.097  0.0485 -0.0897 -0.4769
 4337W        W19806   6.898   8.812   3.311  0.1509  0.1242  0.1512
 4338W        W19807  14.195   7.104   6.027  0.2179 -0.0416 -0.1045
 4339W        W19808   9.780  12.310  10.978  0.1221 -0.0186  0.1191
 4340W        W19809  10.502  11.955  13.669 -0.0735 -0.0532  0.3941
 4341W        W19810  17.113  15.071   2.342  0.0401  0.2031 -0.0869
 4342W        W19811  14.889   3.266  11.646  0.0013  0.0267  0.0591
 4343W        W19812  15.883  10.152   2.011  0.2576 -0.2206  0.0059
 4344W        W19813   1.273   5.270   0.096  0.2277  0.0707 -0.1959
 4345W        W19814  10.957  12.327  15.086  0.1099 -0.0605  0.2800
 4346W        W19815   1.446   7.271  15.096  0.0915 -0.0895  0.1504
 4347W        W19816  17.404   1.840  12.877 -0.0989  0.1958  0.0666
 4348W        W19817   8.940   7.303   1.974 -0.0197 -0.0881 -0.0998
 4349W        W19818  12.243  16.316   4.023  0.1827 -0.4241 -0.0850
 4350W        W19819  14.215  15.136  10.757 -0.1317  0.0627  0.0798
 4351W        W19820   7.849   4.942   1.175 -0.0612 -0.0147  0.2066
 4352W        W19821  12.090   2.746  15.419  0.0737  0.0366 -0.0860
 4353W        W19822   9.492  13.077  13.997 -0.0631  0.2621 -0.1866
 4354W        W19823   8.296   0.143  14.394  0.3188  0.1292 -0.1957
 4355W        W19824  11.667   1.092  13.911  0.0254  0.0651  0.3672
 4356W        W19825  15.536  11.068   4.910 -0.0622  0.0250 -0.0545
 4357W        W19826  11.013  14.034   4.914 -0.4129 -0.0850 -0.1316
 4358W        W19827   8.188  14.295   1.245  0.0685  0.0027  0.1269
 4359W        W19828   5.040  17.140   2.578  0.0702 -0.0482  0.0768
 4360W        W19829  17.408  12.533   1.342  0.1850 -0.0530 -0.2148
 4361W        W19830   3.966  14.403  15.414  0.2071  0.0445 -0.1878
 4362W        W19831   8.724   7.728   2.396 -0.0763  0.1428  0.0325
 4363W        W19832   5.519   9.885   3.653  0.2219  0.0445 -0.1219
 4364W        W19833  17.612   6.044   0.954  0.1569 -0.0856  0.1146
 4365W        W19834  18.293   2.864  13.361 -0.2512  0.2307 -0.1083
 4366W        W19835  13.385  18.028  14.157 -0.0155 -0.0010  0.0674
 4367W        W19836   0.376   0.375   5.978  0.0565  0.1244 -0.0751
 4368W        W19837   3.050   1.781   4.614 -0.0663 -0.1645 -0.1714
 4369W        W19838   7.567   5.524   1.959 -0.0711 -0.1953  0.2176
 4370W        W19839  10.242  18.062  12.017  0.0020  0.3019 -0.1347
 4371W        W19840   1.910  13.197   3.037 -0.0532 -0.2186  0.0796
 4372W        W19841  16.722   2.509   3.151  0.0775 -0.0069  0.0575
 4373W        W19842   3.341   6.002   1.142  0.1264 -0.2957 -0.2915
 4374W        W19843   3.096  11.757  15.289  0.0034  0.0995 -0.0971
 4375W        W19844   4.115   8.680  11.959  0.2416  0.2721 -0.2340
 4376W        W19845   3.198   3.888  14.316  0.1831 -0.1772  0.1114
 4377W        W19846  16.292   1.313   1.989  0.0108 -0.1636 -0.0679
 4378W        W19847   3.649  16.185  16.044 -0.2564 -0.2092 -0.0961
 4379W        W19848   7.932   4.950  14.088  0.0144 -0.2434  0.3588
 4380W        W19849   8.845  15.946   2.421 -0.2780  0.0553  0.1817
 4381W        W19850  10.471   4.741  11.747  0.2326  0.1591  0.2957
 4382W        W19851   1.719   6.054   4.128  0.2201  0.0992 -0.1885
 4383W        W19852  15.053   6.527  12.508 -0.1254 -0.1342  0.0058
 4384W        W19853   9.894   0.444  15.122 -0.4191 -0.0708  0.2164
 4385W        W19854  11.599   2.599  14.938  0.0858  0.2508 -0.1450
 4386W        W19855   0.915  14.346  15.358  0.0516 -0.2123 -0.1177
 4387W        W19856  12.482   7.058   5.847  0.3809  0.2058 -0.0246
 4388W        W19857  10.628  16.394   3.605 -0.1631  0.0673 -0.1921
 4389W        W19858   1.162   9.927   3.834 -0.0123  0.1517 -0.3275
 4390W        W19859   5.571   3.645  12.993  0.2417 -0.1125 -0.0082
 4391W        W19860   0.493   4.300   1.135  0.1225 -0.1538 -0.1187
 4392W        W19861  13.087   8.569  12.604  0.0146 -0.1350  0.5126
 4393W        W19862   1.350  11.976  10.632  0.2654 -0.1746  0.1499
 4394W        W19863   2.894  10.203  13.249 -0.2253 -0.1961  0.1597
 4395W        W19864   2.611  10.630   2.608 -0.3054 -0.2631 -0.0674
 4396W        W19865   7.234   9.353  12.864  0.0978 -0.0659  0.1194
 4397W        W19866  18.059   8.925   4.504 -0.0495  0.3719  0.1335
 4398W        W19867   5.271   6.536   4.930  0.1095 -0.1392 -0.1415
 4399W        W19868  17.433  13.015   4.681  0.1472  0.1195  0.2497
 4400W        W19869   0.616  12.609  15.820 -0.1274  0.1271 -0.2919
 4401W        W19870  14.962  17.020  11.863 -0.1050 -0.0391 -0.0290
 4402W        W19871  14.517   2.940   0.093  0.0625  0.1513  0.0301
 4403W        W19872  11.351   1.573  15.187  0.1673 -0.1465 -0.1107
 4404W        W19873  18.222   6.933   2.006 -0.1491 -0.1104 -0.1784
 4405W        W19874  15.813   6.347   1.527  0.2107 -0.0109  0.1918
 4406W        W19875   9.575   5.257  15.078 -0.0264 -0.0208 -0.0098
 4407W        W19876  11.659   0.813   1.919 -0.2030  0.0328  0.0021
 4408W        W19877  17.304   5.135   4.423  0.2385 -0.0846 -0.0936
 4409W        W19878  17.752   9.830   4.256 -0.2234 -0.3600 -0.1206
 4410W        W19879   7.623  17.507   1.405  0.1019  0.0264  0.0703
 4411W        W19880  13.578  16.369  14.707  0.0172  0.1285 -0.0350
 4412W        W19881   8.375  13.234   1.535  0.3319 -0.0475 -0.3084
 4413W        W19882   5.782   6.429  11.406  0.1282  0.1004  0.0488
 4414W        W19883  16.525   2.301   2.631  0.1995  0.0370 -0.2071
 4415W        W19884  17.144   9.776   0.099 -0.0697 -0.2950  0.0649
 4416W        W19885  10.852  13.461   1.469  0.3840 -0.2979 -0.2457
 4417W        W19886  11.099   8.479   9.778  0.1367  0.2638  0.1826
 4418W        W19887  11.858  16.667  14.785  0.1290 -0.0331 -0.1680
 4419W        W19888   2.510   5.315   0.640 -0.3148 -0.0983 -0.4306
 4420W        W19889  14.089  18.239   4.391 -0.0543  0.1393 -0.0031
 4421W        W19890   4.857  13.068  13.776 -0.0849 -0.1238 -0.2500
 4422W        W19891  16.231  16.852  11.186 -0.1530  0.0189  0.0764
 4423W        W19892   8.866   6.822  14.545 -0.2168 -0.2302 -0.1334
 4424W        W19893   5.423  14.984   4.721  0.2705 -0.0436  0.1649
 4425W        W19894  15.692   4.811   2.628  0.2047  0.1935 -0.4812
 4426W        W19895   8.506   4.075   5.516  0.1036  0.0051  0.1559
 4427W        W19896   3.937  14.628   3.509 -0.2179 -0.0264 -0.1532
 4428W        W19897  16.198  11.424  15.319  0.3115  0.2753 -0.1674
 4429W        W19898  14.099  10.212  13.150  0.4270  0.1440 -0.2368
 4430W        W19899   0.815   6.178  13.211 -0.0154  0.0748 -0.0222
 4431W        W19900   1.515  16.564  12.502  0.0526 -0.3644  0.3000
 4432W        W19901   9.468   9.414   1.503 -0.0383  0.3190 -0.2490
 4433W        W19902  11.414   4.652  12.131 -0.2182 -0.3586  0.0356
 4434W        W19903   1.273   5.215  15.731 -0.1760  0.1215 -0.0661
 4435W        W19904   8.733  10.380  15.593 -0.1133  0.1915  0.3630
 4436W        W19905  11.759   6.618   0.346  0.1524 -0.2689 -0.1286
 4437W        W19906  10.416  15.041  15.788  0.1593  0.0252 -0.1544
 4438W        W19907  12.897  10.872  14.253 -0.0455 -0.0156  0.3854
 4439W        W19908  14.666   7.514   2.046  0.1924  0.0495  0.0614
 4440W        W19909  11.010   0.652   4.637 -0.1132 -0.0087 -0.1531
 4441W        W19910   9.704   1.169   2.604  0.2160  0.0258  0.1191
 4442W        W19911   5.238   3.885  15.365  0.0668 -0.0877 -0.1083
 4443W        W19912  10.245   8.359   5.195 -0.1229  0.0156 -0.1850
 4444W        W19913  10.342   5.130  15.573 -0.3001 -0.0883  0.0656
 4445W        W19914   2.556   3.924   4.099 -0.2398 -0.1913  0.0709
 4446W        W19915   3.428   4.962  11.566 -0.2045 -0.3549 -0.0311
 4447W        W19916   3.728  16.993  13.368 -0.1019  0.0153  0.0167
 4448W        W19917   8.529  17.831   1.200  0.3884 -0.2350  0.1412
 4449W        W19918  17.939  14.322  11.586 -0.0549 -0.2301 -0.1122
 4450W        W19919  10.124  15.497   1.167 -0.1183 -0.0406  0.0505
 4451W        W19920  11.753   9.039  12.685 -0.0115  0.0571  0.1136
 4452W        W19921   7.655   3.794   1.619  0.2376  0.2224 -0.1577
 4453W        W19922  16.086   5.654  12.581 -0.0178  0.0536  0.2139
 4454W        W19923  10.974   4.207   1.772 -0.2476  0.0604 -0.0206
 4455W        W19924  14.519  15.906   6.149 -0.0489 -0.2981 -0.1036
 4456W        W19925   3.231   4.754   4.332  0.1322 -0.1746  0.1424
 4457W        W19926  12.162  16.385  12.876 -0.0932  0.2729  0.0245
 4458W        W19927  12.872   2.606  13.745  0.2906  0.0891  0.0420
 4459W        W19928  14.923   9.817  11.395  0.0267 -0.2230  0.1686
 4460W        W19929   2.262  15.711   3.838 -0.0566  0.2728 -0.2590
 4461W        W19930  16.472   9.940  11.975 -0.1843  0.4848 -0.2712
 4462W        W19931   6.318   8.505  12.516  0.0348  0.2695 -0.0186
 4463W        W19932   9.287   0.474   2.271  0.1946  0.0544  0.1739
 4464W        W19933   9.581   2.765  12.360  0.3407  0.2298 -0.0216
 4465W        W19934  15.918   9.179   6.015  0.2051  0.0392 -0.0047
 4466W        W19935  12.946  17.534  12.367 -0.2229 -0.0067 -0.0264
 4467W        W19936  17.489   2.346  15.648 -0.2979  0.1630 -0.0445
 4468W        W19937  14.223   2.121   2.481 -0.2747  0.2058 -0.1788
 4469W        W19938  15.022  16.391   1.099  0.0653 -0.1014  0.0733
 4470W        W19939   9.453  11.460   1.464 -0.1256  0.0262  0.3995
 4471W        W19940   1.317   9.026  11.982  0.1525 -0.0201 -0.0487
 4472W        W19941   0.146  17.968   1.522  0.0621  0.2912  0.1913
 4473W        W19942   7.648  15.618  14.212 -0.1587 -0.1547  0.3012
 4474W        W19943  12.509  11.559  10.878 -0.0163  0.3549 -0.2963
 4475W        W19944  13.925  13.494   3.605 -0.2642 -0.1860  0.0839
 4476W        W19945  16.149  16.277  13.826 -0.1638 -0.0879 -0.0112
 4477W        W19946  17.935   3.585   5.740  0.0834 -0.0960 -0.0605
 4478W        W19947   1.513   3.011  12.377 -0.1272  0.1327  0.1512
 4479W        W19948   7.938   8.156  14.354  0.0955 -0.1714  0.2107
 4480W        W19949   5.770   1.001   5.539 -0.1566  0.0658  0.0355
 4481W        W19950   8.441  16.154  13.132  0.1817  0.1268 -0.2177
 4482W        W19951   7.802  12.930  12.925  0.1164  0.2998  0.1764
 4483W        W19952   5.905  15.702  14.288  0.1143 -0.1661  0.2570
 4484W        W19953  15.404  18.157  13.416 -0.0715 -0.1514  0.4773
 4485W        W19954   3.477  12.538   3.555 -0.0026  0.1286  0.1387
 4486W        W19955   5.161   4.906   3.166  0.3319  0.1739  0.0781
 4487W        W19956   7.064  13.913   0.930  0.1244  0.3054  0.1970
 4488W        W19957  14.769  12.857   3.062  0.1616  0.0715  0.2107
 4489W        W19958  16.344   5.603   3.824 -0.3813  0.2521  0.0567
 4490W        W19959   5.505   8.692   0.053  0.2858 -0.1327 -0.0503
 4491W        W19960  13.735  17.134  11.880 -0.1591  0.4766  0.0038
 4492W        W19961  13.514  12.661   1.221 -0.2751  0.0155  0.3130
 4493W        W19962  15.789  15.375   4.403 -0.2249 -0.1680  0.0409
 4494W        W19963   4.177  16.275   2.761  0.0259  0.2858 -0.3973
 4495W        W19964  17.225  11.068  12.568  0.0706  0.1427 -0.1892
 4496W        W19965   5.246   5.869   0.440  0.1219 -0.2204  0.1910
 4497W        W19966   7.596   1.531   3.263 -0.0917  0.3466  0.1816
 4498W        W19967   2.811  11.872   4.254 -0.1458  0.1365  0.0221
 4499W        W19968  11.703  10.827  15.686 -0.2843  0.0357 -0.0501
 4500W        W19969  11.814  10.459   0.665  0.4345  0.0592  0.0061
 4501W        W19970   6.571   4.951  12.326 -0.0175  0.1294  0.3276
 4502W        W19971   7.745   3.175   3.694 -0.3290 -0.0529 -0.0719
 4503W        W19972  10.944  10.907  14.559 -0.1123 -0.2301  0.4126
 4504W        W19973  11.249   3.873  13.818 -0.2510  0.0093  0.1086
 4505W        W19974  15.051  12.981  10.409  0.2060 -0.0466  0.0480
 4506W        W19975   4.314   4.721  14.192  0.1297 -0.1211 -0.0555
 4507W        W19976   2.194  14.430  13.435  0.2328 -0.1194  0.0404
 4508W        W19977   8.941   8.977  11.808  0.1675  0.1226 -0.0325
 4509W        W19978   5.130  11.532  15.319  0.1948  0.2540  0.2417
 4510W        W19979   5.683  14.966   3.505 -0.1442  0.0233 -0.0777
 4511W        W19980  11.691  11.172  16.071 -0.1258 -0.0192 -0.1442
 4512W        W19981  13.805   8.187   1.424 -0.0264 -0.1405 -0.3225
 4513W        W19982   5.015   4.024   3.042  0.0877  0.0434  0.4787
 4514W        W19983   9.176   6.462   0.531  0.0047 -0.0516  0.1812
 4515W        W19984  12.167   3.825   5.014 -0.0120 -0.0137  0.0993
 4516W        W19985   2.195  11.325  14.620 -0.1823  0.1548  0.0491
 4517W        W19986   0.866  17.437   9.855  0.1363  0.1020  0.1227
 4518W        W19987  10.194   7.753  14.762  0.0019  0.1403  0.0474
 4519W        W19988  13.435   0.332  15.089  0.0095 -0.1205  0.3833
 4520W        W19989   3.065   2.403  13.085 -0.0446 -0.1139 -0.1318
 4521W        W19990   8.955  10.892  11.181 -0.2767  0.2205  0.0189
 4522W        W19991  17.744   8.567  10.883 -0.2762 -0.1480  0.0653
 4523W        W19992  10.182   0.787  15.382  0.1952  0.0843  0.2317
 4524W        W19993   0.338   6.413   3.252 -0.1607 -0.2093  0.1936
 4525W        W19994   5.987  15.609   2.939  0.1870 -0.2274  0.1291
 4526W        W19995   5.275   6.583  15.742  0.1543 -0.1421 -0.2666
 4527W        W19996   0.835  12.350  11.515 -0.1952  0.1146  0.0270
 4528W        W19997   2.120   1.369   3.866  0.1186  0.0147  0.1407
 4529W        W19998   7.699   3.168   3.093  0.0364 -0.0269  0.0146
 4530W        W19999   2.202   7.930   0.388 -0.0347  0.1428 -0.0015
 4531W        W20000  12.448   9.425  14.719  0.0880  0.2477  0.2712
 4532W        W20001  15.558   6.317   0.365  0.4548 -0.0059 -0.1910
 4533W        W20002   1.610   0.157   3.124  0.0769 -0.1068  0.1696
 4534W        W20003  15.323   2.562   6.385 -0.1173  0.0226 -0.0431
 4535W        W20004   6.895  13.626  13.041 -0.0571 -0.0573 -0.0157
 4536W        W20005  15.083  14.423   4.616 -0.0024 -0.0563 -0.0025
 4537W        W20006   7.883  10.761  14.519  0.1051 -0.1014  0.0351
 4538W        W20007  17.998   1.160   5.481 -0.3871  0.0068  0.0212
 4539W        W20008   7.700  10.713   2.506  0.1440  0.0122  0.0631
 4540W        W20009  17.077  15.852  11.701 -0.4192  0.3280  0.0281
 4541W        W20010  17.445   4.099   1.566 -0.3466 -0.0104  0.1523
 4542W        W20011   7.203   1.562   5.787  0.2348  0.1181  0.2563
 4543W        W20012   3.933  16.694   9.840 -0.2169 -0.1105 -0.4111
 4544W        W20013  12.780  14.910   5.568  0.2730  0.0003  0.2529
 4545W        W20014   6.174  10.123  14.157  0.2570  0.1950 -0.2133
 4546W        W20015   7.867   8.575   3.419 -0.0272  0.1392 -0.0117
 4547W        W20016  18.010   5.446   1.909  0.1013  0.0817  0.4241
 4548W        W20017   8.220  14.837  15.429 -0.3712  0.0020  0.2588
 4549W        W20018  15.512  11.451   2.858 -0.0934  0.1513  0.2814
 4550W        W20019   6.984  15.305   2.578 -0.0511  0.0168 -0.2535
 4551W        W20020  13.024  12.309  11.317  0.1383 -0.1070  0.2173
 4552W        W20021   5.851  14.433  16.008 -0.1828 -0.2504 -0.0598
 4553W        W20022   4.692  12.598   5.927  0.0194  0.1378  0.0953
 4554W        W20023  15.245   2.988  14.680 -0.0707 -0.2359 -0.1436
 4555W        W20024   8.254   1.676  14.493 -0.4545  0.2856 -0.0511
 4556W        W20025  14.382  13.365   1.862 -0.0502  0.0897  0.3312
 4557W        W20026   5.143  11.610   1.117 -0.1582  0.1058 -0.0355
 4558W        W20027   8.113   4.092   4.260  0.1665 -0.1132  0.1280
 4559W        W20028   8.529   4.675  12.926  0.0623  0.2370  0.2292
 4560W        W20029  17.696   5.446   0.042 -0.0117 -0.0640  0.0609
 4561W        W20030  15.980  17.473   2.622  0.0512 -0.3066 -0.2376
 4562W        W20031   3.794   5.271   3.345  0.1590 -0.0989 -0.0295
 4563W        W20032  14.823  13.543  15.954  0.1696 -0.0050 -0.0626
 4564W        W20033  16.993   2.192   2.778  0.0071  0.0171 -0.1059
 4565W        W20034  15.171   2.020   2.845  0.0305 -0.2303 -0.3021
 4566W        W20035   2.339   0.045  11.763 -0.1060 -0.0664 -0.2395
 4567W        W20036  12.842  16.469   2.910 -0.0887 -0.1634  0.1207
 4568W        W20037   1.727   7.402  13.077 -0.0786  0.3437 -0.3329
 4569W        W20038   9.946  17.553   5.341 -0.1850  0.2680 -0.2495
 4570W        W20039   8.758   5.462  13.432  0.0384 -0.2643  0.0337
 4571W        W20040  11.562  11.947  11.372 -0.0257  0.0156 -0.2325
 4572W        W20041   2.841   7.184   2.326  0.0655 -0.0979 -0.2382
 4573W        W20042  10.578   4.643   5.171 -0.0303  0.1541  0.0629
 4574W        W20043  16.030   6.201   3.147  0.2857  0.0535 -0.1152
 4575W        W20044   2.598  16.533  10.547 -0.1068 -0.1853  0.2014
 4576W        W20045   3.347   5.599  12.264  0.3189  0.0119 -0.0593
 4577W        W20046  17.177   0.514   0.544  0.0408 -0.1358 -0.0199
 4578W        W20047   5.935   5.599   2.620 -0.2188  0.2967  0.0100
 4579W        W20048  10.549   6.396  12.089 -0.2222  0.0503  0.0961
 4580W        W20049   0.003  11.235  12.149  0.1765 -0.0820  0.0870
 4581W        W20050   5.722   1.827   3.550  0.0816  0.0413  0.1363
 4582W        W20051   2.628   1.430  12.358 -0.1685  0.0755 -0.1696
 4583W        W20052   7.449   8.110  13.234 -0.4324  0.0633  0.1012
 4584W        W20053   2.056   2.676  11.865  0.0957 -0.0839  0.1747
 4585W        W20054  15.119   5.050  13.116  0.0546 -0.1534 -0.3211
 4586W        W20055   3.698   9.856  13.889 -0.0484  0.0716 -0.2069
 4587W        W20056   2.820  17.007   4.511 -0.1706 -0.1519  0.0037
 4588W        W20057   7.643   1.757   0.062  0.1079 -0.2393 -0.0157
 4589W        W20058  13.277   9.855  15.198 -0.2153 -0.0959  0.3280
 4590W        W20059   6.765  16.561  15.994  0.2393 -0.0232 -0.0048
 4591W        W20060   6.627  13.463  10.873  0.0881 -0.2441 -0.2507
 4592W        W20061   0.951   9.426   1.720 -0.0961 -0.1196  0.2597
 4593W        W20062   4.387   3.573  11.617 -0.0173 -0.1273  0.1972
 4594W        W20063  13.860  15.902  13.292 -0.2478 -0.0852 -0.2047
 4595W        W20064   9.983   7.114   2.299  0.0518  0.1320 -0.1524
 4596W        W20065   9.973  17.336   2.864  0.1016 -0.1172 -0.0843
 4597W        W20066  10.689  17.965   3.345  0.0657  0.2914  0.0310
 4598W        W20067   7.287  13.556   1.936  0.2264 -0.0915 -0.0782
 4599W        W20068   4.590   4.991  11.380  0.0124  0.1396 -0.0910
 4600W        W20069   5.713  17.671  13.663 -0.2248  0.0582  0.2616
 4601W        W20070   1.818   2.775  14.379 -0.0645  0.0594 -0.1765
 4602W        W20071   8.238   2.764   0.178  0.0974  0.1087  0.0599
 4603W        W20072   1.326   9.520  16.074  0.2598 -0.1782 -0.1297
 4604W        W20073  14.777   0.682   4.259  0.2424  0.0155 -0.1215
 4605W        W20074   6.451  17.821  13.234  0.0694 -0.2378 -0.1991
 4606W        W20075  12.284  15.103   5.458  0.0921 -0.1583 -0.1558
 4607W        W20076  13.517   9.008  16.167 -0.1485 -0.0761 -0.1576
 4608W        W20077  17.556   5.632  15.175  0.3997 -0.1050 -0.0231
 4609W        W20078  12.061   8.663   0.251 -0.2553 -0.2826 -0.0897
 4610W        W20079  10.788   5.799   1.896 -0.2250  0.0929  0.3407
 4611W        W20080   2.169  16.448  15.005  0.0354  0.1667 -0.0595
 4612W        W20081  17.126   2.462   1.650  0.2461 -0.0742 -0.1569
 4613W        W20082   3.669   8.288   0.001 -0.1070  0.0237  0.0731
 4614W        W20083   8.837   5.879   3.411 -0.1745 -0.1574 -0.2528
 4615W        W20084  14.247   1.670   4.491  0.0491  0.1218 -0.3195
 4616W        W20085   7.731   3.755   4.909 -0.1149  0.0647 -0.1479
 4617W        W20086   3.879  18.131   3.512 -0.1637  0.0214 -0.2109
 4618W        W20087   3.042  13.343  10.936  0.0897 -0.1210 -0.2305
 4619W        W20088  13.950  17.058  13.666 -0.2723  0.1642 -0.2136
 4620W        W20089   9.402  13.978  10.915 -0.2644  0.3170  0.2010
 4621W        W20090   3.798   5.998  13.979 -0.1401 -0.0216 -0.1215
 4622W        W20091   2.768   5.104  15.998 -0.2686  0.1623  0.2094
 4623W        W20092  16.832   0.004   5.781 -0.5534 -0.0727  0.0894
 4624W        W20093  15.147  12.683  11.911 -0.0735  0.4555  0.3255
 4625W        W20094   1.284  13.939  12.111  0.1296 -0.2551  0.0722
 4626W        W20095  16.649  14.210   1.362 -0.1054  0.1834  0.2366
 4627W        W20096  14.454  11.620  11.529  0.3758  0.1565  0.1645
 4628W        W20097  10.889   2.817  15.539 -0.0478 -0.0319 -0.0619
 4629W        W20098   3.424  13.054   4.388  0.1831  0.0470 -0.5289
 4630W        W20099  16.946   1.896  13.160  0.1670  0.1372 -0.2690
 4631W        W20100  11.784  16.808   4.142 -0.0943  0.0886 -0.2145
 4632W        W20101   1.882  13.814   3.513  0.0986 -0.0866  0.0819
 4633W        W20102   1.708   4.770   4.406  0.1487 -0.0204  0.2443
 4634W        W20103  16.549   0.571   4.012 -0.0649 -0.1100  0.4718
 4635W        W20104  11.521  15.061  12.220  0.1109 -0.3101  0.3489
 4636W        W20105  10.397  10.783   5.109 -0.3512  0.0467 -0.0923
 4637W        W20106   2.815  12.890   3.894  0.3835  0.2928  0.4271
 4638W        W20107  16.619   0.048   4.074  0.2924  0.1413  0.2110
 4639W        W20108  11.002  11.467   4.222  0.2901  0.0128  0.3771
 4640W        W20109  11.875  10.615   2.025 -0.0893  0.2404  0.4102
 4641W        W20110   9.812  13.564  12.120  0.2253 -0.3371 -0.1329
 4642W        W20111  16.378   3.942  15.709 -0.1953 -0.2992  0.1128
 4643W        W20112  12.223   4.817  11.582 -0.0757 -0.1959 -0.0755
 4644W        W20113  10.447   6.834  12.383  0.1599 -0.3215  0.1946
 4645W        W20114   2.747  14.985   3.410  0.4305  0.2050  0.2600
 4646W        W20115   2.026  17.051   0.654 -0.0152  0.1914  0.0695
 4647W        W20116   5.654  17.949  12.371  0.0733  0.0423 -0.0466
 4648W        W20117  11.136  10.720   3.923 -0.1173 -0.0314 -0.2554
 4649W        W20118  15.094   7.641   5.136 -0.1240 -0.0192  0.0591
 4650W        W20119   3.132   3.068   5.033 -0.0782  0.2721  0.0338
 4651W        W20120   4.746  13.206  12.023 -0.0896 -0.3049 -0.3153
 4652W        W20121   4.452   2.419  13.089  0.2231 -0.0622  0.1016
 4653W        W20122   7.756  17.198  14.197 -0.0260  0.1397  0.2161
 4654W        W20123  14.334  13.997   2.686  0.2690  0.1406 -0.1238
 4655W        W20124   1.034  11.163  13.659  0.1118  0.2635  0.0437
 4656W        W20125   1.725   6.764   5.691 -0.1760 -0.0785 -0.0512
 4657W        W20126  17.592   1.790   0.925 -0.0179  0.3685 -0.1083
 4658W        W20127  12.013  17.508   4.029  0.1237 -0.0556 -0.2220
 4659W        W20128  16.906   2.537  14.280 -0.0780  0.2816 -0.1323
 4660W        W20129  15.573  18.109   5.073 -0.2942  0.1604  0.1876
 4661W        W20130   8.699   0.762  14.765 -0.0991  0.2204 -0.0205
 4662W        W20131   9.640   9.160   0.940  0.3591  0.1868 -0.0639
 4663W        W20132   4.710   0.331  12.918  0.0619 -0.0769 -0.2598
 4664W        W20133   5.075   2.804   1.374 -0.1410 -0.1972 -0.1799
 4665W        W20134   6.954  10.581   2.965 -0.0795 -0.2400 -0.0490
 4666W        W20135  13.253   8.070   2.764  0.2554  0.1060  0.1629
 4667W        W20136  11.043  14.667   3.012  0.1199  0.1772 -0.3845
 4668W        W20137  12.221   5.524  13.289  0.1718 -0.1988  0.3315
 4669W        W20138   4.450  17.496  13.972  0.2780 -0.4503 -0.0441
 4670W        W20139  16.848  13.266   3.134  0.0360  0.2869 -0.1012
 4671W        W20140  12.843  17.032  12.121 -0.0512 -0.0411 -0.2341
 4672W        W20141   3.331   0.906   2.659  0.0794 -0.0325  0.1352
 4673W        W20142  15.927  15.805   1.488  0.4465  0.1750  0.3055
 4674W        W20143   2.786   6.777  11.063 -0.1508  0.1305  0.1334
 4675W        W20144  17.216  14.064   5.489 -0.0963  0.0088 -0.0112
 4676W        W20145  11.318   7.647   3.372  0.2205 -0.0916 -0.1592
 4677W        W20146  16.492   3.774   0.802  0.2693  0.1502  0.0843
 4678W        W20147   0.509  15.553  15.743 -0.3952  0.4118  0.0361
 4679W        W20148   9.996  12.727   4.306 -0.3616 -0.0980 -0.1062
 4680W        W20149  15.872  13.987  12.633  0.2163 -0.0021  0.2037
 4681W        W20150  11.447   4.383  16.034 -0.2594  0.1641 -0.0044
 4682W        W20151   6.814   4.654  11.666  0.1956  0.0812 -0.4495
 4683W        W20152  15.859  15.743  13.142  0.1215 -0.3249 -0.0556
 4684W        W20153   5.925  10.490  11.756  0.0444  0.1275 -0.1399
 4685W        W20154  15.763   0.586   2.407  0.0059 -0.2164  0.1713
 4686W        W20155   4.581  18.075  10.785 -0.2981 -0.1424 -0.0501
 4687W        W20156  13.630  17.849   0.059 -0.1779 -0.0699 -0.1156
 4688W        W20157   7.966   9.685  10.706  0.1143 -0.1061 -0.0154
 4689W        W20158  18.163  15.024  15.007 -0.1119 -0.0890 -0.1508
 4690W        W20159  15.810   4.097   0.359  0.0766  0.1755 -0.0826
 4691W        W20160  12.320  15.888   1.892 -0.3400  0.1955  0.1755
 4692W        W20161   1.935   4.832   3.310 -0.2659 -0.0499 -0.0948
 4693W        W20162  13.506  15.295  11.439 -0.1123  0.1079 -0.1736
 4694W        W20163   7.156  15.885  16.173  0.1082 -0.1865  0.1532
 4695W        W20164  13.674  10.310   0.007 -0.2560 -0.0363 -0.2804
 4696W        W20165  14.469   1.979  15.137 -0.2977 -0.0764  0.0093
 4697W        W20166   9.570  11.054   2.197  0.1491 -0.1041  0.2088
 4698W        W20167   5.565   8.133   6.425  0.0154 -0.0432  0.1659
 4699W        W20168  13.279  12.778   5.327  0.2394 -0.1345  0.1422
 4700W        W20169   6.289  12.263   0.712 -0.0863 -0.0088  0.0949
 4701W        W20170  12.878   4.562  16.090 -0.2520  0.1096  0.3558
 4702W        W20171   8.052   6.285   1.458 -0.0971  0.0312 -0.2972
 4703W        W20172  15.558  17.674   1.011  0.2864  0.0611  0.1185
 4704W        W20173  13.671  17.808  12.447  0.1926 -0.4949  0.1326
 4705W        W20174  12.826  14.264   3.266 -0.3403 -0.0060 -0.3300
 4706W        W20175  10.810  16.020  11.431  0.2864  0.1599 -0.2666
 4707W        W20176  13.801   1.232  11.824 -0.0451 -0.2246  0.0944
 4708W        W20177  11.060   2.916  14.093 -0.2138 -0.1990  0.3042
 4709W        W20178   1.278   4.325  14.630  0.1202 -0.2881  0.1510
 4710W        W20179  13.792   2.720   0.598 -0.0421 -0.0466 -0.2438
 4711W        W20180  14.299   3.772  12.955 -0.0360 -0.3095  0.2329
 4712W        W20181  16.397   5.681  11.177  0.2188 -0.1294  0.3672
 4713W        W20182   6.365   7.678   3.965  0.0054 -0.0129  0.3345
 4714W        W20183  17.567   6.841   0.636  0.1146  0.2245 -0.0524
 4715W        W20184  15.308   3.223  15.183 -0.0581 -0.0925  0.0016
 4716W        W20185  13.238  14.578   2.388  0.1445  0.1995 -0.2062
 4717W        W20186  11.470   0.843   1.426  0.4747 -0.0260 -0.1184
 4718W        W20187   2.749  16.596   4.797  0.3518  0.3429  0.1044
 4719W        W20188   3.283  11.043   1.621  0.2888  0.2937 -0.3927
 4720W        W20189   9.197  15.557   0.427  0.1420 -0.1744  0.0781
 4721W        W20190   0.918   5.482  12.299 -0.1036  0.0358  0.0267
 4722W        W20191   6.007   3.632  12.181 -0.1370 -0.1641  0.0180
 4723W        W20192  12.335   4.224  13.434 -0.1930  0.3336  0.1257
 4724W        W20193  14.107  13.349   1.457 -0.0560  0.0736  0.0107
 4725W        W20194  15.490   6.921   1.115  0.0059 -0.1307  0.2283
 4726W        W20195  14.752   8.888  15.528 -0.1880  0.0482  0.0747
 4727W        W20196   3.885  13.629  12.443 -0.2268  0.0708  0.0300
 4728W        W20197  14.475   0.313  15.791  0.1589  0.0976  0.0456
 4729W        W20198  15.400  16.214   0.807 -0.1965 -0.0484 -0.1522
 4730W        W20199   7.104   5.103   0.086  0.2895 -0.0780 -0.0828
 4731W        W20200   1.998   4.189  13.865 -0.0087 -0.0132  0.0072
 4732W        W20201   2.426   5.809   4.492 -0.2642 -0.0053  0.1661
 4733W        W20202  11.417   8.921   5.137  0.2980 -0.2243  0.1895
 4734W        W20203   2.354  10.436  12.007  0.0499  0.0801  0.3244
 4735W        W20204   8.717   0.495  11.905 -0.3103 -0.5408  0.2288
 4736W        W20205   8.609  17.518   3.285  0.2244  0.0635  0.3009
 4737W        W20206   5.425  13.092   3.789 -0.0760  0.1171  0.1748
 4738W        W20207  15.297  10.231  12.578 -0.1032 -0.1784 -0.1131
 4739W        W20208  12.501   3.190   1.791 -0.0988 -0.0922 -0.0843
 4740W        W20209   6.129   4.560  15.378  0.0444  0.0452 -0.0625
 4741W        W20210  15.849   4.493   3.371  0.1091 -0.3585  0.2012
 4742W        W20211   0.663   2.596   6.163 -0.1359  0.2952  0.2506
 4743W        W20212  16.966  16.720  14.282 -0.0375  0.1746 -0.1580
 4744W        W20213   4.981  15.369   1.750 -0.0727  0.1514  0.0475
 4745W        W20214   7.620   8.106   5.726 -0.0262 -0.0189  0.0026
 4746W        W20215   3.993  15.849  11.389  0.0054 -0.0671 -0.0595
 4747W        W20216  13.376   0.393  12.174  0.1208 -0.4626  0.0573
 4748W        W20217  13.120  14.305   5.167  0.1474 -0.2192  0.0189
 4749W        W20218   8.418  14.902   4.917  0.1652 -0.0047 -0.0847
 4750W        W20219   7.063   4.630   0.322 -0.2099 -0.0987  0.2854
 4751W        W20220   4.035   0.088   1.111 -0.0018  0.2469 -0.1772
 4752W        W20221  15.360  13.767  15.178  0.1151 -0.5831  0.2393
 4753W        W20222  11.248   0.962   4.188 -0.0079 -0.0737 -0.2493
 4754W        W20223   7.967  12.578   1.656 -0.1683  0.0156  0.2230
 4755W        W20224   6.167   3.114  12.644 -0.1755  0.0930 -0.2634
 4756W        W20225   2.415   6.366   5.019  0.0504 -0.1434  0.0039
 4757W        W20226  15.433   4.295  14.480  0.0964  0.1262 -0.0590
 4758W        W20227  15.609  10.285   0.601 -0.0684 -0.1858  0.0344
 4759W        W20228   1.600  16.189  14.271 -0.2141  0.1084  0.0514
 4760W        W20229   5.162   0.017   3.220  0.0644 -0.0952 -0.0054
 4761W        W20230  17.887   9.592  15.754 -0.0531  0.2240  0.0995
 4762W        W20231  10.480   8.472  13.761  0.1091 -0.2128  0.2987
 4763W        W20232   4.004   1.710   0.887  0.2605  0.3320  0.1530
 4764W        W20233   5.417   3.520  15.042 -0.1473 -0.1309 -0.0108
 4765W        W20234  13.740  16.241   3.853 -0.0598  0.0648 -0.0533
 4766W        W20235  15.203   5.833   0.066  0.3577 -0.1519 -0.1270
 4767W        W20236   1.018   7.784   2.883  0.3539  0.2091  0.1502
 4768W        W20237   3.055  16.997   4.996 -0.3812 -0.0113  0.1556
 4769W        W20238   3.891   7.610  12.874  0.0855 -0.0762 -0.0545
 4770W        W20239  13.150   6.259   1.715  0.0085  0.0296  0.0800
 4771W        W20240   6.812  17.893  12.084 -0.1246 -0.2570  0.1217
 4772W        W20241  16.798   7.565   1.798  0.1421  0.1244  0.2071
 4773W        W20242   6.649   1.886  11.095 -0.3236 -0.0823  0.0194
 4774W        W20243   6.122  15.215  11.690 -0.1840 -0.2795 -0.1374
 4775W        W20244  10.628   9.905  13.034 -0.0940  0.0876  0.1894
 4776W        W20245  11.507   8.469   2.713  0.0119 -0.2433  0.1404
 4777W        W20246  13.419  13.634  14.282 -0.2590 -0.1384  0.2000
 4778W        W20247  15.278   0.803  11.412  0.0907 -0.3718  0.1980
 4779W        W20248  13.276   7.241  13.634 -0.5834  0.2193 -0.2327
 4780W        W20249  14.844   8.400   3.915 -0.2030 -0.0898  0.1250
 4781W        W20250  12.198  10.600   2.455 -0.2510 -0.0454 -0.2291
 4782W        W20251  18.068   8.551   0.699  0.0618  0.1040 -0.1324
 4783W        W20252  16.508   2.748  14.467 -0.2094  0.2397 -0.1440
 4784W        W20253  17.253  17.642   1.840 -0.0495  0.1217 -0.1315
 4785W        W20254  12.581   1.014  12.967 -0.3458  0.1724  0.1291
 4786W        W20255  18.038  14.606   5.663  0.0767 -0.1358 -0.3374
 4787W        W20256  13.074  15.971   4.027 -0.0407 -0.1246 -0.3092
 4788W        W20257   6.979   2.514   2.569 -0.0431  0.1062 -0.2466
 4789W        W20258   6.279  13.865   2.888  0.0778 -0.1424 -0.3117
 4790W        W20259   6.054   2.741   3.719  0.0055 -0.1303  0.1755
 4791W        W20260   6.092  12.434  11.709  0.0096  0.1306 -0.0986
 4792W        W20261  10.629  17.344  10.408  0.1730 -0.2727  0.2407
 4793W        W20262   5.814   2.570  13.753 -0.1940 -0.2535  0.0690
 4794W        W20263   8.201  16.887  10.528  0.3155 -0.0686  0.0223
 4795W        W20264  13.644  14.734  11.432 -0.0844  0.4775 -0.2684
 4796W        W20265   8.031  11.541   3.988 -0.2084 -0.1449 -0.2939
 4797W        W20266  10.709  11.047  12.960  0.3120 -0.3013  0.1355
 4798W        W20267  17.074   3.174  15.752  0.3300 -0.0801  0.0440
 4799W        W20268   9.273  16.570  16.145 -0.1427  0.1640  0.0804
 4800W        W20269   7.461   9.458  14.873  0.1834  0.2385 -0.0217
 4801W        W20270  10.245   8.093   0.934  0.5168  0.1881 -0.0854
 4802W        W20271   0.381   1.068  11.155 -0.0582  0.0877  0.3545
 4803W        W20272   9.850  14.285  11.043  0.0147  0.1737  0.1196
 4804W        W20273   8.720  17.769   5.027 -0.1162 -0.2524  0.2875
 4805W        W20274   6.946  16.159  12.734  0.2702 -0.1272  0.0316
 4806W        W20275  15.939   4.814   1.076 -0.0857 -0.3348  0.1728
 4807W        W20276   9.596   2.269   1.410  0.0080  0.0840 -0.2504
 4808W        W20277   2.482   3.931   4.875 -0.2669  0.1031 -0.3215
 4809W        W20278   9.447   3.925   0.760  0.2300  0.0523 -0.0134
 4810W        W20279  12.978   6.223   4.525 -0.0207 -0.1614 -0.0198
 4811W        W20280   8.683  16.627   2.379 -0.1193 -0.0687 -0.4005
 4812W        W20281  16.395   0.606   0.882 -0.2055 -0.0798  0.0884
 4813W        W20282   4.660   0.109   1.890 -0.1760 -0.0139 -0.2181
 4814W        W20283   0.805   6.573  15.489  0.0890 -0.3463 -0.3143
 4815W        W20284   3.762  10.593  15.933 -0.1330 -0.2441  0.1643
 4816W        W20285  17.525  12.387  13.711 -0.0623  0.3566  0.1532
 4817W        W20286   0.592   6.345  12.479 -0.0327  0.0102 -0.1508
 4818W        W20287   4.311   8.416  13.922  0.1762  0.1631 -0.0141
 4819W        W20288  13.735   2.426  15.640 -0.0899  0.1136  0.1652
 4820W        W20289  16.416   5.431  15.110  0.0129 -0.0718  0.0668
 4821W        W20290   1.811  10.353   0.649  0.0258  0.1139 -0.2337
 4822W        W20291   1.112  14.752  12.486  0.0486 -0.2427 -0.0239
 4823W        W20292   4.983   6.840  14.417  0.0613  0.1812 -0.0428
 4824W        W20293  15.932   8.941   1.678  0.0087  0.4584 -0.0103
 4825W        W20294   7.202   3.735   3.116  0.1125 -0.2346 -0.1908
 4826W        W20295   7.088  16.296   5.871 -0.2517 -0.1582  0.1584
 4827W        W20296   7.139   9.403  14.520  0.4392 -0.0063 -0.0835
 4828W        W20297  10.350   3.612   4.415  0.0529 -0.0041 -0.1119
 4829W        W20298   5.159   6.851   0.588 -0.1896 -0.1243  0.0998
 4830W        W20299   6.319   7.045   1.858  0.0973 -0.0039  0.1877
 4831W        W20300  17.890  17.420   4.424  0.0649 -0.3013 -0.0471
 4832W        W20301   7.381  14.492   3.091 -0.3110  0.0632  0.1505
 4833W        W20302  11.693   5.145  15.836 -0.0994  0.1055 -0.1542
 4834W        W20303  10.051  16.982  11.647 -0.0475 -0.0110 -0.5694
 4835W        W20304  15.025  14.216  15.260  0.0146 -0.0121  0.0070
 4836W        W20305  14.659  16.699   4.363  0.0584  0.0537 -0.2411
 4837W        W20306   9.533   8.099   4.742 -0.1808  0.1598 -0.0857
 4838W        W20307   4.080   9.564   0.389 -0.0997  0.0439 -0.1468
 4839W        W20308  17.736   7.490  11.508 -0.0755  0.0099 -0.1641
 4840W        W20309  12.968   7.158   3.084  0.0156 -0.2555  0.0556
 4841W        W20310   5.566  18.156   5.624  0.1196 -0.1277 -0.1747
 4842W        W20311  12.922   7.023   2.008 -0.1216 -0.1070 -0.1415
 4843W        W20312   5.569   8.566   5.897 -0.1816 -0.1812 -0.2793
 4844W        W20313   1.663  10.809  11.950 -0.0908  0.0829  0.0700
 4845W        W20314   6.074  10.737  13.593  0.1590 -0.0617  0.2546
 4846W        W20315  14.929   9.354  15.243  0.0355  0.1458  0.0833
 4847W        W20316  13.438   5.482  12.545  0.3115 -0.0418 -0.0036
 4848W        W20317  17.943   9.036  12.014  0.0719  0.0332  0.2594
 4849W        W20318  11.115   8.687   3.105  0.0258  0.1620  0.2783
 4850W        W20319   8.125   3.340   2.759  0.0573 -0.1141  0.1570
 4851W        W20320   1.926   2.161   4.269  0.0396 -0.2025 -0.0230
 4852W        W20321  11.618   3.162   3.136 -0.0771  0.0139  0.1194
 4853W        W20322  11.824  13.868  13.212  0.1062  0.2009  0.1351
 4854W        W20323  14.505   8.880  14.309 -0.0645  0.0351 -0.1641
 4855W        W20324   5.834   4.174   0.099  0.4268  0.0393 -0.1919
 4856W        W20325   4.674   0.202   3.312  0.1766  0.1591 -0.1191
 4857W        W20326   5.223  17.914   4.049  0.1783 -0.2915  0.1363
 4858W        W20327  10.640   7.771  14.621  0.3133  0.2828 -0.2764
 4859W        W20328  13.114   0.123   0.199  0.1676  0.0292  0.3412
 4860W        W20329  14.696   4.333  11.388  0.1409  0.2724  0.1748
 4861W        W20330  18.073   4.604  13.675 -0.1087 -0.1198  0.0089
 4862W        W20331   6.759  14.826   4.789 -0.0468 -0.2299  0.4256
 4863W        W20332   1.345   6.293  14.714 -0.1495 -0.1838  0.0768
 4864W        W20333   7.188   8.680   2.951  0.0886  0.2268 -0.4916
 4865W        W20334   6.593  12.560  11.516 -0.0532 -0.0524 -0.0056
 4866W        W20335   0.278  16.126   2.927 -0.0212 -0.2471  0.1594
 4867W        W20336   8.755   2.050   0.664  0.2778  0.0965  0.0429
 4868W        W20337  14.477   6.212  15.775  0.0916  0.3168 -0.0326
 4869W        W20338   6.271  15.689   3.341 -0.0162 -0.2371  0.2900
 4870W        W20339   9.931  10.654   5.229  0.2230 -0.2567 -0.0949
 4871W        W20340  10.211  10.851  14.310 -0.2774 -0.0808  0.1819
 4872W        W20341  18.004   5.992  11.621  0.0315  0.2925  0.1566
 4873W        W20342   6.777   7.054  12.244 -0.1925  0.1774  0.1758
 4874W        W20343  11.610   8.250  11.385  0.1640 -0.0991 -0.0751
 4875W        W20344   2.497   1.551   3.553 -0.0851  0.0517  0.1595
 4876W        W20345   2.558  12.553  12.403 -0.0397 -0.0144 -0.2396
 4877W        W20346  11.558  15.635  12.369  0.2367  0.2861 -0.1554
 4878W        W20347  11.636  11.724   3.000  0.1569 -0.1499  0.2447
 4879W        W20348  13.053   7.486   1.031  0.0305 -0.0283 -0.2852
 4880W        W20349  13.066  14.008   3.657 -0.1761  0.1087 -0.0310
 4881W        W20350  11.102  11.173   5.210  0.1821  0.2696 -0.1811
 4882W        W20351  13.581   4.281  12.334  0.4355  0.0134  0.0449
 4883W        W20352  17.720  11.081   0.256  0.1407  0.0155 -0.2196
 4884W        W20353   3.798   3.494   0.681  0.1808  0.0693 -0.0424
 4885W        W20354   7.140   1.404   1.825  0.1426 -0.0569 -0.3034
 4886W        W20355   4.314  12.367   1.505  0.0490  0.0403  0.1815
 4887W        W20356   1.997   7.169  13.810  0.1343 -0.2487  0.0165
 4888W        W20357   1.959  14.388  12.179  0.0616 -0.1405 -0.1336
 4889W        W20358  12.430  10.880   3.686 -0.1269  0.2229 -0.1243
 4890W        W20359   4.138   5.097   2.951  0.0837 -0.0546  0.0580
 4891W        W20360   5.707  17.010  11.982 -0.1715 -0.1886  0.0477
 4892W        W20361   1.637  17.985   1.124  0.0680  0.2803 -0.0593
 4893W        W20362   4.399   5.542   2.752  0.3414 -0.2973  0.3603
 4894W        W20363  15.645   5.227   1.247 -0.2584  0.1662  0.0673
 4895W        W20364  13.624   6.730   5.149 -0.1170 -0.1892 -0.1310
 4896W        W20365   8.830  12.568   3.440 -0.0791  0.0394  0.0066
 4897W        W20366  18.048  16.536  14.911 -0.1352 -0.2543  0.1034
 4898W        W20367  16.449   0.182   1.289  0.0832 -0.1558  0.0769
 4899W        W20368  11.139   0.084  11.832 -0.2167  0.2395 -0.1794
 4900W        W20369  12.607  12.252  12.445  0.0145 -0.0431 -0.2368
 4901W        W20370  13.413  14.077   4.062  0.0149  0.1222 -0.1225
 4902W        W20371   3.590   5.869  15.569 -0.0063  0.0107  0.2587
 4903W        W20372  15.683  13.603   4.656  0.0785  0.1055 -0.1848
 4904W        W20373   5.893   8.754   3.297 -0.1050 -0.1104 -0.5770
 4905W        W20374  13.071   6.070   0.152  0.0663  0.0071 -0.0688
 4906W        W20375  12.107  12.627  12.878 -0.2821  0.1773 -0.0683
 4907W        W20376   0.862  16.545  10.739 -0.2493  0.0584 -0.0352
 4908W        W20377  15.119   6.211  14.197  0.1710  0.0065  0.1966
 4909W        W20378   9.982  17.434  13.213 -0.1717  0.2761  0.0202
 4910W        W20379   9.908  15.038   4.367 -0.0628 -0.2008 -0.2957
 4911W        W20380   2.556  11.484  12.242 -0.1232 -0.0487  0.4449
 4912W        W20381   8.599  16.836  13.677  0.0560 -0.2012 -0.1963
 4913W        W20382  10.920   8.715  12.607  0.2991  0.1072  0.0603
 4914W        W20383  15.652   3.610  11.787  0.0726  0.0107  0.1737
 4915W        W20384  12.598  17.455  14.398  0.3713  0.0996  0.1263
 4916W        W20385   5.202   0.447  14.828 -0.1451  0.0786 -0.0428
 4917W        W20386   4.981   6.105   4.141  0.0534  0.3173 -0.2157
 4918W        W20387  10.224   3.523   3.641 -0.0745  0.0716  0.0483
 4919W        W20388   8.947   1.539  13.527  0.3897  0.0014  0.1506
 4920W        W20389  16.935   5.833  11.597 -0.0197 -0.0628  0.2410
 4921W        W20390  13.440  10.696   0.217  0.0718  0.1933 -0.1186
 4922W        W20391  12.371   4.662   1.888 -0.0785 -0.1594 -0.2159
 4923W        W20392  11.310   0.951   2.772  0.0628  0.2528 -0.0623
 4924W        W20393   5.625  12.297  12.781 -0.2271 -0.2250  0.0654
 4925W        W20394   9.728  11.422  15.997 -0.0113  0.0280 -0.1409
 4926W        W20395  17.084  13.322  11.507 -0.1655 -0.0030  0.1301
 4927W        W20396   4.267  17.118   4.686  0.2856  0.1902  0.0526
 4928W        W20397   8.504   5.853  11.870 -0.0906  0.0806  0.1766
 4929W        W20398  16.498  17.152   5.279  0.0893  0.0059 -0.3024
 4930W        W20399  11.879   8.995  14.975 -0.4132  0.0035  0.0890
 4931W        W20400  15.943  14.713   2.996 -0.1699 -0.3253 -0.1462
 4932W        W20401   9.811  10.093  14.980  0.2302  0.1244 -0.2606
 4933W        W20402  15.825  12.475  13.482  0.0783  0.0906  0.2137
 4934W        W20403   9.236   4.435   0.913  0.0640 -0.0850  0.0787
 4935W        W20404   9.013   9.196   1.442 -0.0096 -0.1796 -0.0777
 4936W        W20405   1.989   7.330   3.103  0.1814  0.1626 -0.1407
 4937W        W20406  13.217   3.947   3.961  0.1081 -0.2487 -0.1727
 4938W        W20407  12.770   6.010   3.015 -0.0039  0.0146  0.1706
 4939W        W20408  11.805   9.356  13.669 -0.0197 -0.1026 -0.0396
 4940W        W20409  15.079   9.815  15.054  0.3390  0.1383  0.0260
 4941W        W20410  13.532  10.146  15.456 -0.1284 -0.2370 -0.0125
 4942W        W20411   2.069  11.717   0.169 -0.1442  0.2112  0.0450
 4943W        W20412   9.726   5.202  16.117 -0.2423  0.0060  0.1244
 4944W        W20413   1.748   5.941   3.634  0.4861 -0.1255  0.2147
 4945W        W20414   7.795   3.576   3.360  0.0416 -0.1160 -0.1915
 4946W        W20415  16.470  13.711   1.674  0.2345 -0.0493 -0.1826
 4947W        W20416   2.700   1.601   2.056 -0.0895  0.0597 -0.0591
 4948W        W20417   4.662   6.805   0.372  0.1448 -0.0525 -0.1472
 4949W        W20418   3.012   6.310  14.161 -0.2141 -0.0649  0.3029
 4950W        W20419  13.190  14.612   5.607  0.0310  0.0597 -0.1416
 4951W        W20420  11.943  16.319   4.487 -0.0961  0.1194 -0.0437
 4952W        W20421   0.396   9.955  12.289  0.1175  0.0593 -0.2179
 4953W        W20422  12.515   5.090   2.189  0.1507  0.3735  0.1606
 4954W        W20423  11.285   4.767  13.510 -0.0914  0.1847 -0.0197
 4955W        W20424   6.526  11.851   2.992  0.2083 -0.1062 -0.3965
 4956W        W20425  17.523   3.064   3.285  0.2186  0.0838  0.0541
 4957W        W20426   5.635   2.182   2.323 -0.1304 -0.1388  0.0601
 4958W        W20427  14.216  14.717   1.120  0.2243  0.3405 -0.3156
 4959W        W20428  16.507   6.165   3.050  0.0353 -0.1055 -0.0242
 4960W        W20429   1.496   5.274  11.676  0.0888  0.2353 -0.0614
 4961W        W20430   9.906  11.621  11.908  0.2976  0.1637  0.0433
 4962W        W20431   3.902   2.500  14.851 -0.3043  0.0877  0.0103
 4963W        W20432  12.217  14.020  14.483 -0.4715 -0.1056 -0.1095
 4964W        W20433  17.749   2.176   4.501  0.1105 -0.0728  0.1163
 4965W        W20434   6.965  16.328  13.838 -0.4021 -0.1952  0.1144
 4966W        W20435  14.460   7.864  10.199 -0.1383  0.0119  0.2028
 4967W        W20436   8.727  18.127  15.806 -0.1215 -0.0856 -0.0345
 4968W        W20437   7.982  17.738   2.132 -0.2976 -0.1817  0.0064
 4969W        W20438  13.792   2.784   0.034  0.0137  0.0982  0.1141
 4970W        W20439   2.706   8.388   3.773 -0.1642  0.0820  0.0059
 4971W        W20440  15.395  10.134   3.745 -0.3316 -0.1386 -0.1875
 4972W        W20441   7.662  15.538   3.195 -0.2591 -0.0828  0.0856
 4973W        W20442   5.350   2.832  15.954 -0.5171  0.2176  0.0254
 4974W        W20443   1.069   1.174   4.566 -0.0696  0.2818  0.2682
 4975W        W20444   0.903  13.684  13.652  0.1599  0.1418  0.1638
 4976W        W20445  16.059  12.997  13.706  0.1838  0.2530  0.0728
 4977W        W20446   4.084   3.352  14.840 -0.1628 -0.2289  0.0627
 4978W        W20447  17.386   7.648   4.096 -0.0993 -0.0428 -0.2865
 4979W        W20448   0.701  11.121  12.440  0.1227  0.1316 -0.1906
 4980W        W20449  12.898  10.757   5.048 -0.5139  0.1535 -0.3781
 4981W        W20450  17.109  18.243   4.145  0.2225  0.3494 -0.1547
 4982W        W20451  15.279   7.861   1.481 -0.1799 -0.1760  0.2199
 4983W        W20452   0.840  11.767   3.825  0.3124 -0.0669  0.1877
 4984W        W20453  15.435  14.441  16.082  0.2089 -0.1444 -0.1786
 4985W        W20454   9.115  11.641   4.705 -0.1828  0.0573  0.2630
 4986W        W20455  14.090  10.125  11.683 -0.3907  0.0340  0.0267
 4987W        W20456   8.799  17.158   3.891 -0.0487  0.2875 -0.0387
 4988W        W20457  17.811  14.165   1.086 -0.1520 -0.2021 -0.0748
 4989W        W20458  11.730   3.351  13.718  0.2246 -0.0295 -0.0571
 4990W        W20459   2.293   0.670  11.143 -0.1757  0.1553  0.1372
 4991W        W20460   5.500   6.868  11.369 -0.1408  0.1671  0.1284
 4992W        W20461  10.556  16.753   0.120 -0.0134  0.0776  0.0094
 4993W        W20462  17.207   9.428   1.998  0.0262 -0.5445 -0.3029
 4994W        W20463   7.417  17.910   4.360  0.0162  0.4043 -0.2678
 4995W        W20464   6.627  18.231  15.033 -0.1388  0.2022  0.1457
 4996W        W20465   5.094  10.732  11.413 -0.0894  0.2598 -0.1216
 4997W        W20466  11.079   4.110   3.467 -0.0515  0.2472 -0.1296
 4998W        W20467   1.715   4.837  14.553 -0.3568  0.1321 -0.4273
 4999W        W20468   4.623  12.222  12.029 -0.0913  0.1940  0.0236
 5000W        W20469   2.770   9.260   2.115 -0.1984 -0.1373  0.0302
 5001W        W20470  16.915  11.152   3.853  0.0386  0.0733 -0.0949
 5002W        W20471   1.247  14.273   0.941  0.1923  0.1363  0.1126
 5003W        W20472  17.258   5.084   5.369  0.0212  0.5240  0.3696
 5004W        W20473   8.102   7.405   3.086 -0.1041 -0.1328 -0.0169
 5005W        W20474   3.911  14.010  10.540 -0.1570  0.0913 -0.2790
 5006W        W20475   0.527  15.358   1.239  0.4047  0.1264 -0.2412
 5007W        W20476   6.598  11.498   0.827  0.0592  0.0571  0.1375
 5008W        W20477   1.720  18.019  12.236  0.1937 -0.1154  0.2537
 5009W        W20478   2.744   0.227  13.078  0.0404 -0.2925  0.0322
 5010W        W20479  18.176  11.853   0.476  0.1330  0.0716  0.0622
 5011W        W20480  10.081   8.797  15.218  0.2568 -0.2699 -0.2324
 5012W        W20481  10.676  17.170  14.195  0.2137 -0.0814 -0.3488
 5013W        W20482   2.604  11.637  13.507  0.0492  0.2248  0.4017
 5014W        W20483   2.695   0.121   3.213 -0.2166 -0.1686 -0.2673
 5015W        W20484  14.707   9.312  11.455  0.4752 -0.0080  0.3079
 5016W        W20485  13.297  12.849   0.051 -0.3546  0.0358 -0.0141
 5017W        W20486   7.953   1.113   1.850 -0.0431 -0.0811 -0.1244
 5018W        W20487  14.486  14.186  13.091  0.0388  0.2447  0.0120
 5019W        W20488   7.748  11.883  11.221 -0.0563  0.2212 -0.1237
 5020W        W20489   0.529   2.524   0.050 -0.0328 -0.1602  0.1096
 5021W        W20490  15.852  16.965   1.634  0.1832 -0.2772 -0.1366
 5022W        W20491   0.160  11.198  12.592  0.0065 -0.0035 -0.0883
 5023W        W20492   0.676   6.603  12.946 -0.3133  0.0733 -0.1734
 5024W        W20493   8.372   4.313   4.611  0.2436 -0.0661 -0.1085
 5025W        W20494  11.379  10.654   5.420 -0.0076 -0.1210  0.0553
 5026W        W20495  10.744   5.537   2.326 -0.0222 -0.2274 -0.2579
 5027W        W20496   5.501  13.580  16.038  0.1101 -0.0891 -0.0549
 5028W        W20497   5.061  13.942   5.848 -0.1117  0.0292 -0.0295
 5029W        W20498  14.949  10.680   3.146  0.2289  0.2477  0.0430
 5030W        W20499   4.758   5.040  15.123  0.2433 -0.1164  0.3326
 5031W        W20500   7.868  17.669  10.295 -0.2914  0.0339  0.1836
 5032W        W20501   2.438   2.005   1.780  0.0359 -0.2433  0.4169
 5033W        W20502  16.718  15.782   0.785  0.1705 -0.0264  0.0606
 5034W        W20503  13.086   9.520   5.456 -0.1648 -0.0053 -0.0586
 5035W        W20504  15.378   4.053   3.803  0.1747  0.2421 -0.1500
 5036W        W20505   0.356   7.079  11.920  0.0490  0.0806  0.0405
 5037W        W20506  18.130   8.096   4.954  0.1562  0.0205 -0.0536
 5038W        W20507   1.342   6.298  14.025  0.2344 -0.2191  0.1095
 5039W        W20508  12.594   7.304   1.008  0.1738  0.1126 -0.3220
 5040W        W20509  14.315   6.645   0.309  0.0209 -0.1796 -0.1170
 5041W        W20510   5.177   9.303   4.815  0.1171  0.0808  0.0602
 5042W        W20511   8.120   2.833  14.305  0.0221  0.3662  0.1187
 5043W        W20512  18.186  14.253  14.223 -0.1096 -0.1390 -0.2359
 5044W        W20513  14.175   5.409   1.608 -0.0221 -0.2432  0.1685
 5045W        W20514   9.319  15.951   1.202  0.1081 -0.0398 -0.0686
 5046W        W20515  15.189   7.646   3.343 -0.4516 -0.2241  0.0595
 5047W        W20516  10.809  13.527  14.427 -0.1079  0.0307 -0.1681
 5048W        W20517   4.321   7.945  15.016  0.0416 -0.2664 -0.1557
 5049W        W20518   6.697   7.273   2.236 -0.0518 -0.0144 -0.1762
 5050W        W20519  15.537   6.071   3.386  0.1469 -0.2460 -0.0065
 5051W        W20520   8.766   8.914   0.049  0.2464  0.0880 -0.0237
 5052W        W20521   2.030  15.351   1.159  0.1728 -0.3009  0.0800
 5053W        W20522  17.697   4.996   1.916 -0.4141 -0.0521  0.2199
 5054W        W20523  17.100  11.699   1.526 -0.2782  0.1323  0.0581
 5055W        W20524  10.709  10.152   1.409 -0.1380 -0.1648 -0.2145
 5056W        W20525   7.988  13.773  15.283  0.0832  0.1010 -0.0497
 5057W        W20526  11.837  11.144   1.168  0.0975 -0.1037 -0.0490
 5058W        W20527  15.940   5.226  15.153 -0.1616  0.2570 -0.0199
 5059W        W20528  13.226   4.840   3.791  0.0904 -0.3753  0.1201
 5060W        W20529   0.064  18.297  12.740 -0.4236 -0.2303  0.4222
 5061W        W20530   1.506  14.345  11.927 -0.1212 -0.0337  0.2564
 5062W        W20531  10.572  11.631  14.658 -0.0477 -0.0793 -0.0531
 5063W        W20532  10.587   0.114  11.759 -0.3051 -0.3556  0.3795
 5064W        W20533   8.589  12.708  14.225  0.3925  0.2092 -0.0085
 5065W        W20534   0.933  14.397  12.111  0.1181 -0.2452  0.0183
 5066W        W20535  16.564   2.926  14.028  0.1407  0.3805 -0.2809
 5067W        W20536   4.704   4.616  15.419 -0.3126  0.0637 -0.0171
 5068W        W20537   7.405   5.225  14.636 -0.0454  0.1656 -0.1631
 5069W        W20538   7.888   9.836   1.287 -0.2571 -0.0661 -0.2785
 5070W        W20539   4.495  10.228   5.306 -0.0196 -0.1625  0.0737
 5071W        W20540   3.411  12.656  13.382 -0.0076 -0.1839 -0.2507
 5072W        W20541   7.163   4.690  12.996  0.1051  0.1872  0.1897
 5073W        W20542   7.922   7.651  12.145  0.0011  0.1007 -0.1469
 5074W        W20543   6.322   0.819  10.712  0.4315 -0.0825 -0.0351
 5075W        W20544  15.750   9.679   5.766  0.0592  0.0491 -0.1871
 5076W        W20545  12.947  12.925  12.984  0.1159  0.0887 -0.1141
 5077W        W20546   7.048  17.235  13.603  0.0796 -0.0903 -0.1812
 5078W        W20547   8.867  12.545   1.521 -0.0054 -0.0276  0.4557
 5079W        W20548  17.182   6.181  11.175  0.2081 -0.0748  0.0221
 5080W        W20549   3.896   5.047  15.706  0.2037  0.0678 -0.1663
 5081W        W20550   2.995  16.738  10.752 -0.2883  0.0156 -0.1034
 5082W        W20551  11.297  10.438   0.853  0.2129 -0.0871  0.3047
 5083W        W20552   1.658  14.601  14.152 -0.0426 -0.0201 -0.3937
 5084W        W20553   5.406   9.404  13.590  0.3387  0.0064  0.0528
 5085W        W20554   1.651  10.859  10.199 -0.0824 -0.1214  0.0721
 5086W        W20555   7.993   0.905  11.605  0.0415  0.0225 -0.2922
 5087W        W20556  11.882   4.094  13.207 -0.0822 -0.2604  0.1419
 5088W        W20557   0.393  16.406  12.338 -0.0769  0.1532 -0.0667
 5089W        W20558  15.420  10.056  15.815  0.0187  0.3316 -0.0381
 5090W        W20559   0.363  17.917   0.774  0.3351  0.0849 -0.2438
 5091W        W20560   8.894  16.645   3.887 -0.1292 -0.0142  0.1295
 5092W        W20561  17.907  14.717   0.631 -0.0853  0.1832  0.0945
 5093W        W20562   4.647   7.991   3.511 -0.0799 -0.1133  0.1293
 5094W        W20563   9.161   8.520  15.300 -0.2206 -0.0791  0.1457
 5095W        W20564   8.277   4.097  14.243 -0.1106  0.0224 -0.0845
 5096W        W20565  12.641   1.664  11.461  0.1247  0.0073 -0.1312
 5097W        W20566   6.771   4.260   0.030  0.0279  0.0592  0.0081
 5098W        W20567   9.409   1.109   2.212  0.0992 -0.0704 -0.1581
 5099W        W20568  13.845  14.461  10.100 -0.0806  0.0171 -0.1258
 5100W        W20569  14.219  10.165   2.250 -0.0616 -0.2511  0.0360
 5101W        W20570  15.161  13.643   4.721  0.3879 -0.2072 -0.0964
 5102W        W20571   1.867   6.304  13.032 -0.1553 -0.1356 -0.3101
 5103W        W20572  15.318  16.999  12.204  0.0851 -0.0703  0.1511
 5104W        W20573   3.895   3.203   1.949  0.1289  0.3072  0.0554
 5105W        W20574   0.285  11.307   4.415 -0.0237  0.1391 -0.0703
 5106W        W20575   9.638  15.256   5.412 -0.0747 -0.0933  0.3426
 5107W        W20576   1.069  10.638   6.305  0.1975 -0.0369 -0.0434
 5108W        W20577  14.150  10.760  13.001 -0.1070  0.0509  0.2360
 5109W        W20578   1.483  16.948   3.643  0.1596  0.2360  0.1457
 5110W        W20579   5.467   7.886   0.362  0.2849 -0.2273  0.0527
 5111W        W20580  15.706   7.135  15.462  0.0858  0.0867 -0.1495
 5112W        W20581  15.387   7.102  11.582  0.3149 -0.1968 -0.4585
 5113W        W20582   5.647   2.943   4.379  0.2152  0.2330  0.1286
 5114W        W20583   7.351   4.784   2.758 -0.2538 -0.1475  0.1566
 5115W        W20584  13.297  14.688  13.466 -0.1514 -0.1288 -0.0294
 5116W        W20585   0.716  11.731  11.734 -0.0757 -0.5044 -0.0816
 5117W        W20586  16.439   4.545  11.900 -0.1262  0.0884 -0.0091
 5118W        W20587   7.297  17.681   6.000  0.1631  0.3653 -0.2430
 5119W        W20588  11.149  15.340  12.501 -0.2037 -0.1674 -0.1618
 5120W        W20589  12.286  15.792  14.292  0.1172 -0.2251  0.2638
 5121W        W20590  13.120   5.730   1.833  0.1261 -0.1462  0.1216
 5122W        W20591  18.212  12.784   3.833  0.0569 -0.0329 -0.1443
 5123W        W20592  14.773   3.123  14.170  0.0377 -0.0590 -0.0359
 5124W        W20593   4.232   6.409   4.341 -0.0277 -0.3160 -0.0864
 5125W        W20594   5.847   9.671   3.958 -0.1081 -0.1786  0.0865
 5126W        W20595   8.320  14.713   1.074 -0.0028 -0.3203  0.0738
 5127W        W20596  10.585   9.271   4.971  0.0934  0.2777  0.0104
 5128W        W20597  12.824   4.709  12.991 -0.0178 -0.3083 -0.0607
 5129W        W20598  10.730  12.728  11.762 -0.1079  0.2686  0.0610
 5130W        W20599   0.874  12.524  13.332  0.2375  0.0059  0.0516
 5131W        W20600  12.653  15.924  13.521 -0.1560  0.0894  0.1657
 5132W        W20601  14.801  15.403  12.516 -0.2047  0.4077  0.2754
 5133W        W20602   4.913   1.750  12.690 -0.2575  0.2239  0.4514
 5134W        W20603   1.887   0.256  13.437  0.0106  0.4992  0.0568
 5135W        W20604  16.810  11.490  15.346 -0.2488  0.4745 -0.0715
 5136W        W20605  16.604  11.507   1.959 -0.0620  0.1347 -0.2281
 5137W        W20606   4.391  15.038   4.235  0.1457  0.3364 -0.1146
 5138W        W20607  15.142   2.553  11.020 -0.1470  0.1285  0.1634
 5139W        W20608  15.621  12.078  12.791 -0.0089 -0.0713  0.1327
 5140W        W20609  16.688  12.682   1.965  0.0872 -0.0006 -0.2256
 5141W        W20610   6.483  10.269  13.603 -0.1658 -0.1913  0.0567
 5142W        W20611  12.856   3.896  15.443 -0.0544  0.0610 -0.2775
 5143W        W20612   5.211  12.581   4.442  0.4473 -0.0349 -0.2641
 5144W        W20613  11.845   5.649   0.384 -0.0212 -0.0241 -0.0678
 5145W        W20614   7.844  16.252  15.002  0.0740  0.0935 -0.1482
 5146W        W20615   0.158  10.707   1.005 -0.2721 -0.3317  0.0027
 5147W        W20616  13.263   8.422   1.508  0.1328  0.0355 -0.0048
 5148W        W20617   0.350   0.078   3.089  0.1733 -0.3164  0.2587
 5149W        W20618  16.627  15.625  11.753  0.0059  0.2299  0.5435
 5150W        W20619   6.811   2.665   5.679 -0.2070  0.0960 -0.1999
 5151W        W20620  13.019  14.479   4.113 -0.2782  0.3261 -0.0346
 5152W        W20621  14.941   5.618  10.630  0.1497 -0.0424  0.1753
 5153W        W20622  16.782  17.780  13.302 -0.0618  0.2485 -0.0762
 5154W        W20623   3.007   0.823   0.430 -0.0271 -0.1187 -0.2365
 5155W        W20624   1.875   0.061   3.544 -0.2719  0.1128 -0.4693
 5156W        W20625   7.588   7.607   6.364 -0.3366  0.0400 -0.2826
 5157W        W20626   9.734  13.634   3.389  0.2259 -0.0911 -0.3200
 5158W        W20627   5.698  17.690   3.698  0.2418  0.1015  0.1111
 5159W        W20628   6.435   8.982   3.337 -0.2727 -0.0712  0.1032
 5160W        W20629   7.221  17.836   4.893  0.0266  0.0324  0.2473
 5161W        W20630   5.509  18.219   3.663  0.2862 -0.1572  0.2532
 5162W        W20631   9.612   5.289   3.354 -0.1543 -0.2329  0.2068
 5163W        W20632  17.492   1.128   2.730  0.2930 -0.0265 -0.1940
 5164W        W20633   1.242  11.246   1.554 -0.1310 -0.2874  0.2090
 5165W        W20634  10.948  11.855  14.949 -0.1030 -0.1557  0.0880
 5166W        W20635   3.610  14.695  15.670 -0.0463  0.0345  0.3024
 5167W        W20636   0.711   5.329   1.934  0.5390 -0.1407 -0.1232
 5168W        W20637   7.288  17.132  14.447  0.0089 -0.5626 -0.2560
 5169W        W20638   9.927  16.208   5.366  0.3016 -0.0293 -0.2314
 5170W        W20639  15.213   8.852  11.371 -0.0083  0.2727 -0.0561
 5171W        W20640  15.651  10.295  11.018  0.0958 -0.0593  0.0427
 5172W        W20641   2.286   7.750   4.539 -0.0651 -0.5124  0.0382
 5173W        W20642  16.062   0.807   2.814 -0.3382  0.0526  0.3137
 5174W        W20643   1.751  11.036   4.533  0.0096 -0.0172 -0.0911
 5175W        W20644  12.418   7.711   4.031  0.1505  0.1299 -0.0264
 5176W        W20645   9.840  13.086  13.554 -0.1792  0.0158 -0.1387
 5177W        W20646  17.206   6.544  13.144 -0.1114  0.0102  0.2654
 5178W        W20647   6.852  15.775  13.269  0.1217  0.0916 -0.2586
 5179W        W20648  15.560   0.376  13.073  0.0878  0.1565  0.1259
 5180W        W20649  11.732   8.185   5.202  0.2695 -0.2389  0.1805
 5181W        W20650  14.947   8.845   2.552  0.0180 -0.0392  0.0421
 5182W        W20651   5.956   0.105  15.655 -0.2048  0.2696  0.1213
 5183W        W20652   4.627   9.144  16.070  0.3498 -0.0531 -0.0014
 5184W        W20653   4.378  10.791  15.895 -0.1807  0.0334  0.0032
 5185W        W20654  12.488   8.931   2.826  0.0705  0.0596  0.3653
 5186W        W20655   3.500  10.398   2.777 -0.0102 -0.1294  0.1077
 5187W        W20656   7.348   4.519  13.743 -0.1613  0.2272  0.2209
 5188W        W20657  13.879   8.219  16.128  0.0140 -0.0005  0.1868
 5189W        W20658   1.403  14.069   0.485  0.1543  0.2272 -0.1931
 5190W        W20659   7.519  16.264  10.776 -0.2643  0.0301 -0.3786
 5191W        W20660   7.566  10.507  13.114 -0.1412  0.2474  0.0277
 5192W        W20661   1.599  14.046   0.030  0.1280 -0.4343 -0.0009
 5193W        W20662  11.974   2.031   9.876  0.1643  0.0614  0.2152
 5194W        W20663   7.355   4.621  10.856  0.0181  0.0430  0.1269
 5195W        W20664   4.473  11.588  13.389 -0.0339  0.1152  0.0570
 5196W        W20665   1.153   5.840  14.547 -0.4552 -0.1851  0.0839
 5197W        W20666  17.816   6.440  14.052 -0.1223  0.0508  0.4149
 5198W        W20667  10.173   9.315  15.170 -0.0535  0.1769  0.1997
 5199W        W20668  11.334   1.947  15.538  0.2645  0.1421 -0.0188
 5200W        W20669  15.245  10.314  15.370  0.0999 -0.2744  0.0295
 5201W        W20670   9.078  10.851  13.251 -0.2290 -0.1481 -0.0893
 5202W        W20671   7.437   0.112  13.441 -0.1524 -0.1559 -0.0127
 5203W        W20672   4.384  10.826   4.582  0.1906  0.0939 -0.1603
 5204W        W20673   7.342   6.123   1.380  0.2701  0.1198  0.0702
 5205W        W20674   4.876  11.049  16.018 -0.1015 -0.3361  0.1247
 5206W        W20675   6.020   6.611  16.071  0.1324  0.0050  0.1826
 5207W        W20676  12.263  11.079  14.733 -0.1355  0.0229  0.0377
 5208W        W20677  10.685  14.958  15.350 -0.1067  0.1741  0.0679
 5209W        W20678  12.131  10.028  10.019  0.2284  0.2777  0.0116
 5210W        W20679  10.591  17.919  11.025 -0.2034 -0.0129  0.2539
 5211W        W20680  11.207  12.705  11.483  0.1454 -0.1774  0.1244
 5212W        W20681  16.322   3.805   3.541  0.0471 -0.2646  0.3292
 5213W        W20682   6.145   3.457  13.032  0.0652  0.1753  0.1297
 5214W        W20683   4.467  13.933   0.325 -0.1463  0.2559  0.1146
 5215W        W20684   4.442   9.357  10.106 -0.0592  0.0777 -0.1942
 5216W        W20685   7.036   4.005  14.399  0.2548  0.2434  0.0025
 5217W        W20686   8.192  11.700  12.325  0.0173  0.0602 -0.2344
 5218W        W20687   4.717   8.872   5.165  0.1236  0.0460 -0.1153
 5219W        W20688   0.341   8.151   5.270 -0.1521  0.4180  0.0148
 5220W        W20689  15.267   2.927  11.399 -0.1332  0.1173  0.2416
 5221W        W20690   3.575  14.173   5.359 -0.1575 -0.0953 -0.2821
 5222W        W20691   9.333   5.634  14.885  0.0364 -0.2837 -0.2080
 5223W        W20692   6.628  16.490  14.640 -0.1759 -0.5377 -0.1996
 5224W        W20693   0.109  15.188   2.329 -0.0064 -0.0189 -0.1683
 5225W        W20694  14.737  17.681   2.316 -0.2174 -0.1517 -0.2892
 5226W        W20695   4.299   1.753   3.124  0.1622  0.1318  0.1668
 5227W        W20696  12.691  17.639   2.112  0.3224 -0.0528 -0.1274
 5228W        W20697  13.607   4.244   3.788 -0.1776  0.0636  0.2099
 5229W        W20698   3.765  14.560   0.388 -0.2367 -0.1162 -0.2261
 5230W        W20699   6.957  14.161   3.473  0.1134  0.3881  0.0035
 5231W        W20700   0.148  17.007  11.017 -0.0562  0.1224 -0.0586
 5232W        W20701   4.709   5.048   3.321 -0.2578  0.0106 -0.2046
 5233W        W20702  18.126   0.323  15.013  0.3621 -0.0515 -0.1073
 5234W        W20703   0.986  11.482  12.778  0.2988 -0.2549 -0.3356
 5235W        W20704  15.457  12.571   1.397 -0.3161 -0.1199 -0.1878
 5236W        W20705  17.581   6.682   3.182 -0.1826 -0.2700 -0.0088
 5237W        W20706  13.914   8.542  11.324 -0.1459 -0.1212 -0.0046
 5238W        W20707  14.038  15.540   1.636 -0.0719 -0.0700 -0.0549
 5239W        W20708  16.569   7.058   4.342 -0.2540 -0.1039  0.1707
 5240W        W20709   0.259   1.350   4.946  0.1321 -0.2165 -0.2309
 5241W        W20710   7.511   8.952   5.528  0.0365 -0.0183  0.1471
 5242W        W20711  17.165  15.098  12.406 -0.6521  0.2956 -0.0891
 5243W        W20712   1.742  14.955   5.443 -0.2779 -0.2668  0.2670
 5244W        W20713  14.166   4.368  14.664  0.3120 -0.2308 -0.1624
 5245W        W20714  18.072  11.362   2.337  0.1669 -0.3954  0.1639
 5246W        W20715   2.042  17.876   2.424  0.0173 -0.0219  0.3445
 5247W        W20716   7.221   0.472  13.122 -0.1805 -0.0565 -0.2157
 5248W        W20717  11.461  17.972   0.132 -0.0724 -0.1194  0.0120
 5249W        W20718   6.546  13.647  16.146  0.0298  0.3684  0.3607
 5250W        W20719   6.449   7.471  12.683 -0.1123 -0.0850  0.1032
 5251W        W20720  17.460  16.535  12.363  0.1238  0.1173 -0.1870
 5252W        W20721   7.569   2.083   3.315  0.0910 -0.0692  0.3006
 5253W        W20722   0.805   7.354   4.294  0.0095 -0.0845  0.1071
 5254W        W20723   7.238   9.343   2.157 -0.4515  0.3462  0.2810
 5255W        W20724   6.121   3.582   2.335  0.1813  0.1438 -0.2136
 5256W        W20725  10.911  10.436   1.854 -0.0163  0.1283 -0.0453
 5257W        W20726   3.730   2.674  14.377 -0.0691  0.0660  0.1789
 5258W        W20727  10.959   0.382   6.192  0.2761 -0.0092 -0.0138
 5259W        W20728   8.410   4.142   1.350  0.3282  0.0201 -0.1481
 5260W        W20729  12.288  10.240  13.291  0.1756 -0.0393  0.4519
 5261W        W20730  10.932   8.579   4.394  0.0153  0.0091 -0.1205
 5262W        W20731   5.391   6.920  14.007 -0.0787 -0.2516  0.2401
 5263W        W20732   7.135   0.594   1.154 -0.0733 -0.2074 -0.3628
 5264W        W20733  11.371   8.834  15.028 -0.2947 -0.0855 -0.0426
 5265W        W20734   7.982   3.125   4.405  0.1592 -0.1479  0.0717
 5266W        W20735  14.965  17.766  12.828  0.0348  0.0764  0.3564
 5267W        W20736  17.979  17.717   4.846  0.3588  0.1957  0.4161
 5268W        W20737   1.835  16.471   3.582 -0.0810  0.3329  0.0145
 5269W        W20738   6.062   7.455   5.483 -0.0386  0.1544  0.0433
 5270W        W20739   4.139  10.322  15.656  0.2509 -0.3129  0.0542
 5271W        W20740   1.316   0.710   4.185 -0.1171  0.1469  0.0853
 5272W        W20741   6.140  14.594  14.568 -0.1534 -0.1319  0.0444
 5273W        W20742  12.128   1.374   2.394 -0.1345  0.1147 -0.2057
 5274W        W20743   9.094  14.180  11.696 -0.0473  0.3041  0.2824
 5275W        W20744   5.184   2.762  12.563  0.0127 -0.1736  0.1495
 5276W        W20745  13.027   7.959  10.417 -0.1840  0.0853  0.1214
 5277W        W20746  10.024  15.612   5.387  0.1387 -0.1511  0.3143
 5278W        W20747  12.845  13.907   5.356  0.0094 -0.3131 -0.2907
 5279W        W20748  10.645   2.339   3.120  0.0056  0.0128 -0.2146
 5280W        W20749   6.394   6.860   1.333 -0.2582  0.1469 -0.0214
 5281W        W20750  15.573  14.987  12.297 -0.1747 -0.0454 -0.2928
 5282W        W20751  17.222  10.514  12.188  0.0271 -0.0490 -0.1268
 5283W        W20752   6.528   4.816   5.149  0.3437  0.0024  0.2210
 5284W        W20753   9.217  13.400   5.015 -0.2248 -0.0159  0.1427
 5285W        W20754   6.699   4.168  11.241 -0.2813 -0.0571 -0.3144
 5286W        W20755   8.624  16.061  13.900 -0.1589  0.1898  0.0613
 5287W        W20756   0.917  11.162  15.947 -0.1223 -0.1267  0.0484
 5288W        W20757  12.543   4.421  13.949  0.0062 -0.1031  0.0992
 5289W        W20758  14.855  15.571   2.165  0.2130 -0.3037 -0.3942
 5290W        W20759   8.052  13.999   4.795 -0.0859  0.2990 -0.0791
 5291W        W20760  16.200  13.851   3.048 -0.0888 -0.0601  0.2609
 5292W        W20761   7.124   1.810   1.346 -0.3792 -0.3139  0.1107
 5293W        W20762   8.396   4.939   1.861 -0.1899  0.1445 -0.0891
 5294W        W20763   8.838  11.557   0.236  0.1523  0.0788 -0.0492
 5295W        W20764  16.251  11.852  14.060 -0.1115  0.1677  0.2358
 5296W        W20765   9.456   3.901  13.929 -0.2924 -0.2799 -0.1236
 5297W        W20766   4.491   9.539   3.072  0.0409 -0.2249 -0.0460
 5298W        W20767   3.887  16.122  14.917 -0.3411 -0.1912 -0.2320
 5299W        W20768  14.553  11.430   3.829  0.2253 -0.3076 -0.0228
 5300W        W20769   3.609  15.069  16.063  0.0124 -0.2913 -0.1774
 5301W        W20770   0.078  10.724  13.497 -0.1715  0.2383  0.0505
 5302W        W20771   3.687  13.720   3.279  0.1854 -0.0300 -0.3178
 5303W        W20772   4.995   7.699   4.483  0.2955  0.0297  0.2406
 5304W        W20773  11.986  11.154  11.686 -0.0427 -0.0026 -0.1351
 5305W        W20774   8.333   6.494  11.284  0.0030  0.1353 -0.1111
 5306W        W20775  17.872  11.116   1.046 -0.1318 -0.2072  0.1865
 5307W        W20776  13.998   6.860   0.698 -0.0543 -0.0206  0.0743
 5308W        W20777  13.326  16.865  12.000  0.1331 -0.0618  0.0704
 5309W        W20778   1.172   1.235   0.167  0.0982 -0.1435  0.2156
 5310W        W20779   4.210   5.058   3.492  0.2054 -0.3412 -0.0508
 5311W        W20780   5.141  13.344   1.249 -0.1216 -0.0217 -0.1552
 5312W        W20781   3.376  11.917   2.930  0.1168  0.1077  0.2810
 5313W        W20782   1.928   3.788  12.417  0.0905  0.2247  0.0888
 5314W        W20783  13.727   8.808   3.295 -0.2547 -0.0814 -0.2419
 5315W        W20784  11.654   9.586  14.665  0.0559  0.1668 -0.0371
 5316W        W20785  10.591   4.437  14.057 -0.2743 -0.1330  0.2336
 5317W        W20786   9.944   8.477  13.021  0.0762  0.0724  0.1602
 5318W        W20787   2.366   0.436  14.731 -0.0682 -0.2945 -0.1375
 5319W        W20788   5.142   9.062   4.174 -0.5882  0.1269  0.3756
 5320W        W20789  14.260   9.316   1.777  0.2804  0.0104 -0.0899
 5321W        W20790   7.285  15.788  12.642  0.0214 -0.0634  0.2800
 5322W        W20791   5.090  10.034  12.837  0.0467  0.2005  0.0569
 5323W        W20792   1.668  15.937   3.653 -0.1281 -0.0064  0.0620
 5324W        W20793   2.105   1.529  14.028  0.3767 -0.1277  0.0531
 5325W        W20794   8.374   6.529   4.921  0.1034 -0.3912  0.1106
 5326W        W20795  11.323  17.349  13.069 -0.1029 -0.0668 -0.1344
 5327W        W20796   4.038  17.980  11.563  0.0911  0.0397 -0.0372
 5328W        W20797   5.716  10.862   4.576 -0.1722  0.2967 -0.1603
 5329W        W20798   7.807  13.436   4.871  0.0369  0.0699  0.1146
 5330W        W20799   0.141   2.897   0.714  0.1089 -0.3465  0.1328
 5331W        W20800  18.266  12.259   3.785  0.0245 -0.0920  0.0309
 5332W        W20801   2.486   9.503   2.626 -0.1883  0.2356 -0.0367
 5333W        W20802  10.590  18.158   5.513  0.2317  0.0815 -0.1962
 5334W        W20803  18.232   7.201   3.866  0.1470 -0.1349  0.1259
 5335W        W20804  13.354   5.260   4.570  0.0611 -0.3129 -0.1109
 5336W        W20805   0.532   3.572   2.332  0.2501  0.2464  0.3750
 5337W        W20806  10.184   0.922   1.917  0.0978 -0.1146  0.1968
 5338W        W20807   8.884  15.387  13.313  0.1897 -0.1517  0.0996
 5339W        W20808  16.302  11.379   0.589  0.0668 -0.0198  0.1315
 5340W        W20809  12.829   6.124  11.814 -0.1513 -0.2246  0.1756
 5341W        W20810  16.131   1.964  15.531 -0.0322 -0.0834 -0.5091
 5342W        W20811  10.257   0.025   2.414 -0.1495 -0.0981  0.1306
 5343W        W20812   2.336   9.990   5.761  0.0582  0.3725  0.1951
 5344W        W20813   0.361   7.106   2.575  0.0555 -0.2313  0.3267
 5345W        W20814   6.124   3.101  11.225  0.0058  0.1095 -0.0366
 5346W        W20815  10.514   9.045  13.532  0.0116  0.1427  0.0727
 5347W        W20816   3.856   2.144   2.017 -0.2134 -0.0495  0.0778
 5348W        W20817   1.775   6.549  10.708  0.2573  0.5417  0.1078
 5349W        W20818  11.867  14.804   4.530  0.3470 -0.4390 -0.1871
 5350W        W20819   9.067  18.015   2.057 -0.3681  0.2152 -0.3249
 5351W        W20820   1.135   8.635   6.103 -0.0821 -0.0624  0.1977
 5352W        W20821   9.127   8.862   3.235  0.0440  0.2444 -0.1437
 5353W        W20822  13.448  11.434  12.547  0.2786 -0.2215  0.0250
 5354W        W20823   7.096  10.015  11.396 -0.1851  0.2007 -0.0058
 5355W        W20824  11.182  17.018   3.363  0.2648  0.0956  0.0159
 5356W        W20825  13.796  10.577  11.423  0.3221  0.0410  0.2000
 5357W        W20826  16.491   9.617   3.774  0.0269  0.0074 -0.2571
 5358W        W20827  10.760   6.406  12.979  0.0920 -0.2982 -0.1290
 5359W        W20828   4.171   4.946   1.776  0.1658  0.1175  0.0652
 5360W        W20829   4.808   7.040  13.988  0.3513  0.0674  0.1456
 5361W        W20830   5.190  14.034  15.178 -0.1643  0.1374 -0.0474
 5362W        W20831   3.020   1.538  10.457  0.1679 -0.2143  0.3565
 5363W        W20832  16.698   1.246  13.178  0.0488  0.2057 -0.3209
 5364W        W20833  11.234   6.980   1.581 -0.0078 -0.4265 -0.0684
 5365W        W20834   6.327  12.178   2.120 -0.1098 -0.2863 -0.0550
 5366W        W20835  10.108   7.272   0.686  0.0120  0.3109 -0.1010
 5367W        W20836  11.137  16.769   1.086 -0.1644 -0.0840  0.2136
 5368W        W20837   5.165  13.113   2.857 -0.4237 -0.0674  0.1746
 5369W        W20838  12.651   4.320   5.469 -0.0767 -0.1575  0.0905
 5370W        W20839   5.453  13.184  12.656 -0.1337  0.1521  0.1920
 5371W        W20840  16.641   1.885  15.509  0.2031 -0.3644  0.0808
 5372W        W20841   8.922  12.557   5.401 -0.0872 -0.2209 -0.0697
 5373W        W20842  12.159   9.792  13.085 -0.2313  0.3988  0.1086
 5374W        W20843   9.956   7.563   1.580  0.1145  0.0469 -0.0492
 5375W        W20844  12.503  10.674   0.125 -0.1894  0.0355 -0.2164
 5376W        W20845  13.441   0.861   5.424 -0.0442  0.0770 -0.0357
 5377W        W20846   2.414  10.390   5.456 -0.0771  0.1453  0.1517
 5378W        W20847  15.142   7.461  11.190  0.0689 -0.0020  0.0123
 5379W        W20848  18.020  13.721  12.371  0.1015  0.3305  0.0659
 5380W        W20849   6.094   7.334  13.916  0.0315  0.1216  0.0908
 5381W        W20850   7.791  14.213   1.507  0.0625 -0.0303  0.1949
 5382W        W20851  13.754  14.037  15.565 -0.1812  0.0055  0.1215
 5383W        W20852  13.773   8.194   3.094  0.0162  0.0682 -0.0919
 5384W        W20853   1.584   3.941   0.288 -0.0233  0.0008 -0.1364
 5385W        W20854  14.718   4.431  12.084 -0.2041 -0.1872 -0.1138
 5386W        W20855   8.738   9.768   3.046  0.1505  0.1317  0.0611
 5387W        W20856  15.630  10.697  13.896 -0.1821 -0.1036  0.1528
 5388W        W20857  14.487   5.081   2.713  0.1010 -0.1931  0.2581
 5389W        W20858   6.448  11.068  12.614  0.1730 -0.2644 -0.0292
 5390W        W20859  15.341   1.226   0.381 -0.1089  0.0838 -0.0885
 5391W        W20860   6.408   1.918   4.484 -0.1723  0.0760 -0.1760
 5392W        W20861   4.791  16.967  15.402 -0.0723 -0.0587 -0.0629
 5393W        W20862   9.630  17.776   0.599  0.3118 -0.1387  0.1026
 5394W        W20863  17.616  16.619   4.350  0.1566  0.0285 -0.2519
 5395W        W20864   9.348  16.605  15.551  0.2290 -0.1565 -0.0155
 5396W        W20865   4.418   6.750   5.449  0.1566 -0.0223  0.1317
 5397W        W20866   1.494  15.149  10.047 -0.1113  0.0099  0.0300
 5398W        W20867   3.764   2.567   0.708  0.0214 -0.0675 -0.0209
 5399W        W20868  15.273   6.522   1.298 -0.1343 -0.0288  0.0382
 5400W        W20869   4.962  17.866  13.420 -0.0903  0.2714 -0.1000
 5401W        W20870  11.058   1.384   2.930  0.0513  0.1662  0.1064
 5402W        W20871   1.933   2.194   0.296  0.1481 -0.0509 -0.2833
 5403W        W20872   8.335  16.448  13.566  0.5727  0.3417 -0.1069
 5404W        W20873   2.567   7.669  14.372  0.1952  0.2505 -0.1333
 5405W        W20874  13.608   9.231   5.607 -0.0763 -0.2025  0.1156
 5406W        W20875   2.989   4.227   1.612 -0.0738  0.1546  0.0960
 5407W        W20876  14.914  11.293   4.733 -0.0296 -0.0887  0.0625
 5408W        W20877  15.813   7.042   0.433 -0.1038 -0.3083 -0.1885
 5409W        W20878  13.017  16.594  10.833 -0.0701 -0.2297 -0.0920
 5410W        W20879   5.873   2.093  13.489 -0.0035  0.0811 -0.3273
 5411W        W20880  11.421  18.051   2.068 -0.0258  0.2697  0.2134
 5412W        W20881  10.962   4.084  12.782 -0.1937  0.1662 -0.4182
 5413W        W20882   1.154  10.383  14.842 -0.1363 -0.0531 -0.2206
 5414W        W20883   5.348  13.235  11.388 -0.2934 -0.0617  0.0473
 5415W        W20884  17.991   7.544   4.232 -0.2146  0.0067 -0.3828
 5416W        W20885   3.432   7.824   0.215  0.0596  0.0335 -0.1937
 5417W        W20886  17.299  13.790   4.905  0.0104 -0.0855  0.4790
 5418W        W20887  16.753   9.358   1.731 -0.0370 -0.1903  0.2064
 5419W        W20888  17.353  12.266   0.262 -0.1291 -0.1511 -0.2149
 5420W        W20889   6.558  13.186  12.257  0.2537  0.1286 -0.1044
 5421W        W20890   1.050  17.173  13.229 -0.0085  0.0859 -0.0275
 5422W        W20891   5.181  14.050   3.012  0.0905  0.2812 -0.2517
 5423W        W20892  14.942   3.070   5.316 -0.1289 -0.1987 -0.1884
 5424W        W20893  16.553   5.389   4.980  0.0331 -0.1603  0.0424
 5425W        W20894   5.814  10.183   5.293  0.0751 -0.2171 -0.1584
 5426W        W20895   7.946   5.318   4.156 -0.4475  0.3748  0.1099
 5427W        W20896  15.554  12.804   5.309  0.0819  0.2122  0.1400
 5428W        W20897   3.539   6.148   3.194  0.0994  0.0340  0.0340
 5429W        W20898   9.157   4.771   3.247 -0.3935 -0.0800 -0.0522
 5430W        W20899   2.993   4.460   0.623 -0.1994 -0.2543  0.0855
 5431W        W20900  13.757   4.981   0.231  0.1347 -0.1440  0.2024
 5432W        W20901  14.886   4.220   1.870 -0.1465 -0.0042  0.1393
 5433W        W20902   0.403   2.140  13.177 -0.0798 -0.1580  0.1083
 5434W        W20903   7.820  13.859   0.176  0.1263  0.1486  0.2731
 5435W        W20904   0.367   7.075   1.878  0.1269 -0.1393 -0.2048
 5436W        W20905  16.683  17.668  13.790  0.0403 -0.0379 -0.1813
 5437W        W20906   7.524   5.567  13.091  0.0258 -0.3745  0.2386
 5438W        W20907   3.289   8.633  13.790  0.3893  0.1517  0.0646
 5439W        W20908   6.834  14.845  11.385  0.0936  0.1920 -0.1517
 5440W        W20909   5.942  12.975   4.609  0.1054 -0.1098 -0.0106
 5441W        W20910   2.794   3.602  12.205  0.0140  0.2474  0.0628
 5442W        W20911  16.798   4.769   2.459  0.1593  0.0090 -0.0824
 5443W        W20912  12.150  12.250  14.215  0.2037  0.2566  0.1797
 5444W        W20913  12.674  14.471  15.092 -0.1955  0.0981 -0.0212
 5445W        W20914   0.661  13.471  15.538 -0.2099 -0.0676  0.2611
 5446W        W20915  14.816  13.332   0.446 -0.4387  0.0011 -0.0128
 5447W        W20916   2.829   3.735  12.716  0.0517  0.4769  0.1707
 5448W        W20917   8.784   8.502   3.335  0.0119  0.0321  0.3791
 5449W        W20918   7.240  14.931  13.664 -0.0022  0.0004 -0.1431
 5450W        W20919  14.683   6.666   3.081 -0.3667 -0.0622  0.1901
 5451W        W20920   1.751   4.788   9.942  0.3455  0.2093 -0.2375
 5452W        W20921  15.211  11.968   0.737 -0.1488  0.2105 -0.1550
 5453W        W20922   3.293   9.922   2.654  0.0521 -0.0048  0.2749
 5454W        W20923   9.088  17.418  11.671  0.0252  0.2570 -0.1586
 5455W        W20924  17.803   7.562  14.692  0.3645 -0.1217 -0.1627
 5456W        W20925  13.519  12.437  11.553  0.1928 -0.1289 -0.1301
 5457W        W20926  12.924  15.044   2.281  0.0071  0.1288  0.3523
 5458W        W20927   9.489  10.353   3.186 -0.0441 -0.2065  0.4140
 5459W        W20928  12.268  12.468   0.814 -0.0332 -0.0504  0.0124
 5460W        W20929   8.716   5.191  12.868 -0.0115 -0.1844  0.0730
 5461W        W20930   3.757  10.887   1.899  0.0069  0.1475  0.0658
 5462W        W20931  16.999   9.673   3.766  0.0041 -0.1581  0.1313
 5463W        W20932   2.280   1.754  13.125 -0.2324  0.1196  0.0652
 5464W        W20933   5.011   9.513  12.812 -0.1030 -0.2076  0.1143
 5465W        W20934   3.281  13.914  11.359  0.1140  0.0644 -0.2802
 5466W        W20935  13.404  14.483   0.119  0.0551  0.3198 -0.1324
 5467W        W20936  11.438   8.497  12.487 -0.0479 -0.1923  0.0452
 5468W        W20937   7.584   9.363   4.248 -0.0373 -0.1442  0.1161
 5469W        W20938  15.343  13.924  14.419 -0.1723 -0.0113 -0.1645
 5470W        W20939   9.148  13.823   1.375 -0.0413  0.2786  0.0748
 5471W        W20940  11.252   8.562  13.459  0.1656 -0.1911 -0.0671
 5472W        W20941  12.084   3.051  13.217  0.1488  0.2479 -0.1818
 5473W        W20942  16.586  17.506  14.825 -0.0963  0.0711 -0.0102
 5474W        W20943  12.398   0.463  12.073 -0.0871 -0.1072 -0.1412
 5475W        W20944   6.795  13.663   3.157  0.0171  0.2213  0.1009
 5476W        W20945   3.736   8.602  13.911  0.2730 -0.0302  0.0990
 5477W        W20946  14.297   6.362  10.909 -0.1442 -0.2885  0.2889
 5478W        W20947  13.690   9.917  14.921 -0.0102  0.1558 -0.1129
 5479W        W20948   7.442  10.435  11.295 -0.1063  0.1718  0.0740
 5480W        W20949   6.237  16.829  14.610 -0.0081 -0.4513 -0.0232
 5481W        W20950   8.524   5.125  15.424 -0.1042 -0.1079 -0.0123
 5482W        W20951  11.749  11.875  12.779  0.0260  0.0615  0.1992
 5483W        W20952  14.576  12.246   2.829 -0.2936  0.0567  0.1134
 5484W        W20953   4.034  13.851  14.286  0.0778  0.2693  0.3198
 5485W        W20954  17.592   7.987  11.417  0.4052  0.1078 -0.0338
 5486W        W20955  18.026   1.003  13.066 -0.0004 -0.4043  0.0265
 5487W        W20956  16.602   0.670  12.440  0.5329 -0.0837  0.1832
 5488W        W20957   6.761   5.159  15.931 -0.0130 -0.1001 -0.0315
 5489W        W20958   7.090  11.572  14.244  0.0775  0.0789  0.1498
 5490W        W20959   0.509   0.965   1.479  0.0222  0.0277  0.1270
 5491W        W20960   9.542   7.220  11.935  0.0158 -0.1006  0.1632
 5492W        W20961   4.709   3.358   2.126 -0.0102  0.1528  0.1883
 5493W        W20962   4.572   0.197  16.125  0.1735 -0.0441  0.1344
 5494W        W20963  17.400  12.663  11.881  0.1840  0.0262  0.0498
 5495W        W20964   8.870   8.170   6.131  0.0850  0.2302 -0.1552
 5496W        W20965  17.772   9.608   0.934 -0.0926 -0.0566  0.0123
 5497W        W20966   4.812  12.315  15.096 -0.0128 -0.1110 -0.0975
 5498W        W20967  15.008  14.074  15.734  0.2784  0.1768 -0.2512
 5499W        W20968   7.456  15.533   2.740  0.0025  0.0331  0.1970
 5500W        W20969   5.530   5.517  10.730 -0.0212  0.0011 -0.1017
 5501W        W20970  17.904  17.336  11.659  0.2193 -0.0553  0.1558
 5502W        W20971  15.658  13.585  11.182  0.0366 -0.1924 -0.0746
 5503W        W20972   0.115   3.486  12.014  0.0207  0.2589  0.2286
 5504W        W20973  13.944   7.863   4.421 -0.0323  0.0468 -0.0881
 5505W        W20974   1.058   7.634   0.257 -0.0637  0.0255  0.1101
 5506W        W20975   8.454  12.806  12.350 -0.4154  0.1291 -0.4094
 5507W        W20976  13.633  10.326   2.924 -0.2177 -0.0133  0.0154
 5508W        W20977   3.348   5.653  14.009 -0.1071 -0.0243 -0.2280
 5509W        W20978  15.416   8.162  15.252  0.1669  0.2146 -0.1937
 5510W        W20979   0.663   6.896   2.206 -0.1639  0.1772 -0.2774
 5511W        W20980  17.974   0.369   1.028 -0.0641  0.2189 -0.0191
 5512W        W20981  14.494  15.709   5.584  0.1649  0.1699 -0.0228
 5513W        W20982  13.194   1.867   1.399 -0.0644 -0.1170 -0.0127
 5514W        W20983   6.199  15.358  14.606  0.0210 -0.2529  0.0174
 5515W        W20984   4.563  12.963   4.980  0.1274 -0.1072 -0.1473
 5516W        W20985   3.680  11.620   4.099  0.0181 -0.2893  0.0487
 5517W        W20986  12.135  17.732  12.863 -0.0881  0.3712 -0.0625
 5518W        W20987   2.475   4.241  13.178  0.2759  0.0389 -0.1002
 5519W        W20988   6.956  17.314  10.493 -0.1715  0.0630  0.0154
 5520W        W20989   3.483   3.995  11.705  0.0992 -0.1046 -0.1483
 5521W        W20990   8.654  18.008   3.860 -0.0469  0.1431 -0.4789
 5522W        W20991   7.575   4.517   2.030  0.1034  0.0162  0.0576
 5523W        W20992  18.198  16.514   4.126  0.2142 -0.1983  0.0307
 5524W        W20993   9.914   1.975   2.148 -0.1046  0.0101 -0.2321
 5525W        W20994   7.451   2.961  12.891 -0.1191 -0.2382  0.1195
 5526W        W20995  15.367  14.312   0.439 -0.3261  0.3753 -0.0593
 5527W        W20996   2.575  15.189   4.233 -0.0137  0.0026 -0.0856
 5528W        W20997   1.303  16.611   1.966  0.0890  0.2127  0.1452
 5529W        W20998  10.047   8.398   3.013  0.0363  0.4406 -0.0130
 5530W        W20999  11.788  16.094   5.223  0.0731 -0.1612 -0.0671
 5531W        W21000   4.777   0.674   3.698  0.1290 -0.1770  0.1052
 5532W        W21001   4.804   9.813  11.385  0.1043  0.0567  0.0427
 5533W        W21002   5.269  13.453  10.932  0.3677  0.0173  0.0902
 5534W        W21003  17.072   4.439  10.758 -0.2808  0.3100 -0.0960
 5535W        W21004   8.218  10.186   2.655  0.1320  0.2346  0.0244
 5536W        W21005  15.271   1.645  13.581  0.1661 -0.0836 -0.0693
 5537W        W21006   1.957  14.165  12.642 -0.0359  0.1136  0.0216
 5538W        W21007   8.080   8.773  11.286 -0.0855 -0.0704  0.0549
 5539W        W21008  10.545   2.175  14.285  0.1586  0.0240 -0.1230
 5540W        W21009   5.805  15.271   4.304 -0.0022 -0.1109 -0.1357
 5541W        W21010  15.557  14.124  14.821  0.0468 -0.0267  0.0030
 5542W        W21011   5.541   1.168  11.156 -0.2300 -0.0417 -0.0787
 5543W        W21012   1.758   1.912   4.660  0.1895 -0.1574  0.0302
 5544W        W21013  16.752  15.230   5.067 -0.0242  0.0580  0.0896
 5545W        W21014   4.527  14.243  15.671 -0.0937  0.1055  0.2503
 5546W        W21015  10.653   4.768   3.259 -0.2212  0.1053  0.0944
 5547W        W21016   3.575  11.048  15.557 -0.1922  0.1528  0.0249
 5548W        W21017  13.976   0.797  12.492  0.1659  0.0453  0.0599
 5549W        W21018   1.258   4.228   5.488 -0.1752  0.1165  0.1006
 5550W        W21019   5.039   4.174  12.249  0.0177 -0.3098  0.0355
 5551W        W21020  12.178   3.753   4.022 -0.2024  0.1810  0.1341
 5552W        W21021   5.122   6.356  12.194 -0.3889  0.3202 -0.1905
 5553W        W21022  10.135  16.348  15.076  0.0883 -0.1866  0.1909
 5554W        W21023  13.127   5.286   3.457  0.0404 -0.0958 -0.2504
 5555W        W21024   7.263   2.024  12.889  0.4293 -0.1641  0.1444
 5556W        W21025   8.661  15.681  14.724  0.0226 -0.0203 -0.0537
 5557W        W21026   3.413  11.486  13.815  0.0188 -0.3133  0.0042
 5558W        W21027   4.074  14.097  10.997 -0.2986 -0.1541 -0.2679
 5559W        W21028   2.670   6.779  10.370  0.1081  0.0091  0.1795
 5560W        W21029   1.454  13.256  11.643 -0.1856  0.2160  0.0285
 5561W        W21030   2.920   6.558   4.438 -0.0931  0.2080  0.2387
 5562W        W21031   9.402   1.029  11.978  0.0490  0.3557 -0.0345
 5563W        W21032  12.981   5.667  14.426 -0.1191  0.3438  0.1973
 5564W        W21033   7.047   1.741  12.154  0.0472  0.2335  0.1580
 5565W        W21034   3.718   9.561  11.836 -0.2750 -0.3173  0.1889
 5566W        W21035   7.584   6.395   5.375  0.1495 -0.2325 -0.2684
 5567W        W21036   4.538   5.788   5.600  0.1206  0.0178  0.0364
 5568W        W21037   5.417   3.621  13.832 -0.0733  0.0787 -0.1117
 5569W        W21038  16.467   3.670   4.085  0.0435 -0.0646 -0.4089
 5570W        W21039  11.729   5.443   0.843  0.2412  0.1742  0.0567
 5571W        W21040   4.413  15.297   0.823  0.1763 -0.1151  0.1206
 5572W        W21041   8.135  17.465   4.828 -0.2917  0.0451 -0.2259
 5573W        W21042   8.514   1.906   6.326 -0.0485 -0.1540 -0.1528
 5574W        W21043  12.857   9.139   1.901 -0.0595 -0.2414  0.3343
 5575W        W21044   1.556  16.388  16.045  0.0698 -0.2327 -0.1428
 5576W        W21045  12.642  12.518  14.388 -0.0876  0.1207 -0.2952
 5577W        W21046  11.903  18.011   4.132  0.0311 -0.0580  0.0702
 5578W        W21047   1.895   6.038   5.707 -0.0519 -0.2404 -0.4665
 5579W        W21048   6.906   5.860   3.031  0.1843 -0.0342 -0.1141
 5580W        W21049  15.218  10.116   3.088 -0.0437  0.0631  0.1767
 5581W        W21050   7.089  17.215  12.667  0.0194  0.0576  0.1499
 5582W        W21051   4.062   5.666  11.988 -0.0135  0.0518  0.1400
 5583W        W21052   9.506  11.843   4.031  0.2454  0.2391  0.0051
 5584W        W21053   0.181   5.273   2.839 -0.0213  0.1685  0.0919
 5585W        W21054  16.563  16.449   6.019 -0.0754  0.0428 -0.0403
 5586W        W21055   6.843  11.231  11.247 -0.1540 -0.3705  0.1567
 5587W        W21056  14.268   0.479  12.932 -0.2039  0.0023 -0.4612
 5588W        W21057   6.227  13.018  10.786  0.0857  0.1152 -0.2104
 5589W        W21058  12.995   8.725   4.016 -0.3650  0.1583 -0.2436
 5590W        W21059  16.864   3.623   2.289  0.0021  0.2504 -0.0812
 5591W        W21060  16.176  13.496   4.057 -0.3735  0.1503  0.2280
 5592W        W21061   1.768   7.152  15.979  0.0733 -0.1864  0.4588
 5593W        W21062  16.588  13.815  14.240 -0.2152  0.0714  0.1949
 5594W        W21063  15.072  16.253   5.042 -0.2754  0.1695 -0.1751
 5595W        W21064  13.286   4.986  13.887  0.1097  0.0992  0.1367
 5596W        W21065   4.292  13.463   1.708  0.0325 -0.2072  0.1077
 5597W        W21066   6.452   0.968  14.993  0.0558 -0.0034 -0.2932
 5598W        W21067   0.517  10.530  13.297  0.0726 -0.1678 -0.1803
 5599W        W21068   9.428   7.966   1.748  0.1098  0.0365 -0.0053
 5600W        W21069   9.588  17.904   5.558  0.0484  0.3467 -0.1283
 5601W        W21070  16.531   2.815  13.530  0.0632 -0.1037 -0.1758
 5602W        W21071   4.801   1.245   1.192 -0.1202 -0.0761  0.0695
 5603W        W21072   1.905   3.175  13.113 -0.1535  0.1168  0.3341
 5604W        W21073  12.877  10.499  13.264 -0.1274  0.0386 -0.1359
 5605W        W21074   3.280   1.225  15.805 -0.0309  0.0228  0.1555
 5606W        W21075   7.606   2.445  14.407  0.2910  0.1700 -0.2519
 5607W        W21076   4.681  13.939  14.943 -0.0319  0.0690 -0.1883
 5608W        W21077   6.784  16.906  12.075  0.0981  0.1038  0.0508
 5609W        W21078   9.477  12.250   0.351 -0.0363 -0.4119  0.3081
 5610W        W21079   3.842   6.775   5.427  0.0145  0.0228  0.0711
 5611W        W21080   0.925  13.744   4.056  0.2885  0.1956  0.0328
 5612W        W21081   4.771  16.670  10.578 -0.0273 -0.0239 -0.2148
 5613W        W21082   2.341  12.771  10.552 -0.0239  0.0139 -0.0289
 5614W        W21083   3.408  13.946   4.051 -0.1004 -0.1375  0.1147
 5615W        W21084  12.918   7.253   5.738 -0.1135 -0.3116 -0.2363
 5616W        W21085   5.315  14.924  14.750  0.1762 -0.0644 -0.0672
 5617W        W21086  16.747   7.465   2.485  0.0300 -0.1264  0.1992
 5618W        W21087   6.747  11.959   0.588 -0.0673 -0.0735 -0.3804
 5619W        W21088   5.198   3.272   2.227  0.1073  0.0354  0.1724
 5620W        W21089   8.979  14.719   1.667  0.0908 -0.0008  0.0693
 5621W        W21090  14.094  13.122  11.200  0.2527 -0.0904 -0.0248
 5622W        W21091   2.859  17.819   5.307 -0.0893  0.1040  0.0985
 5623W        W21092  16.881   9.732  15.527 -0.1389 -0.0206 -0.1969
 5624W        W21093   7.250   2.635  14.726 -0.4630  0.2553  0.2026
 5625W        W21094  15.677  12.314  14.605  0.1630  0.0472  0.1931
 5626W        W21095   4.771  17.850   3.783  0.0006 -0.3375  0.1500
 5627W        W21096   0.158   3.418   0.791 -0.5266  0.1420  0.2822
 5628W        W21097   8.922   2.717   1.813  0.0280 -0.1199 -0.2352
 5629W        W21098  16.714  14.726   3.936 -0.0528 -0.0455 -0.0147
 5630W        W21099  17.716   2.863   5.960 -0.0594  0.1376 -0.2478
 5631W        W21100   5.395   1.651   2.397 -0.4878 -0.0099  0.0583
 5632W        W21101   2.511  12.965   0.581  0.1641  0.3367  0.1996
 5633W        W21102  14.279   9.977   3.650 -0.0904 -0.2782  0.2027
 5634W        W21103   4.557  15.501  12.431 -0.1373  0.1504  0.0678
 5635W        W21104  14.898   6.053   5.780 -0.1296 -0.1149 -0.2942
 5636W        W21105   5.008  10.709  10.460  0.2105 -0.0440 -0.0518
 5637W        W21106   2.972  13.907  11.872  0.0544 -0.0145 -0.0160
 5638W        W21107  16.404   7.480   4.199 -0.0825 -0.0717 -0.0248
 5639W        W21108   8.570   8.647   4.039  0.1270  0.2455 -0.0134
 5640W        W21109  11.328  17.447   4.472  0.0940 -0.1864 -0.1946
 5641W        W21110   6.478  16.951   0.035  0.1448  0.1897  0.3129
 5642W        W21111   9.961  15.118  12.313  0.0054  0.0414  0.2027
 5643W        W21112  11.827  17.403  13.711  0.1412 -0.2114 -0.1455
 5644W        W21113   7.354  17.104  13.173  0.0787 -0.1840 -0.1125
 5645W        W21114  15.578   0.853  13.947 -0.0924 -0.1389 -0.1173
 5646W        W21115   0.104  17.684   4.589  0.1875 -0.2029  0.1536
 5647W        W21116   4.850  14.332  15.296  0.0634  0.1277  0.0498
 5648W        W21117   0.966   9.167  15.143 -0.1739 -0.4348 -0.3611
 5649W        W21118  13.493   2.799  15.234  0.2051 -0.4246  0.0777
 5650W        W21119  15.906   8.509   2.533 -0.0310  0.2494 -0.2441
 5651W        W21120   1.480   8.343  14.731 -0.1396 -0.0482  0.0551
 5652W        W21121   0.972   0.741  12.712  0.0587 -0.1972 -0.0264
 5653W        W21122   0.099  13.628   2.679 -0.0064 -0.0264 -0.0784
 5654W        W21123   5.400   2.316   5.557 -0.1473 -0.3686 -0.1838
 5655W        W21124  13.926   5.506  12.214  0.1223  0.0139  0.1488
 5656W        W21125  15.122   1.950  14.522 -0.0602 -0.2850  0.1084
 5657W        W21126  13.773  14.903  15.468 -0.0827  0.1801  0.0502
 5658W        W21127   1.171  12.071  13.147 -0.1457  0.0685 -0.1157
 5659W        W21128  17.868   6.772   4.498  0.1617 -0.1299 -0.3384
 5660W        W21129   4.338  12.979  13.608  0.1540  0.1965 -0.1207
 5661W        W21130   7.970   0.836  12.596 -0.0047  0.2264 -0.0553
 5662W        W21131  11.441   9.335   5.405 -0.1091  0.4658  0.0026
 5663W        W21132  16.528  15.301  11.318 -0.0941  0.1419 -0.0571
 5664W        W21133   1.494  15.665  12.236  0.0689  0.2112 -0.1695
 5665W        W21134   0.909   0.058  15.427 -0.0092 -0.2241  0.0416
 5666W        W21135  10.982  18.276   2.994 -0.0287 -0.2408 -0.0356
 5667W        W21136  14.416   0.823   4.650 -0.0338 -0.1427 -0.0462
 5668W        W21137   8.135   4.542  13.199  0.1344 -0.0375  0.2615
 5669W        W21138   5.911   3.845   2.754  0.1549  0.2042  0.3898
 5670W        W21139   5.632  12.390   1.369 -0.0403 -0.1254 -0.1878
 5671W        W21140   8.506   6.102   5.261  0.0562  0.1187 -0.1646
 5672W        W21141  13.656   9.895  15.894 -0.0218  0.0053  0.3683
 5673W        W21142   2.653  17.013  15.429  0.1223 -0.0432  0.2295
 5674W        W21143  12.149   8.470  13.545 -0.0685 -0.2244  0.1322
 5675W        W21144  11.897   2.015  11.951  0.0567 -0.1224 -0.0862
 5676W        W21145  16.691   3.445   3.415  0.2728  0.1013  0.1688
 5677W        W21146  11.000  12.403   5.894  0.2431  0.1434 -0.1753
 5678W        W21147  17.923   7.595  13.223 -0.3441 -0.1718  0.2617
 5679W        W21148  15.602  10.990   3.287  0.0935 -0.0787 -0.0022
 5680W        W21149   0.506   9.190   4.383 -0.0904 -0.2221 -0.0090
 5681W        W21150   5.392   7.844  14.586  0.0537 -0.2088 -0.1314
 5682W        W21151   4.571   0.556  15.734 -0.2564  0.1670 -0.1492
 5683W        W21152  14.649  11.123  11.520 -0.0405 -0.0874 -0.1902
 5684W        W21153   0.054  17.056   1.896  0.0459  0.1451 -0.1378
 5685W        W21154  11.328   3.176  12.717  0.0012  0.0735  0.2049
 5686W        W21155  16.258  14.035  15.443 -0.1087 -0.0271  0.1082
 5687W        W21156   5.674  17.241   4.612  0.0116 -0.1537 -0.3632
 5688W        W21157   0.360   5.267   5.572 -0.4622 -0.3760 -0.1605
 5689W        W21158  12.274   4.934   4.916  0.0678  0.1177  0.1286
 5690W        W21159  12.336  10.349   3.724  0.0445  0.1515  0.1024
 5691W        W21160   0.341  15.231  13.986  0.2211  0.1181 -0.2425
 5692W        W21161  12.617  17.850   1.231 -0.0183  0.0057 -0.3402
 5693W        W21162   8.117   3.381   3.980 -0.0776 -0.1609 -0.3402
 5694W        W21163   7.883   8.967  12.512  0.1104 -0.0549 -0.0063
 5695W        W21164  10.838   0.625   2.198 -0.0852 -0.0780 -0.2248
 5696W        W21165   4.679  14.356   1.670  0.2206 -0.3143 -0.3465
 5697W        W21166   2.754  15.152  11.232  0.2157  0.0905  0.0260
 5698W        W21167   8.768   7.557   4.769 -0.0179 -0.0190  0.2941
 5699W        W21168  14.268  12.920   3.295  0.0576  0.2339 -0.3772
 5700W        W21169  17.021   6.167   5.713  0.1312  0.1145 -0.0396
 5701W        W21170  10.440   5.723   5.300  0.2920  0.1138  0.1073
 5702W        W21171   3.895   1.562   5.488 -0.1177 -0.3229 -0.0442
 5703W        W21172  13.673  13.085   3.946 -0.1112 -0.1262  0.2442
 5704W        W21173  16.784   4.158  12.412 -0.2600  0.3042 -0.4483
 5705W        W21174  12.932   5.444   1.455  0.3112 -0.2790  0.1093
 5706W        W21175   1.413  16.599   3.288  0.0372  0.0796 -0.2653
 5707W        W21176   2.178   3.305   2.822  0.2180 -0.1446 -0.1080
 5708W        W21177   5.681   2.793   3.384 -0.3726 -0.0588 -0.1991
 5709W        W21178   7.616   2.912  14.575  0.3371 -0.0805 -0.0749
 5710W        W21179   6.098  14.296   3.167 -0.4061  0.0853  0.2158
 5711W        W21180  17.609  17.331  15.901  0.0198  0.0199 -0.1508
 5712W        W21181   5.941  10.793   2.691  0.0815 -0.1655 -0.0063
 5713W        W21182   3.966  10.414   0.603  0.0362 -0.0487  0.1346
 5714W        W21183  17.694   3.348  11.526 -0.0006  0.0744 -0.0593
 5715W        W21184   7.428   4.441  15.660  0.0601 -0.1500  0.1563
 5716W        W21185   4.739  17.644   1.207  0.4999 -0.0084  0.2229
 5717W        W21186   7.747   8.271   1.732  0.0557 -0.0780 -0.0010
 5718W        W21187  13.944   6.464   3.665  0.0850 -0.2171  0.1641
 5719W        W21188   9.034   2.674   0.472  0.2759 -0.0634  0.0885
 5720W        W21189  18.229   1.364  11.057 -0.2665 -0.0963 -0.2242
 5721W        W21190   4.202   3.272   3.697  0.1730  0.0807 -0.1132
 5722W        W21191   9.630  11.718   0.342  0.0084  0.1407  0.2804
 5723W        W21192  11.913  11.271  13.651 -0.0266  0.1857 -0.1851
 5724W        W21193   1.678   6.883   3.019  0.1423 -0.1467 -0.0297
 5725W        W21194   8.107   7.651   4.110  0.0862  0.0196  0.3120
 5726W        W21195   3.843   9.929   5.044  0.4094 -0.1448 -0.1999
 5727W        W21196   6.186   9.879  16.046 -0.1270  0.0241 -0.1925
 5728W        W21197  11.562   9.838  13.825 -0.0230  0.1015  0.3646
 5729W        W21198   1.579  11.009   1.161  0.2388  0.1632  0.0198
 5730W        W21199  15.125  10.891   0.744  0.5011  0.3781 -0.1310
 5731W        W21200   8.355   7.168  12.945  0.1454 -0.0338 -0.2858
 5732W        W21201  13.351   2.677   3.366 -0.1675 -0.0358  0.2580
 5733W        W21202   4.564  12.171   4.751 -0.0726  0.2958  0.4229
 5734W        W21203   3.192   7.668   1.118 -0.1263 -0.2502 -0.1981
 5735W        W21204  13.736  12.706  10.907  0.0733 -0.1805  0.0397
 5736W        W21205  12.671   4.129  11.786  0.0469 -0.0142 -0.0943
 5737W        W21206   8.838   6.475   5.852 -0.0542 -0.3448  0.2208
 5738W        W21207   6.194  11.797  11.101  0.2014  0.4449 -0.1471
 5739W        W21208  16.050   6.871   3.280  0.1438  0.3806 -0.0366
 5740W        W21209  12.645  14.376   4.411 -0.0659  0.0932 -0.2241
 5741W        W21210  14.395  15.929   0.094  0.0852 -0.1382 -0.2691
 5742W        W21211   5.724  12.146   0.981 -0.0484  0.2730 -0.0512
 5743W        W21212   0.801  13.464  15.044  0.1295  0.2070 -0.2289
 5744W        W21213  13.631  15.225   4.111  0.2378 -0.1434  0.0277
 5745W        W21214   7.088  11.188  15.564  0.2236  0.1833 -0.1451
 5746W        W21215  11.602  11.909  13.282 -0.0924  0.1886  0.2146
 5747W        W21216  15.881   2.945   5.277 -0.0317 -0.0043  0.1156
 5748W        W21217  11.886   3.899  12.712 -0.0256  0.1767 -0.2337
 5749W        W21218   3.760   5.699  11.040 -0.2824 -0.2104 -0.2290
 5750W        W21219  14.682  11.922  11.950  0.1669 -0.0203  0.2624
 5751W        W21220   7.856   6.754  14.780 -0.2943  0.3874 -0.2549
 5752W        W21221  17.689  16.564  11.182 -0.0618  0.0607 -0.0456
 5753W        W21222  13.478  17.651   3.953 -0.0661 -0.1426  0.0241
 5754W        W21223   1.127   3.515   3.584 -0.2421  0.0671  0.2056
 5755W        W21224   9.094   1.976  12.266  0.2925 -0.1228  0.0895
 5756W        W21225   8.469   4.438  15.056  0.2729 -0.0418 -0.1398
 5757W        W21226   8.085   9.160  10.906  0.1246 -0.1906 -0.0738
 5758W        W21227  14.893  10.172   1.874 -0.0796 -0.1086  0.1285
 5759W        W21228   8.409   4.807   2.342 -0.1181 -0.2909  0.2841
 5760W        W21229  10.871  14.004  13.675  0.0088  0.0521  0.0806
 5761W        W21230  11.354   9.180  16.108 -0.2316  0.0089  0.4383
 5762W        W21231   9.296  15.757   2.323  0.1522  0.1399  0.1589
 5763W        W21232  14.778   2.260  12.369  0.0650 -0.6508 -0.0111
 5764W        W21233   9.669  14.651   4.245 -0.2933  0.0805  0.1508
 5765W        W21234  16.266  13.671  13.148  0.2091  0.0459 -0.1068
 5766W        W21235  13.802   3.704   3.076  0.1602 -0.0099  0.1134
 5767W        W21236  14.179  17.688  15.608 -0.0920  0.1250  0.1007
 5768W        W21237  13.558  13.965  13.960 -0.0056  0.0198  0.1617
 5769W        W21238   0.355   2.496   0.488  0.0106  0.0117  0.3762
 5770W        W21239   5.604  12.465  15.809  0.1166  0.0457  0.2185
 5771W        W21240   3.932  13.239  12.854  0.1124  0.1126  0.0928
 5772W        W21241  10.381  13.731  12.613  0.1074 -0.0661 -0.0939
 5773W        W21242   1.837  17.217  12.078  0.0165  0.1499 -0.0468
 5774W        W21243  11.711   8.332  15.860 -0.1481  0.1594 -0.1540
 5775W        W21244  12.477  15.525  12.810  0.1043  0.1922 -0.0835
 5776W        W21245   7.626   7.346   4.484  0.1350  0.2632 -0.0725
 5777W        W21246   7.198  17.148   9.983  0.0348  0.1257  0.0645
 5778W        W21247  18.211  12.999  15.809  0.2117 -0.0126  0.0225
 5779W        W21248   3.348   7.767   1.609  0.0092  0.3829 -0.1123
 5780W        W21249  18.274  13.522   0.064 -0.2344  0.0781  0.0737
 5781W        W21250   8.292  11.438  15.021  0.1680  0.0478  0.2090
 5782W        W21251   0.363   4.368  12.665 -0.1583 -0.0003  0.1739
 5783W        W21252  11.807  15.583   5.003 -0.0925 -0.1974 -0.3754
 5784W        W21253  13.331   4.169  14.052 -0.0118  0.2813 -0.2166
 5785W        W21254  11.095   7.325   5.881  0.0971 -0.3455 -0.0910
 5786W        W21255  13.391  13.770   2.744  0.3509 -0.1816 -0.2007
 5787W        W21256   5.527  12.172   4.086 -0.0685  0.3129  0.1296
 5788W        W21257  14.672   8.359  15.505 -0.0499 -0.3084 -0.2652
 5789W        W21258   1.786   3.550  11.232 -0.2412 -0.0270 -0.0380
 5790W        W21259  17.431   8.120   3.939 -0.2407 -0.4530 -0.0365
 5791W        W21260   6.792  12.473  14.211 -0.0562  0.0724  0.0218
 5792W        W21261   1.969  14.799  13.783 -0.3101  0.1908 -0.0148
 5793W        W21262   0.310   9.436  13.411 -0.2347  0.1531 -0.0285
 5794W        W21263  10.638   8.135   1.759 -0.1519 -0.1806  0.1606
 5795W        W21264   4.753  17.421  13.583  0.0408  0.3026  0.2891
 5796W        W21265   0.389   3.345  15.706 -0.2490 -0.1937 -0.0495
 5797W        W21266   5.215   5.108   2.671  0.1336 -0.1597 -0.0966
 5798W        W21267  17.872  16.532   3.292  0.0271 -0.0568  0.0964
 5799W        W21268  17.457   6.654  15.663 -0.0666  0.2111 -0.1293
 5800W        W21269   5.476   8.055   2.810  0.1785 -0.0464 -0.0563
 5801W        W21270  12.739  10.706  13.764 -0.0904 -0.0457 -0.3772
 5802W        W21271  10.394   2.482   1.847  0.0633 -0.1125  0.0165
 5803W        W21272  11.741   5.567   4.582  0.0677 -0.0682  0.0642
 5804W        W21273   7.881   4.103  13.120  0.1782  0.0528  0.3206
 5805W        W21274  11.114   9.882  13.290 -0.3146  0.0959  0.4461
 5806W        W21275  14.189   6.620   5.086 -0.2041  0.3354 -0.0290
 5807W        W21276   9.768  14.623  13.745  0.1357 -0.0457 -0.3651
 5808W        W21277   6.841  13.330   1.846 -0.1967  0.1518 -0.2527
 5809W        W21278   2.840  11.044   2.911  0.0487  0.2392 -0.1797
 5810W        W21279   3.149  12.124   0.556  0.2497 -0.2028 -0.0300
 5811W        W21280   7.001   1.612   2.840 -0.1592 -0.0220 -0.1665
 5812W        W21281   9.009   6.350   1.639 -0.0701 -0.3137 -0.3105
 5813W        W21282   6.258  10.410  13.047  0.0790  0.0640  0.0434
 5814W        W21283  13.599   3.336   0.028 -0.1532 -0.0152 -0.2626
 5815W        W21284  16.931  11.066  14.192  0.2836 -0.0174 -0.0225
 5816W        W21285   0.567   2.386  13.999  0.1395 -0.2732 -0.0960
 5817W        W21286  12.413   8.357   2.778  0.1057 -0.1811  0.1395
 5818W        W21287   8.347  14.160   2.716  0.2085  0.0817 -0.0810
 5819W        W21288   6.768  12.927  15.461 -0.2981  0.1495 -0.1613
 5820W        W21289   3.807  17.699  11.210  0.1290 -0.2031  0.1796
 5821W        W21290  16.349   2.951   5.185 -0.4373  0.2955  0.0827
 5822W        W21291   5.737   3.290   2.063 -0.0183  0.1230 -0.0230
 5823W        W21292   8.850   6.457   4.127 -0.0616 -0.0719 -0.0164
 5824W        W21293  15.156  12.527   3.193 -0.0289 -0.0488  0.1031
 5825W        W21294   3.300   6.392   6.010  0.0530  0.0994  0.2577
 5826W        W21295  13.710   3.936   4.281  0.2582  0.1393 -0.0835
 5827W        W21296   4.474   1.435  12.877  0.0685 -0.1186 -0.1142
 5828W        W21297  15.898   5.157  11.712  0.2746  0.1165  0.4122
 5829W        W21298  15.859   1.759  14.919 -0.1587  0.1217  0.2416
 5830W        W21299  18.079   7.712   2.490 -0.3065  0.0502 -0.1936
 5831W        W21300  11.895  14.697   0.262  0.0962  0.1246  0.2020
 5832W        W21301   7.074  12.113  11.498  0.2230  0.1703 -0.1171
 5833W        W21302  13.047  10.366  14.585 -0.0480 -0.0098  0.2968
 5834W        W21303   0.924  14.572   4.929 -0.1593  0.1929 -0.2676
 5835W        W21304   1.711  14.619   4.581  0.1469 -0.0834 -0.0349
 5836W        W21305   3.767   4.771   2.765 -0.3870  0.0934  0.1931
 5837W        W21306   5.232  10.774   0.098 -0.0339 -0.0780 -0.1371
 5838W        W21307   5.472  10.019  13.627 -0.0748  0.1921  0.0860
 5839W        W21308  14.640   4.938   1.131  0.2763 -0.1613 -0.0984
 5840W        W21309   3.952   8.533   4.006 -0.1905  0.0214 -0.3085
 5841W        W21310  15.156  18.006  14.260 -0.1732 -0.0381  0.1727
 5842W        W21311  15.850  11.398  14.767  0.1562  0.3115 -0.1043
 5843W        W21312   9.790   8.037   3.813 -0.0767 -0.0507 -0.2298
 5844W        W21313  14.402   1.322   4.961 -0.0049  0.1274  0.1271
 5845W        W21314   9.893   6.465   3.874 -0.0240  0.0001 -0.3276
 5846W        W21315  15.703   8.526  14.120  0.0100  0.1567 -0.0768
 5847W        W21316  13.798  14.372   3.411 -0.2512  0.3204  0.2075
 5848W        W21317   0.870  14.242  13.806 -0.3137  0.1915 -0.3291
 5849W        W21318   5.205   7.918   4.955  0.2244  0.0541  0.0413
 5850W        W21319   4.258  13.214   4.545 -0.2057 -0.1636  0.1554
 5851W        W21320   7.239   4.282  13.288  0.1847  0.3239  0.1715
 5852W        W21321   0.262   5.698  14.581 -0.0100  0.3802  0.0078
 5853W        W21322   7.055   3.245   2.238 -0.2940  0.3457  0.0052
 5854W        W21323   4.879  14.399  12.848 -0.0478  0.2812 -0.0629
 5855W        W21324   6.517   1.211   1.061  0.0565 -0.0139  0.0099
 5856W        W21325  16.875   0.476  11.126 -0.1959 -0.0039  0.3269
 5857W        W21326   2.544   4.113   1.360  0.1037  0.0102  0.0570
 5858W        W21327   0.342  14.149   1.215 -0.0128  0.2162  0.1073
 5859W        W21328  17.392  16.278   5.738  0.3230  0.2350  0.2967
 5860W        W21329   6.156  17.384  13.806 -0.0416 -0.2619 -0.0956
 5861W        W21330  15.847   8.153  12.191 -0.0027 -0.0708  0.2620
 5862W        W21331  10.653  10.317  15.994 -0.1585 -0.0814 -0.0448
 5863W        W21332  14.034  11.968  13.242 -0.1413  0.0556  0.0876
 5864W        W21333  18.123  15.387  14.023 -0.0440 -0.0185  0.2293
 5865W        W21334   4.754  10.533   2.433  0.2832  0.2859 -0.2443
 5866W        W21335   8.990   3.657  13.869  0.0153 -0.2270  0.0868
 5867W        W21336   4.890   2.082   0.336 -0.1116 -0.0837 -0.0215
 5868W        W21337   7.370  11.543   5.828 -0.1846  0.0576  0.3975
 5869W        W21338  10.532   5.808   1.062  0.0901  0.0062  0.2380
 5870W        W21339   7.999  12.675   0.625 -0.1008  0.0024 -0.0452
 5871W        W21340   6.162   5.264  14.182  0.0271  0.0831  0.0581
 5872W        W21341   0.079   4.080   0.410 -0.0659 -0.0635 -0.0989
 5873W        W21342  17.214   9.050   2.779  0.0307  0.0594 -0.0120
 5874W        W21343   5.647   4.291   2.696 -0.0991 -0.1820 -0.3397
 5875W        W21344   5.393   3.350  15.566  0.1556  0.2496 -0.2951
 5876W        W21345   6.892   3.316  11.699 -0.1981  0.0433  0.0268
 5877W        W21346   7.959  12.600   4.904 -0.0889  0.2095  0.0180
 5878W        W21347   0.665   6.659   0.288 -0.2225 -0.0104 -0.3207
 5879W        W21348   8.313   0.487   5.357 -0.0996 -0.1531  0.1125
 5880W        W21349   7.321  18.108   0.442  0.2347  0.2050  0.0264
 5881W        W21350  15.069  11.354   2.558 -0.1305 -0.1773 -0.0618
 5882W        W21351  16.651   8.935   0.829 -0.0475 -0.5833  0.0197
 5883W        W21352  14.343   7.206  14.884 -0.3333 -0.3616  0.3643
 5884W        W21353   4.376  11.979   0.529  0.0993  0.0796  0.2255
 5885W        W21354   3.375  11.396   2.318  0.1118 -0.0665 -0.1024
 5886W        W21355   1.298  15.319  14.344  0.0362  0.0031 -0.1607
 5887W        W21356  16.480   7.898  14.400 -0.3532  0.3156 -0.2249
 5888W        W21357   3.880   7.128   2.269 -0.2211  0.1005  0.1650
 5889W        W21358   5.098   8.476   4.662  0.1190 -0.0874  0.0872
 5890W        W21359  17.380  12.114   4.771 -0.1850  0.2442  0.2509
 5891W        W21360   8.645  14.561  13.690 -0.0637 -0.0134 -0.0569
 5892W        W21361  12.490   2.482   5.039 -0.0005 -0.2576 -0.1491
 5893W        W21362  14.304  15.836  12.750  0.3071 -0.0224  0.4350
 5894W        W21363  10.488  16.576  13.446 -0.1712  0.0694  0.2534
 5895W        W21364   8.877   7.931   3.497 -0.2396  0.2102  0.4765
 5896W        W21365   4.233  10.899   1.727 -0.1672 -0.0033  0.0887
 5897W        W21366  13.773  14.509  15.891  0.0413 -0.1507  0.1857
 5898W        W21367   0.502   1.122  11.624 -0.0644  0.0450  0.3852
 5899W        W21368   4.583   5.043   5.515  0.2402 -0.1861 -0.0033
 5900W        W21369  11.033   8.334   2.614 -0.0983 -0.1083  0.1287
 5901W        W21370   4.677  14.952   1.670 -0.0867  0.1326 -0.0711
 5902W        W21371  18.198   5.172  13.686 -0.0013 -0.0034  0.1052
 5903W        W21372   1.797   5.608  12.425 -0.0191  0.0237  0.0838
 5904W        W21373  16.448  13.341  13.616  0.3174 -0.1905 -0.0856
 5905W        W21374  10.196  18.242   1.466 -0.2166 -0.0160 -0.0619
 5906W        W21375  10.296  14.369   9.874 -0.1463 -0.1073  0.1047
 5907W        W21376  14.614  14.157   2.265 -0.0691 -0.0264 -0.1467
 5908W        W21377   8.494  13.538  12.864  0.3409 -0.0211 -0.1418
 5909W        W21378  14.417   8.576  13.739 -0.0880 -0.2450  0.1268
 5910W        W21379   2.684   3.496  10.900  0.0340 -0.0034 -0.4161
 5911W        W21380   7.706   0.681  14.446 -0.1356 -0.2045  0.0648
 5912W        W21381   7.438   6.580  16.152  0.2155 -0.0959 -0.0514
 5913W        W21382   0.578  15.765  12.813  0.0804  0.1550 -0.0341
 5914W        W21383   6.557   8.257   0.467  0.2725 -0.2029  0.0839
 5915W        W21384   7.189   7.401   2.485 -0.0564  0.0574  0.0181
 5916W        W21385  15.714  12.060  14.117 -0.3643 -0.1299 -0.0843
 5917W        W21386  15.945   7.821  11.156  0.0159  0.4210  0.5141
 5918W        W21387  18.246   3.224  13.083 -0.2215 -0.0803  0.0315
 5919W        W21388   9.989  17.232  15.294 -0.0520 -0.1361 -0.4640
 5920W        W21389  15.809   3.517   3.101 -0.1758 -0.0576  0.1341
 5921W        W21390   7.950   4.703   5.037 -0.0824  0.1043 -0.3676
 5922W        W21391   2.176   0.133   5.697 -0.4269  0.1692 -0.3065
 5923W        W21392   7.212   7.774  10.551  0.0725  0.1622  0.0807
 5924W        W21393  12.957  10.008   1.696  0.2336 -0.0143 -0.1306
 5925W        W21394  12.046   3.119  14.196 -0.1270 -0.0956  0.0995
 5926W        W21395  14.911  13.011  15.751 -0.0730  0.0701 -0.0226
 5927W        W21396  14.810  12.524  15.966  0.0690 -0.1708  0.1779
 5928W        W21397  17.419  10.307   2.882 -0.1102  0.1547 -0.1920
 5929W        W21398   2.739   2.793   3.454 -0.0419  0.1228  0.0652
 5930W        W21399   7.145   0.682   0.636 -0.2507 -0.2981  0.0118
 5931W        W21400  10.263  17.510   1.381  0.0064 -0.0541 -0.1379
 5932W        W21401   8.380  17.245  13.510 -0.0148 -0.2128  0.2133
 5933W        W21402   7.763  15.880  14.582  0.2911 -0.1099 -0.1767
 5934W        W21403   4.069   9.968  11.769  0.2146  0.0126 -0.0126
 5935W        W21404   4.270   5.688   5.228  0.1405 -0.3298  0.1660
 5936W        W21405  10.725  11.586  12.923  0.0422  0.2793  0.3613
 5937W        W21406  10.255   0.104  13.975  0.0130 -0.0066  0.0776
 5938W        W21407   0.662   3.260  12.068  0.2604  0.0324  0.3882
 5939W        W21408   4.705  14.809   0.431 -0.0894  0.0908 -0.1674
 5940W        W21409   0.675   0.714  11.914 -0.1620 -0.1886  0.0003
 5941W        W21410  11.665  18.006  14.431  0.1008 -0.0005  0.1873
 5942W        W21411   7.907  16.690   2.497 -0.0883  0.0322 -0.0661
 5943W        W21412   1.222  13.420   4.542  0.0196  0.0461 -0.1145
 5944W        W21413  14.897   1.947   3.307 -0.2870  0.0981  0.0720
 5945W        W21414  12.473  13.831   3.123  0.3146  0.2035  0.0241
 5946W        W21415   9.895  15.193   2.016 -0.0826 -0.1579  0.2192
 5947W        W21416   3.865   7.176  11.356  0.2291  0.1017 -0.0741
 5948W        W21417  10.142   5.918   4.516  0.2082 -0.1789  0.0099
 5949W        W21418   0.164   5.117   5.134  0.0875  0.1694  0.0404
 5950W        W21419   7.390   5.112  12.874 -0.1198 -0.0867  0.0600
 5951W        W21420   6.580  14.004   5.324 -0.2180 -0.0183 -0.2041
 5952W        W21421   1.495  17.838  11.280 -0.2049  0.3697  0.2291
 5953W        W21422   9.338  14.388   2.338  0.1910  0.1874 -0.3210
 5954W        W21423   6.178  12.136  15.200 -0.0174  0.1435  0.1972
 5955W        W21424  14.420   3.511   3.313  0.1022  0.1194 -0.1091
 5956W        W21425  17.920  12.060  13.756  0.2317 -0.3139  0.2164
 5957W        W21426   7.954  14.670   4.220  0.0661 -0.0463  0.0068
 5958W        W21427  18.025   3.184  11.176 -0.2439 -0.3981 -0.0562
 5959W        W21428   6.463  12.044   1.276 -0.0162  0.1476 -0.1795
 5960W        W21429  10.005  15.170  14.957 -0.3099  0.1848 -0.1885
 5961W        W21430  13.242   3.362  13.316  0.1429  0.1142  0.0308
 5962W        W21431  14.015  12.165   3.612  0.2753 -0.2559 -0.0439
 5963W        W21432  15.244   4.448   2.704 -0.1787  0.0031  0.2283
 5964W        W21433   3.063  17.514   1.656  0.0035 -0.0796 -0.0702
 5965W        W21434  11.909   0.857  11.068  0.2662 -0.1197 -0.0346
 5966W        W21435   6.521   0.616  14.599  0.1313 -0.1254 -0.0924
 5967W        W21436   9.970   5.492   5.230  0.2065  0.2663  0.0290
 5968W        W21437   8.801   4.817   5.776 -0.0348  0.1282 -0.1420
 5969W        W21438   7.179   0.576   4.441  0.0448  0.0270  0.0161
 5970W        W21439   8.841   6.782   2.775 -0.0309 -0.3050 -0.0277
 5971W        W21440  16.533   6.986  10.951  0.2609 -0.1869 -0.1768
 5972W        W21441  16.482   7.157  12.840  0.0509  0.1735 -0.0585
 5973W        W21442  12.728  13.026  11.889 -0.2450 -0.1150  0.3814
 5974W        W21443  12.570   7.365   2.891  0.3673 -0.2646 -0.3439
 5975W        W21444  14.937  10.290  14.355  0.1445 -0.0125  0.2531
 5976W        W21445   8.152  16.824  10.022 -0.0110 -0.1620  0.0845
 5977W        W21446   7.313   6.246  11.485  0.0829 -0.0527 -0.2171
 5978W        W21447   9.389   1.084   3.001 -0.3758 -0.4822  0.1215
 5979W        W21448  15.376   2.705  15.069  0.2320  0.1778  0.2469
 5980W        W21449  10.384  12.279  12.647 -0.1420 -0.3257 -0.3568
 5981W        W21450  12.512   4.578   3.069  0.3442 -0.1446  0.1773
 5982W        W21451  12.350  11.856   5.394  0.2387  0.0766 -0.0648
 5983W        W21452  14.296   4.710   5.381 -0.0297 -0.1720  0.3472
 5984W        W21453  12.723   1.343   0.233 -0.1614 -0.1606  0.1107
 5985W        W21454  12.442   6.940  15.311  0.1809 -0.0210 -0.0200
 5986W        W21455   7.061   5.571   0.664  0.0521  0.0436 -0.0438
 5987W        W21456   5.045   9.978   2.412 -0.2433 -0.2933  0.1595
 5988W        W21457  18.280   7.966  13.212  0.3614  0.0880  0.3197
 5989W        W21458   4.547  18.188  12.688 -0.0477 -0.1322 -0.0941
 5990W        W21459   5.384   2.582  14.561  0.2233  0.4519 -0.0815
 5991W        W21460   9.249   7.744  11.352  0.0750  0.0020 -0.2572
 5992W        W21461   2.124  13.705   2.353  0.2670 -0.0387 -0.0592
 5993W        W21462  15.298  12.677  15.876  0.1059 -0.0674  0.1087
 5994W        W21463  18.259  14.119   0.913 -0.0648 -0.0105  0.1135
 5995W        W21464   0.759  17.487  12.870 -0.0970 -0.1598  0.1193
 5996W        W21465   8.063   1.600   1.080 -0.0216  0.1114 -0.0684
 5997W        W21466  13.910  12.307  11.945 -0.1666 -0.3749  0.1004
 5998W        W21467  12.463  10.513   4.899 -0.3761 -0.1009  0.0275
 5999W        W21468  11.310   6.298   1.576 -0.1079 -0.1307 -0.0363
 6000W        W21469   7.524  11.298   5.223  0.1732  0.2525  0.3267
 6001W        W21470   6.182   1.249  12.239 -0.0980 -0.2483 -0.2332
 6002W        W21471   5.709   8.722  14.841  0.0404 -0.0143 -0.1993
 6003W        W21472   7.957  12.763   2.986 -0.0806  0.2070 -0.0800
 6004W        W21473  13.777   6.478   0.377  0.1232  0.0141  0.1072
 6005W        W21474  11.462  11.331  11.591 -0.0475  0.1406  0.3226
 6006W        W21475   2.400   6.982   2.224  0.2144 -0.0872 -0.0920
 6007W        W21476  16.019   7.097   2.870 -0.0519  0.2200 -0.0927
 6008W        W21477  12.609   0.175  13.866 -0.0450 -0.0798 -0.2230
 6009W        W21478   2.684   5.945   3.416 -0.4503 -0.3292 -0.0189
 6010W        W21479  15.890  17.984   1.332  0.0115 -0.1560 -0.1239
 6011W        W21480   7.045   4.186  15.441  0.2649 -0.0940 -0.1455
 6012W        W21481  13.895   1.210  14.876 -0.0992  0.0182 -0.0215
 6013W        W21482  12.421  13.149  13.786  0.1248  0.0648 -0.0136
 6014W        W21483  11.841   0.222   0.707 -0.0090  0.1014  0.2831
 6015W        W21484   0.720   1.019   0.089  0.2813 -0.1525 -0.0488
 6016W        W21485  13.801   1.789   5.398  0.2130  0.0213 -0.1297
 6017W        W21486   9.175   7.263   0.071 -0.0314 -0.0468  0.4004
 6018W        W21487   6.282   2.252  15.516 -0.2332 -0.0442 -0.0853
 6019W        W21488  16.616   8.498  13.711  0.0611 -0.0399 -0.0172
 6020W        W21489   8.436  10.430   3.762  0.1733  0.0413  0.0934
 6021W        W21490  10.207  14.679   2.131 -0.1964 -0.0485 -0.0094
 6022W        W21491   3.404  11.308   1.084 -0.1616  0.0126 -0.3270
 6023W        W21492   6.072  15.872  14.777  0.1746 -0.0822  0.0419
 6024W        W21493   9.113   0.394   4.490 -0.2292  0.3920  0.1804
 6025W        W21494   0.653   3.784   4.786  0.1062 -0.1207 -0.2489
 6026W        W21495   3.733  17.908   0.967 -0.0985  0.1130  0.0428
 6027W        W21496  12.197  12.197   1.709  0.0181  0.1798  0.1040
 6028W        W21497   3.244   3.299   3.136 -0.0518  0.1314  0.0746
 6029W        W21498  10.953   5.142  15.328  0.0026  0.1992 -0.1833
 6030W        W21499  16.615   2.820  12.461 -0.0212 -0.3127  0.1150
 6031W        W21500  14.232  17.630   2.634 -0.0245  0.3132  0.0038
 6032W        W21501   6.801   8.058   3.239  0.1064  0.0337  0.2504
 6033W        W21502   5.011   1.576  15.758 -0.0353 -0.0287 -0.2343
 6034W        W21503   5.703  17.170  13.878  0.1552  0.2580  0.2204
 6035W        W21504   6.316  13.113   4.233  0.3373 -0.0148  0.0994
 6036W        W21505   2.682  13.421   4.966 -0.1691  0.2631 -0.0693
 6037W        W21506  11.592  12.132   2.761 -0.0661 -0.1089  0.1060
 6038W        W21507   9.700   7.714   0.050  0.1949  0.0755  0.3228
 6039W        W21508   6.448  16.310   3.259 -0.1111 -0.3227  0.2630
 6040W        W21509  13.613   4.974  12.469  0.0324  0.1168  0.2263
 6041W        W21510  14.295  10.745   0.449  0.0216 -0.1392 -0.0097
 6042W        W21511  17.819  12.720   4.738  0.2428  0.1282 -0.1487
 6043W        W21512  15.876  14.768   2.500  0.0344  0.2744 -0.0884
 6044W        W21513   8.955  16.153   3.755  0.1708  0.1911  0.0750
 6045W        W21514  15.324   0.726  15.865 -0.3046  0.0389  0.1510
 6046W        W21515   6.653  16.294   3.691 -0.2777 -0.1469 -0.1125
 6047W        W21516  15.417  11.546   3.358 -0.1282 -0.0323 -0.1122
 6048W        W21517   2.750   3.728   5.260  0.1562  0.0790  0.0215
 6049W        W21518   4.403   2.444   2.122 -0.0467  0.1172  0.1184
 6050W        W21519   6.952  15.832   3.938  0.0570  0.0770 -0.1252
 6051W        W21520   8.848  13.778   0.616  0.1320  0.3099 -0.0319
 6052W        W21521   9.494  10.452  13.199  0.2160 -0.0998  0.3407
 6053W        W21522  15.200  15.298   3.589  0.1213 -0.0929  0.0234
 6054W        W21523   7.185   7.407   6.150  0.1516  0.2336 -0.3185
 6055W        W21524  15.646  16.272  12.530  0.2676  0.0984  0.1386
 6056W        W21525   6.005   3.633   3.507  0.1041  0.2224  0.0918
 6057W        W21526   1.988   5.713   1.697 -0.0831 -0.2002  0.0821
 6058W        W21527   6.774   9.369  15.562 -0.2032  0.0349 -0.0934
 6059W        W21528  12.639  17.450  13.819  0.0176  0.0068  0.0805
 6060W        W21529  11.160  15.463   3.305  0.1107 -0.1113 -0.0474
 6061W        W21530   3.322  11.982   4.046 -0.0714 -0.0456 -0.1664
 6062W        W21531  15.949   4.550   4.744 -0.1723 -0.0422 -0.2351
 6063W        W21532  12.937   9.360   4.872  0.0658  0.0406  0.3318
 6064W        W21533  15.584   8.173   1.792  0.2962 -0.2320  0.1355
 6065W        W21534   4.314  17.821  11.169 -0.0926  0.2169 -0.1474
 6066W        W21535  10.245  12.651  11.700 -0.0171  0.0765  0.2671
 6067W        W21536   9.663   3.490  15.652  0.2249  0.2288 -0.0057
 6068W        W21537  18.287   9.209  15.571 -0.3880 -0.0069 -0.0520
 6069W        W21538   8.117   7.247  14.877 -0.0354 -0.2110 -0.0110
 6070W        W21539   6.248   4.373   1.357  0.0725 -0.2932 -0.1900
 6071W        W21540  11.459   1.911   6.091 -0.1756 -0.0886  0.0583
 6072W        W21541   9.469   4.205  13.386  0.1781 -0.0263 -0.0979
 6073W        W21542  18.179   2.233  15.232  0.3729 -0.0751 -0.0927
 6074W        W21543   9.459  11.681  13.620 -0.0912  0.2558  0.0860
 6075W        W21544  13.346  11.626   0.733 -0.0185 -0.0908  0.1049
 6076W        W21545  14.307  10.452  10.743  0.1533 -0.1027  0.0017
 6077W        W21546  16.149   3.400   4.407 -0.0754 -0.7076 -0.1069
 6078W        W21547   2.575  16.555   4.202 -0.0732 -0.0253  0.1272
 6079W        W21548  10.659  13.281   5.846  0.1352  0.0545 -0.3034
 6080W        W21549  10.895   0.889  14.679  0.1303  0.1593 -0.1159
 6081W        W21550  17.383  15.726  11.229  0.1734  0.0635  0.1175
 6082W        W21551   2.223   1.705   0.403 -0.1857 -0.2611  0.0195
 6083W        W21552   0.799  16.074   0.913  0.2718  0.1847 -0.4496
 6084W        W21553   6.555   9.348  12.039 -0.4969 -0.1630 -0.0884
 6085W        W21554  15.816  16.241   3.205  0.0084 -0.1378 -0.1098
 6086W        W21555  15.064  13.541   5.667  0.2286 -0.0841  0.1165
 6087W        W21556   8.398   8.730   3.543  0.2804  0.2664  0.0396
 6088W        W21557   9.278   9.595  15.516  0.2632 -0.0700  0.0465
 6089W        W21558   1.298   6.662   3.380  0.0697 -0.0365 -0.0601
 6090W        W21559   7.828   6.324  14.018  0.1032 -0.2626 -0.1383
 6091W        W21560   9.410   0.646  11.505 -0.1982 -0.2429 -0.3458
 6092W        W21561   5.390   2.834  13.012  0.1390  0.1136 -0.0653
 6093W        W21562   3.723   5.652  16.022 -0.2441 -0.3543 -0.1276
 6094W        W21563   7.177  12.759   2.125 -0.4825  0.2057 -0.2472
 6095W        W21564   3.270   9.908   1.629  0.2999  0.4265 -0.2021
 6096W        W21565  17.436   2.816  13.019  0.3096  0.3657 -0.1406
 6097W        W21566   8.757   0.579   0.232 -0.2107 -0.0303  0.1231
 6098W        W21567   1.034   3.762  11.272 -0.0416 -0.1711 -0.0613
 6099W        W21568   9.112  13.596  13.768 -0.0131 -0.1705 -0.1806
 6100W        W21569   2.678  13.817  13.722  0.2730 -0.1026 -0.0014
 6101W        W21570  17.641  10.785   1.568  0.2097 -0.2279  0.0369
 6102W        W21571   6.097   4.861   0.546 -0.1793 -0.0226 -0.1158
 6103W        W21572   8.982  17.524   0.046  0.0192  0.0887  0.0116
 6104W        W21573   5.707   4.096   3.696 -0.2107 -0.2180 -0.1625
 6105W        W21574   3.814  14.324  14.301 -0.0180  0.0417  0.2186
 6106W        W21575   9.596  17.643  15.782  0.1677 -0.0651 -0.2168
 6107W        W21576   1.226  18.255  12.317  0.0041 -0.0325 -0.1069
 6108W        W21577   2.173  14.048   1.476  0.1267  0.1765  0.0146
 6109W        W21578   1.167  15.039   5.075  0.0738  0.1733  0.0356
 6110W        W21579   0.812   9.210  12.612 -0.0749  0.0673 -0.0276
 6111W        W21580   9.827   3.775   3.195  0.3735  0.0704  0.1415
 6112W        W21581   0.212  10.566   4.849 -0.2288 -0.0259  0.0039
 6113W        W21582  15.564  11.992  15.385 -0.1664  0.0767 -0.1791
 6114W        W21583  12.097   4.797   2.279 -0.0826 -0.0448 -0.1658
 6115W        W21584   0.104   7.690   3.613  0.0389  0.1047 -0.1979
 6116W        W21585  12.428  13.602  15.136 -0.3586  0.0901  0.1166
 6117W        W21586   0.397   4.709  12.232  0.1941  0.1106 -0.0882
 6118W        W21587   5.137   2.444   0.573  0.1559 -0.2678  0.2979
 6119W        W21588   8.960  13.535  11.130  0.1834 -0.0515 -0.1538
 6120W        W21589   0.867   3.368  13.253  0.2076  0.3206 -0.3100
 6121W        W21590   4.882  13.863   3.464  0.2107 -0.2206 -0.2155
 6122W        W21591   4.120   9.110  12.802  0.0428  0.0929 -0.1151
 6123W        W21592  12.231   4.601   4.054  0.0358 -0.1998 -0.0878
 6124W        W21593   6.348   6.145  12.596  0.1142 -0.0208  0.1298
 6125W        W21594  15.631   1.951  13.871  0.0287  0.1835  0.1241
 6126W        W21595   9.569  11.129  13.789 -0.1132  0.0058 -0.1633
 6127W        W21596  14.040  11.852   3.244  0.0422 -0.1809  0.1316
 6128W        W21597   6.065  14.966   2.118 -0.0377  0.0292  0.2220
 6129W        W21598   4.371  10.330  11.602 -0.0704  0.0020  0.4699
 6130W        W21599  17.631  13.818  12.115  0.1970  0.1792  0.3351
 6131W        W21600   0.169   1.278  13.069 -0.2761 -0.1133 -0.2416
 6132W        W21601   7.451   1.974   0.496 -0.0298 -0.0553  0.1848
 6133W        W21602   0.829   8.414  10.780  0.1695  0.1251  0.0419
 6134W        W21603   7.078  10.179  14.508  0.1642  0.1573  0.2328
 6135W        W21604  11.196  12.736   0.862  0.0045 -0.0719 -0.1624
 6136W        W21605   2.301   5.186  12.255  0.3345  0.0636 -0.0978
 6137W        W21606  12.563   4.545  14.816  0.1386 -0.1000 -0.0166
 6138W        W21607   6.131  16.336   3.736  0.0593  0.2073 -0.2085
 6139W        W21608  10.755   4.656   4.711 -0.0008 -0.0300 -0.2424
 6140W        W21609  15.086   6.322   0.198 -0.3175  0.1817  0.1886
 6141W        W21610   7.280  15.380   5.576  0.0918 -0.0547  0.0323
 6142W        W21611   9.424   0.667  12.388  0.0620  0.1262  0.1224
 6143W        W21612  10.157   6.591  11.337 -0.2995  0.2614 -0.5564
 6144W        W21613  13.403  12.571  15.246 -0.2612 -0.0728  0.0592
 6145W        W21614  14.659  11.106  15.040  0.0590 -0.1720  0.0334
 6146W        W21615   7.759   0.117   3.869  0.0447 -0.0784 -0.3181
 6147W        W21616  16.683   2.274   1.673  0.1426  0.1510  0.0446
 6148W        W21617  16.562   8.738  15.026 -0.0736  0.0439  0.2411
 6149W        W21618   6.595   8.489  11.468 -0.1773  0.1061 -0.0881
 6150W        W21619  14.410  17.341  15.941  0.0905  0.3331 -0.1523
 6151W        W21620  11.383  15.678  11.153  0.4262  0.1005  0.2007
 6152W        W21621   0.922   2.218   1.573 -0.2504  0.1375  0.0546
 6153W        W21622   7.312  12.055   9.599  0.1310  0.0564  0.0195
 6154W        W21623  14.105   9.291   1.214  0.1957  0.0446  0.0007
 6155W        W21624  14.966   2.091   1.854  0.0268  0.3115  0.0822
 6156W        W21625  16.403  17.870   0.604  0.1452  0.5208  0.3742
 6157W        W21626   3.252   8.320   5.931 -0.3660 -0.0848 -0.1492
 6158W        W21627  13.451   0.621   3.305 -0.2016 -0.0255 -0.0706
 6159W        W21628   7.202  14.175  13.832 -0.3507 -0.1559  0.1499
 6160W        W21629   1.421  11.455  11.323  0.2263  0.0854 -0.1492
 6161W        W21630   8.141   4.990  10.779 -0.0003  0.1481  0.3167
 6162W        W21631   5.643   9.379  11.788  0.0806 -0.1579  0.4190
 6163W        W21632   3.378  17.651  15.214  0.2487  0.1045 -0.0324
 6164W        W21633  14.276  11.358  15.375 -0.1631  0.0608  0.0608
 6165W        W21634  15.964   8.980   2.802  0.0534  0.1501  0.5721
 6166W        W21635   0.119   4.944  11.887  0.3304 -0.0039 -0.3055
 6167W        W21636   4.568  10.097   2.539  0.3046 -0.0729  0.0538
 6168W        W21637  18.007  17.032  15.763  0.0146  0.0133  0.2211
 6169W        W21638  11.519   9.812  10.986 -0.1927  0.0734 -0.0044
 6170W        W21639  13.661   7.919  12.968 -0.2042  0.1556 -0.1174
 6171W        W21640  16.111   4.482  12.883 -0.1080  0.2317  0.2992
 6172W        W21641   0.864   2.192   0.998  0.0446 -0.1832  0.2627
 6173W        W21642   8.042  12.901  10.973  0.2494  0.0137 -0.0897
 6174W        W21643  14.908   5.883   4.620 -0.1069  0.0552  0.0243
 6175W        W21644  14.280  13.744   0.038  0.2407  0.0020 -0.3429
 6176W        W21645   0.763  15.537   3.370  0.0468  0.0270 -0.2252
 6177W        W21646  12.646   3.051   5.065  0.2046 -0.1104  0.0438
 6178W        W21647  14.706   7.774   2.551  0.3479 -0.1569 -0.0471
 6179W        W21648   1.228   7.342   1.409 -0.0432 -0.0170 -0.1275
 6180W        W21649   2.072  14.747   0.578 -0.0258  0.1007 -0.1277
 6181W        W21650   8.221  12.663  13.267  0.0576  0.1373  0.2831
 6182W        W21651  11.707   6.284   0.702 -0.2029  0.2121 -0.1183
 6183W        W21652  13.282  16.017   1.071  0.1766 -0.2003  0.1613
 6184W        W21653   4.835   2.705  15.070 -0.4219  0.0735  0.2065
 6185W        W21654   0.367  14.040   6.017  0.0057 -0.1433  0.1111
 6186W        W21655   9.657  15.731   5.106 -0.1769 -0.2155  0.1491
 6187W        W21656   1.907   5.944   0.600 -0.0226  0.1054  0.1123
 6188W        W21657  16.575  10.230  13.894 -0.0279 -0.1928 -0.1813
 6189W        W21658   0.768   1.828   0.538 -0.0724  0.2289  0.1119
 6190W        W21659  14.222   5.688  11.816  0.0278  0.0246  0.2790
 6191W        W21660   0.984   9.749   5.390  0.1982  0.0785 -0.0686
 6192W        W21661  15.321  10.788   0.178 -0.2077 -0.3742 -0.0141
 6193W        W21662   2.528   5.096  13.943  0.1916  0.0385 -0.5114
 6194W        W21663   0.598   6.252   5.866  0.2875 -0.0025 -0.0927
 6195W        W21664  12.162   9.877   1.939 -0.3583 -0.1415  0.2269
 6196W        W21665   8.619   0.090   3.486  0.0640 -0.2719  0.0530
 6197W        W21666  10.473   2.474  15.620 -0.0475 -0.2946  0.0255
 6198W        W21667  17.456   1.582  12.150 -0.0542 -0.0284  0.0154
 6199W        W21668  15.298  10.109  13.480 -0.0891 -0.1481  0.3124
 6200W        W21669  10.192  12.927  12.679 -0.1453 -0.0990  0.2569
 6201W        W21670  13.626  12.538  12.967 -0.0529 -0.2902  0.0150
 6202W        W21671  11.906  11.548  11.433  0.0644  0.2877  0.0642
 6203W        W21672   5.161  15.320  11.761  0.3576 -0.2296 -0.0079
 6204W        W21673  12.410  16.603   4.400  0.0746  0.0771  0.2284
 6205W        W21674   3.416  14.015  14.103  0.0342  0.0551  0.0590
 6206W        W21675   8.578  16.704   0.751 -0.1892  0.2041  0.1452
 6207W        W21676  17.870   7.441  16.123  0.1026 -0.2740 -0.2989
 6208W        W21677  12.955  14.812   4.516 -0.0484  0.1185 -0.0261
 6209W        W21678  14.023   7.547   0.939  0.0743  0.0444  0.0961
 6210W        W21679  14.728  12.394   0.789 -0.4729 -0.0929 -0.1945
 6211W        W21680   5.017   1.006  11.154  0.0422  0.0589 -0.1298
 6212W        W21681   0.223  10.770   3.106 -0.0756  0.3633 -0.0671
 6213W        W21682  11.131   0.074   0.440  0.0741 -0.1077 -0.1933
 6214W        W21683  13.208   3.682   1.379 -0.5311 -0.0046 -0.0375
 6215W        W21684   3.083  17.217   4.115 -0.1990 -0.0027  0.1445
 6216W        W21685  16.643  15.634   4.182 -0.4889 -0.3296  0.0689
 6217W        W21686   3.501   4.182   4.368 -0.3002  0.0369  0.2225
 6218W        W21687   4.936   2.125  13.028 -0.0780  0.0989  0.2836
 6219W        W21688   9.759   4.427  15.219 -0.0883  0.0424 -0.0130
 6220W        W21689   1.753  16.285   4.085  0.0022 -0.0107 -0.0292
 6221W        W21690   5.139   6.562   3.893 -0.0290  0.2357 -0.3262
 6222W        W21691   1.216  11.524   4.805 -0.1037  0.1125 -0.4078
 6223W        W21692   3.212   8.089   2.034  0.1222  0.1510 -0.0499
 6224W        W21693   3.811   2.725   1.215  0.1702  0.1617  0.2999
 6225W        W21694  16.636  14.332   2.218 -0.3673  0.1080 -0.0510
 6226W        W21695  17.011   4.967   4.939  0.1728 -0.1099  0.0030
 6227W        W21696   9.923  10.639  10.941  0.1192 -0.0177  0.1722
 6228W        W21697   4.745   4.246   0.139 -0.2145  0.0439 -0.1622
 6229W        W21698  15.576   9.674   4.026 -0.2598  0.0253  0.1215
 6230W        W21699   9.404   2.423  11.785  0.0008 -0.1112 -0.1636
 6231W        W21700  11.797  15.150  12.609  0.2704  0.2505 -0.2062
 6232W        W21701   2.357   2.799  14.158  0.1414 -0.0066  0.2178
 6233W        W21702  11.389  16.223  12.956  0.2067  0.0789  0.1253
 6234W        W21703  11.776   4.571   6.030  0.0147  0.1057 -0.1654
 6235W        W21704   3.034   3.922  15.310 -0.2411  0.0231  0.0416
 6236W        W21705  10.975   0.766   3.196  0.1016 -0.1960  0.2535
 6237W        W21706  13.421   9.949   1.379 -0.2439  0.1639 -0.1177
 6238W        W21707  13.338   5.690   3.189  0.1217  0.0811  0.0805
 6239W        W21708  11.950  12.944   1.421 -0.2626  0.0640  0.2885
 6240W        W21709  14.876   6.985   2.183  0.0379  0.0067  0.1569
 6241W        W21710  16.780   2.975   2.276 -0.0024 -0.0916  0.2028
 6242W        W21711   1.862   6.653  13.934  0.0400  0.1567  0.3183
 6243W        W21712  15.437  11.246   3.867  0.0301  0.1909  0.1905
 6244W        W21713  10.218  12.066   5.297  0.0727 -0.1648 -0.0647
 6245W        W21714   9.603  17.419  13.620  0.1484  0.0927  0.0030
 6246W        W21715  13.936   0.671   5.505  0.0258 -0.2139 -0.4216
 6247W        W21716   6.144  18.054  11.135 -0.0490 -0.2738  0.0758
 6248W        W21717  13.910   1.119  15.713  0.0811  0.1195 -0.1849
 6249W        W21718  13.408   0.739  13.787 -0.0179 -0.0668  0.2179
 6250W        W21719   3.194  16.363   5.541 -0.3131  0.3677  0.0998
 6251W        W21720   2.867   4.282   5.078 -0.0107  0.1254  0.1757
 6252W        W21721  12.165  15.330  11.170  0.0536 -0.0423 -0.1809
 6253W        W21722   2.710  11.444   3.114 -0.1292 -0.2834 -0.0901
 6254W        W21723  12.439   0.073   2.584 -0.3962  0.3694  0.1152
 6255W        W21724  13.593  12.175   1.228  0.0070 -0.3020 -0.1060
 6256W        W21725   8.676   6.630  11.579 -0.0891  0.0008  0.1652
 6257W        W21726   8.831  15.287   3.055 -0.0656  0.0451  0.0464
 6258W        W21727   4.598   8.629   4.693  0.1185 -0.1773  0.2557
 6259W        W21728   4.568  16.821  12.123 -0.0697  0.0476  0.1934
 6260W        W21729  12.863   4.291  14.433 -0.0430  0.0570  0.1722
 6261W        W21730  14.430  15.668   2.485  0.0186  0.4085 -0.2563
 6262W        W21731   1.441  17.219   0.238 -0.1044 -0.1428 -0.0958
 6263W        W21732  11.894   7.186   0.418  0.3287 -0.3041 -0.1672
 6264W        W21733  15.528  15.606   3.831  0.0493 -0.3699  0.0060
 6265W        W21734  12.998  14.707  12.111 -0.0748  0.1320 -0.1184
 6266W        W21735   2.110  10.307   2.896  0.0012 -0.1240 -0.0826
 6267W        W21736   5.831   8.073  13.344  0.0624  0.0353  0.3842
 6268W        W21737  11.694   5.366   1.821  0.0979  0.2063 -0.2384
 6269W        W21738  15.406   1.820   1.870 -0.1262 -0.1577  0.1412
 6270W        W21739   2.329   1.914   2.746  0.3033 -0.4414  0.0906
 6271W        W21740  14.228  17.425  11.751 -0.0798  0.0835  0.0813
 6272W        W21741  16.292  12.127   4.843 -0.0395 -0.0363  0.0031
 6273W        W21742  12.233   4.234  12.872  0.0797 -0.2736 -0.0577
 6274W        W21743   8.828  10.216   1.427 -0.0362  0.1514  0.0760
 6275W        W21744   8.454   8.356  11.787  0.0362  0.5182 -0.2061
 6276W        W21745   5.927  17.902  13.302 -0.3802 -0.1967 -0.3576
 6277W        W21746  17.464  15.023  12.844  0.3072  0.0867  0.4825
 6278W        W21747  17.033  17.471  15.875 -0.1178  0.0625 -0.0852
 6279W        W21748   3.412   0.765  14.031 -0.1100 -0.0377  0.2471
 6280W        W21749  11.783  13.124   4.472 -0.0191 -0.0844  0.1241
 6281W        W21750  11.702   8.729   1.177  0.0996 -0.2136  0.0843
 6282W        W21751  14.368  14.569  12.800  0.1905  0.1106  0.0231
 6283W        W21752   4.143  10.681   0.178 -0.2600  0.0528  0.0797
 6284W        W21753  14.154   8.079   2.298  0.1660  0.1244  0.0497
 6285W        W21754   9.808  15.167   9.917 -0.1239  0.0854 -0.1075
 6286W        W21755  15.312   5.339   3.917 -0.1066 -0.2368  0.1769
 6287W        W21756  18.001   0.826  12.111  0.1071  0.2014 -0.0170
 6288W        W21757  17.211   4.565  12.484 -0.2231  0.0387  0.1702
 6289W        W21758  13.230  16.471  11.440  0.3670 -0.3436  0.1065
 6290W        W21759  15.553   7.227   2.602  0.3517  0.0567 -0.0074
 6291W        W21760  12.035   8.565   4.216  0.0008 -0.0544  0.2537
 6292W        W21761  10.956   4.249   4.891  0.0762  0.0049  0.3318
 6293W        W21762   9.511  15.788  15.781 -0.1284  0.0633  0.1233
 6294W        W21763  13.774   6.693   4.676  0.0603  0.0534  0.1372
 6295W        W21764  17.264   3.550   3.526  0.0730  0.2686  0.1466
 6296W        W21765   8.968   0.776  11.213  0.0146 -0.0133  0.1685
 6297W        W21766  10.055  17.424   0.029 -0.1888  0.0323 -0.1189
 6298W        W21767   4.055  12.188   4.445  0.2881 -0.1407 -0.0826
 6299W        W21768  14.550   1.607   1.740  0.4979  0.1652 -0.0257
 6300W        W21769  11.805  18.225  11.331  0.0569  0.1216 -0.1904
 6301W        W21770  16.053  11.776   0.230  0.1123  0.0256  0.0615
 6302W        W21771  15.345  11.650  15.906 -0.2756 -0.0103 -0.0981
 6303W        W21772   3.597  16.622  15.148 -0.1440 -0.0600  0.2977
 6304W        W21773   5.140   7.511   0.472 -0.2137 -0.3024  0.4945
 6305W        W21774   7.345  13.191  15.143 -0.0158  0.1123  0.0192
 6306W        W21775   4.636   8.900  14.979 -0.1123  0.2922 -0.1646
 6307W        W21776  10.877   1.425  13.430 -0.0628  0.0744 -0.3648
 6308W        W21777   1.115   4.205  12.340 -0.0519  0.1233 -0.0896
 6309W        W21778  13.879   6.829  11.463 -0.0040 -0.2214 -0.2655
 6310W        W21779  12.945   3.976  11.292 -0.0905  0.2780  0.0694
 6311W        W21780   6.720  14.810   4.227  0.0074  0.1993 -0.2623
 6312W        W21781  12.370   2.281  16.101  0.0093 -0.1179 -0.0097
 6313W        W21782   0.241  12.525   4.265  0.1057 -0.1567 -0.1454
 6314W        W21783  12.735   9.103  12.679  0.2708  0.0787  0.1719
 6315W        W21784  12.612   7.609   4.982  0.0026  0.3601 -0.2139
 6316W        W21785   1.397  15.662  10.221 -0.1272  0.0830  0.3530
 6317W        W21786   4.712   9.633  10.917  0.4013 -0.0898 -0.0156
 6318W        W21787  18.121   9.017   6.094 -0.2170  0.0979 -0.0297
 6319W        W21788  13.776   9.804  13.138  0.0591 -0.2308  0.1910
 6320W        W21789  12.373   9.148   9.995 -0.2451  0.0797 -0.2410
 6321W        W21790   0.657   6.557  11.850 -0.1734  0.1004 -0.3685
 6322W        W21791   2.057  17.851   4.651  0.0214  0.1830 -0.0382
 6323W        W21792  12.852   2.332   0.115  0.1772 -0.0104  0.1070
 6324W        W21793  10.976   2.765   0.430 -0.0092 -0.0348  0.2507
 6325W        W21794   2.547   3.350   5.543  0.3869  0.2368  0.0237
 6326W        W21795   1.939  14.533   4.136 -0.4490 -0.1771  0.1729
 6327W        W21796  13.247   2.969  14.829  0.3727 -0.2877 -0.1280
 6328W        W21797   2.969   4.119   2.129  0.1033 -0.2311 -0.1785
 6329W        W21798  11.788  16.937  11.640 -0.3220  0.2656 -0.0725
 6330W        W21799  12.788  11.815  11.370 -0.0816  0.2044 -0.1567
 6331W        W21800   0.490   0.587   4.523  0.0847  0.2395 -0.4882
 6332W        W21801   1.079   1.537   5.414 -0.4232 -0.2847  0.0090
 6333W        W21802  17.101   4.963  15.011  0.4540  0.2814 -0.0417
 6334W        W21803  12.174   6.869   3.552  0.2431  0.0015  0.0535
 6335W        W21804   5.389  10.553   1.906  0.0662  0.0657  0.2652
 6336W        W21805   1.596  15.564   1.327  0.0541  0.1255 -0.1476
 6337W        W21806   2.997   4.588  13.683 -0.2008 -0.2485  0.3633
 6338W        W21807   8.993   4.884   0.835 -0.0674 -0.3927  0.2729
 6339W        W21808  14.617   3.138   5.696  0.0539  0.1873 -0.3247
 6340W        W21809   1.186  16.172   2.241 -0.0566 -0.1000 -0.1202
 6341W        W21810   3.450   0.471  15.258 -0.1307 -0.1029  0.3633
 6342W        W21811   3.494   1.704   3.562  0.3454  0.1424  0.3203
 6343W        W21812  16.724  12.029   5.104 -0.1139  0.0169  0.1333
 6344W        W21813   5.064  13.250   0.715  0.1368  0.0003 -0.1123
 6345W        W21814  10.963   7.913  16.121  0.1049 -0.2207  0.2684
 6346W        W21815  16.525  10.858   0.782  0.1274  0.2654  0.0655
 6347W        W21816   7.969   3.694  15.725  0.1658  0.1479 -0.2431
 6348W        W21817  17.729  11.050  15.103  0.0517 -0.3074  0.1776
 6349W        W21818   8.759  16.648  13.251 -0.3694  0.0593 -0.2422
 6350W        W21819  16.688   8.766   5.082 -0.2549 -0.1440 -0.1135
 6351W        W21820   4.816   4.791   1.824 -0.0401 -0.0424  0.3044
 6352W        W21821  13.970   9.429  13.527 -0.1096  0.0750 -0.0695
 6353W        W21822   2.653   0.901  13.491 -0.1081  0.1462 -0.0769
 6354W        W21823  18.150   1.960  12.752  0.0257  0.0357 -0.1150
 6355W        W21824   4.425   7.156   5.774  0.0578 -0.2245 -0.4873
 6356W        W21825  16.346   4.065   0.393 -0.0122 -0.0510  0.0237
 6357W        W21826  17.893  14.289  12.530  0.2087 -0.1870  0.1088
 6358W        W21827   5.717   5.273  16.134 -0.0310 -0.0414  0.1903
 6359W        W21828  10.014   0.630  13.861 -0.3028 -0.0697 -0.0036
 6360W        W21829  11.764   1.706   2.339  0.0015  0.1413 -0.1360
 6361W        W21830   2.239   2.681   4.530  0.0318 -0.0476  0.2875
 6362W        W21831  15.732   5.977  14.710  0.0486 -0.1688 -0.0149
 6363W        W21832   3.338   6.010   0.622  0.0543  0.1978  0.2302
 6364W        W21833   8.967  12.161   5.738 -0.2917  0.2640 -0.1480
 6365W        W21834   9.182  11.993  12.316  0.0723  0.1047 -0.3674
 6366W        W21835  11.139   9.666   5.544  0.3379  0.0165 -0.1647
 6367W        W21836   0.322   1.556  13.598  0.2745  0.0317  0.0754
 6368W        W21837   3.010   7.618  12.822  0.2810 -0.4307  0.1268
 6369W        W21838  11.807   3.488  12.476  0.0081 -0.1651 -0.1702
 6370W        W21839   5.013   4.634  12.560  0.0048 -0.4422  0.1948
 6371W        W21840   9.665  10.330  12.674 -0.0533 -0.2136  0.2128
 6372W        W21841   2.100  12.227  12.439 -0.0370 -0.2703  0.1343
 6373W        W21842   4.171   6.793  11.367  0.2246  0.0080 -0.0166
 6374W        W21843   6.701   6.596   1.646 -0.2318 -0.1136  0.3129
 6375W        W21844   8.875   5.012   4.154  0.0912 -0.0254 -0.3557
 6376W        W21845  10.161   6.909   6.269  0.1827  0.0174  0.0096
 6377W        W21846  15.805   6.961   5.478 -0.2977  0.1862  0.0125
 6378W        W21847   9.745   7.881  13.841 -0.3401 -0.0080  0.2040
 6379W        W21848   9.437   5.850   1.739  0.2172 -0.3103  0.1923
 6380W        W21849  10.044  13.173  16.175  0.0391 -0.0265 -0.1540
 6381W        W21850  13.803   8.876   4.193  0.0178  0.1118 -0.3479
 6382W        W21851   8.288   2.174   2.246  0.2343 -0.4242  0.0985
 6383W        W21852   0.106   2.929  10.725 -0.1072  0.1564  0.0047
 6384W        W21853   3.585  12.617  14.676 -0.2233 -0.0948  0.1360
 6385W        W21854   2.267  14.247   5.046  0.2626 -0.3270 -0.2327
 6386W        W21855  10.851  12.079  12.675 -0.2163 -0.1930 -0.1910
 6387W        W21856  11.586  15.130  15.130 -0.2265  0.0213  0.1736
 6388W        W21857   2.119   5.431  12.815 -0.2598 -0.1061  0.3660
 6389W        W21858   0.806  10.679  12.735  0.0006 -0.0685 -0.1410
 6390W        W21859  16.293   9.282   2.554 -0.2450 -0.2102  0.0360
 6391W        W21860   3.529   7.078   2.738 -0.0833 -0.1650 -0.1188
 6392W        W21861   8.630   1.254  14.590 -0.2472  0.2020  0.0898
 6393W        W21862   5.320  16.444   4.906 -0.0640  0.0169 -0.0040
 6394W        W21863  11.246  14.822  15.259 -0.0831 -0.0596  0.0016
 6395W        W21864   8.017  10.401  15.101 -0.0457  0.1827 -0.0599
 6396W        W21865  12.081   4.364   5.531 -0.1487  0.3085  0.3347
 6397W        W21866  16.143   2.822  16.006 -0.1877 -0.1600  0.0845
 6398W        W21867   6.108   3.032   3.212 -0.0870 -0.0830 -0.3234
 6399W        W21868   4.978   6.987  11.252  0.1047  0.1540  0.2720
 6400W        W21869   8.290   4.398   0.399  0.0861 -0.3878 -0.1697
 6401W        W21870  16.278   0.033  15.066 -0.0148  0.1118  0.1134
 6402W        W21871   5.861   5.804  10.951  0.1051 -0.0885 -0.1742
 6403W        W21872  14.664   6.452  16.174  0.0698 -0.1623 -0.0070
 6404W        W21873  14.655  16.751   1.825  0.1542  0.0122 -0.2380
 6405W        W21874  17.488  14.758   2.329 -0.1503  0.1338  0.0073
 6406W        W21875   2.561  11.602   4.688  0.0786 -0.1234 -0.0084
 6407W        W21876  14.023   5.094   1.218  0.5260 -0.0873  0.1051
 6408W        W21877  10.447   0.573   4.465  0.0927 -0.1565  0.0444
 6409W        W21878  12.321  14.135  13.340  0.1039 -0.2006  0.0871
 6410W        W21879  11.734  17.773  12.094  0.2371  0.1775 -0.0096
 6411W        W21880   7.844  10.088  13.263 -0.0169  0.4128 -0.0826
 6412W        W21881   9.192   9.709  12.347  0.0236  0.0311  0.0574
 6413W        W21882   5.249  12.018   0.812 -0.0638  0.0565 -0.1240
 6414W        W21883  14.207  12.300   1.913  0.1211  0.2512  0.3303
 6415W        W21884  10.983   5.255   4.103 -0.2208  0.1217 -0.0655
 6416W        W21885   1.198   4.377  16.038 -0.1847  0.3970 -0.0891
 6417W        W21886  16.024   7.858   2.592 -0.3255  0.1190  0.1596
 6418W        W21887  14.297   1.051  13.417  0.0325 -0.0557 -0.1560
 6419W        W21888   3.525   2.040   4.804  0.1293  0.1843  0.1143
 6420W        W21889   8.366  13.155  14.208  0.2058  0.1367  0.0775
 6421W        W21890   8.060   4.816  15.065  0.5312  0.3136  0.5087
 6422W        W21891  11.472  17.268  15.968 -0.1461  0.3108  0.0858
 6423W        W21892   7.523  13.669   5.553  0.1440 -0.1714 -0.0471
 6424W        W21893  16.876   8.195  11.472 -0.4522 -0.0914 -0.1252
 6425W        W21894   3.575  11.578   3.264 -0.3246  0.1004 -0.0338
 6426W        W21895  13.179  12.867   3.680  0.2452  0.0844 -0.1340
 6427W        W21896  17.957  15.778   0.012 -0.1424 -0.2771  0.3360
 6428W        W21897  18.155  15.211   0.160  0.2066  0.3300 -0.1355
 6429W        W21898  12.723  17.125  13.422 -0.1130  0.0997 -0.1088
 6430W        W21899  15.133  13.642  14.076  0.2961 -0.1540  0.1129
 6431W        W21900   8.144   3.621  14.425 -0.0811 -0.3158 -0.1559
 6432W        W21901   0.031  15.015   0.610 -0.2233 -0.4278 -0.2193
 6433W        W21902   1.944   7.292   0.791  0.1885 -0.0686  0.0455
 6434W        W21903   6.094  11.344  14.442 -0.1123  0.0507 -0.0022
 6435W        W21904   0.667  13.917  12.107  0.0891 -0.1662  0.1386
 6436W        W21905   9.068  10.284   5.145  0.1607  0.2812  0.2314
 6437W        W21906   4.007   9.232   5.932 -0.2563  0.0041 -0.2923
 6438W        W21907   6.277   8.514  14.710  0.0683 -0.0524 -0.1481
 6439W        W21908   0.770   6.130   0.260 -0.0177  0.1861 -0.1394
 6440W        W21909  12.291   7.832  14.674  0.3288 -0.1155 -0.3699
 6441W        W21910  17.774  15.084   4.222 -0.3200 -0.1318  0.4786
 6442W        W21911   9.560   1.797  12.392 -0.0714  0.1730  0.2551
 6443W        W21912  16.011   7.981  10.680  0.1997 -0.0324  0.0090
 6444W        W21913  15.394  17.546   5.062 -0.1212 -0.1251  0.1943
 6445W        W21914  13.274   6.820   3.942  0.0956 -0.3324 -0.0706
 6446W        W21915   6.698   3.918   1.247  0.0130  0.0762  0.1518
 6447W        W21916   7.328   5.619  10.740 -0.1221  0.0652 -0.1249
 6448W        W21917  15.057   3.487   5.616 -0.0356  0.2034 -0.0634
 6449W        W21918   3.071   7.962  15.630  0.0756 -0.0401 -0.0854
 6450W        W21919  14.344  10.725   1.211  0.0137  0.1245 -0.5024
 6451W        W21920   0.979  10.866   3.793  0.1802 -0.0647 -0.1968
 6452W        W21921   4.815   3.948  13.186 -0.1192  0.1648 -0.1474
 6453W        W21922  16.737   9.412  13.726 -0.0729  0.2499 -0.2718
 6454W        W21923  16.440  13.908  13.657 -0.1131 -0.0605  0.0330
 6455W        W21924  13.063  17.568   1.214  0.4415 -0.0890 -0.1111
 6456W        W21925   3.950   4.888  11.607 -0.2597 -0.3216 -0.1781
 6457W        W21926   5.722   8.638   0.891 -0.4758 -0.2746  0.2359
 6458W        W21927  10.107  16.225   3.295  0.1032 -0.0253 -0.0050
 6459W        W21928   4.908   9.597  14.361  0.0579 -0.3375 -0.0913
 6460W        W21929   3.064   0.411   0.100 -0.4092 -0.1201 -0.0259
 6461W        W21930  16.092  12.065  15.476  0.3120  0.0218  0.1219
 6462W        W21931   0.460  15.671  13.336 -0.2116 -0.4435  0.2591
 6463W        W21932   8.259   6.111   2.403  0.2134 -0.0649 -0.2991
 6464W        W21933   1.259   1.539  14.681  0.0123 -0.0303 -0.1778
 6465W        W21934   3.066   7.640  12.306  0.3912  0.3841  0.2443
 6466W        W21935  10.480  16.437   4.663 -0.5548 -0.3160 -0.0294
 6467W        W21936   8.161   7.796   2.301 -0.1640  0.3320 -0.1090
 6468W        W21937  15.990   1.535   4.939  0.0312 -0.1930 -0.2601
 6469W        W21938   3.954  17.795  15.014 -0.0137  0.2182 -0.1636
 6470W        W21939  11.066  17.575  16.084 -0.1429 -0.2304 -0.1578
 6471W        W21940   8.876  11.467  14.365  0.0436  0.2057  0.0207
 6472W        W21941   3.482   4.418  13.577 -0.0339 -0.1263  0.3191
 6473W        W21942   3.285   3.498  15.187  0.0314  0.2848 -0.0520
 6474W        W21943  10.405  16.458  14.609 -0.0556  0.1504  0.1003
 6475W        W21944  14.869  11.624   3.430 -0.2098 -0.1538  0.2744
 6476W        W21945  11.786   4.598   5.049  0.1161 -0.0575  0.0212
 6477W        W21946   7.001   8.081   1.160 -0.0014  0.0222 -0.2186
 6478W        W21947  16.003  14.649   3.635 -0.0736 -0.0148  0.2417
 6479W        W21948  12.007  11.426  12.436  0.0099 -0.0290  0.0315
 6480W        W21949  12.488  13.853   4.189 -0.0165 -0.1614  0.3607
 6481W        W21950   3.295   6.211   2.739 -0.0572  0.2350  0.1503
 6482W        W21951   6.873   3.187  12.200  0.1901  0.2330  0.2281
 6483W        W21952   0.359  14.331  13.942 -0.1965  0.1330 -0.1246
 6484W        W21953   9.372   5.265  13.630 -0.2052 -0.1527 -0.1035
 6485W        W21954  18.046   4.563   3.067  0.1284  0.0899 -0.0529
 6486W        W21955  15.955  11.008  14.059 -0.1004  0.0635 -0.0879
 6487W        W21956   5.638  13.200   5.418 -0.0583 -0.0681 -0.2587
 6488W        W21957  13.932   2.247   2.090  0.1401 -0.0375 -0.0543
 6489W        W21958   2.865  12.216   0.103 -0.1633 -0.0487 -0.3286
 6490W        W21959   5.901   8.280   4.007 -0.1072 -0.0631  0.1991
 6491W        W21960  10.807   1.616  10.040  0.1701 -0.0842 -0.0259
 6492W        W21961  10.196  14.388   1.340 -0.2348  0.0030 -0.1124
 6493W        W21962   0.925  14.438  14.283  0.3031  0.1190 -0.0740
 6494W        W21963   2.714   8.113  15.995 -0.1281 -0.2074 -0.0400
 6495W        W21964  15.436  17.879   3.209 -0.0562 -0.2571 -0.0420
 6496W        W21965  16.072   3.763  16.124  0.0691 -0.2547  0.2138
 6497W        W21966   3.188   3.683  16.167 -0.0910  0.0347  0.0935
 6498W        W21967  16.947   3.278   0.084  0.0891  0.1955  0.1040
 6499W        W21968  11.890   4.704  16.124  0.0043  0.0557  0.0667
 6500W        W21969  16.382   3.253   3.849 -0.1877 -0.0833  0.0985
 6501W        W21970   7.061   2.535  15.445  0.1382  0.0366  0.4044
 6502W        W21971   1.793   4.153  15.410 -0.2217 -0.1059 -0.1296
 6503W        W21972  13.756  13.562  15.799  0.0689 -0.2688 -0.2021
 6504W        W21973  10.914   5.419  13.405  0.2270  0.1124  0.1848
 6505W        W21974   0.234   0.439   5.482  0.0956  0.2047  0.0662
 6506W        W21975  11.133   5.784  11.546  0.1432  0.2680  0.2514
 6507W        W21976   9.984  17.089   2.409 -0.2641  0.0994 -0.0948
 6508W        W21977   7.121   5.269   4.197 -0.0804 -0.0540  0.1656
 6509W        W21978   3.110   9.226   4.909  0.1022  0.2079  0.3367
 6510W        W21979   5.536  13.874   3.396 -0.0746 -0.1509 -0.1134
 6511W        W21980   4.484  15.418  11.858 -0.1491 -0.4171 -0.4253
 6512W        W21981  17.594   9.661  14.800  0.1782 -0.1920  0.0737
 6513W        W21982   9.356   5.992   2.689  0.1000 -0.1073  0.2743
 6514W        W21983   8.376  15.729  15.572 -0.0522 -0.2252  0.3192
 6515W        W21984   5.350  11.935  14.325 -0.1718  0.1412  0.0854
 6516W        W21985  13.573  12.151   3.121  0.2278 -0.1628 -0.0177
 6517W        W21986  13.298   3.345  15.238 -0.1295 -0.0457 -0.1650
 6518W        W21987  12.148   2.388   1.611 -0.0539  0.3059  0.0249
 6519W        W21988  12.060  17.359  11.421  0.1444  0.5482 -0.3090
 6520W        W21989   5.512   2.410   4.392  0.0060 -0.2960 -0.0652
 6521W        W21990  12.866  16.042   3.283  0.1238 -0.0200  0.0459
 6522W        W21991  15.447  12.929   2.485 -0.0890 -0.0769  0.0127
 6523W        W21992   4.092  16.490   5.292  0.0440 -0.0833  0.1285
 6524W        W21993  18.287   7.379   0.210  0.0982 -0.0061 -0.2331
 6525W        W21994  12.169  12.266  13.692 -0.1381  0.0439 -0.2491
 6526W        W21995  11.977   9.669   5.002 -0.1689  0.1135 -0.2159
 6527W        W21996   8.500  15.108   2.120  0.0252 -0.0633  0.0713
 6528W        W21997  12.581  12.901   0.974 -0.0513  0.0757  0.0089
 6529W        W21998   0.920   4.037   1.046  0.2569  0.0194 -0.0315
 6530W        W21999  12.562  12.012  14.480  0.1853 -0.0006 -0.2937
 6531W        W22000   7.467   0.652   5.462 -0.1860  0.0672  0.0052
 6532W        W22001  12.009   9.099   1.163 -0.0025  0.2734 -0.1361
 6533W        W22002  14.274   3.636   2.797 -0.0211 -0.2891  0.3237
 6534W        W22003   4.389   7.771   1.991 -0.1215 -0.2289  0.0157
 6535W        W22004  16.657   9.549   0.325 -0.0815  0.0531 -0.1925
 6536W        W22005   3.516   4.767  15.626 -0.0162  0.1075 -0.2168
 6537W        W22006   8.481   8.353  11.278 -0.1401 -0.0130 -0.0309
 6538W        W22007   4.698  10.165   0.866 -0.0394  0.3688  0.3200
 6539W        W22008   0.181  11.719   1.458 -0.0819 -0.2663 -0.0153
 6540W        W22009   0.721  10.243  14.223 -0.0146 -0.0806  0.0431
 6541W        W22010   1.206  15.240   6.095 -0.0344 -0.3111  0.0140
 6542W        W22011   1.404   7.018  12.218  0.1876  0.1120 -0.0058
 6543W        W22012   8.600  13.876   1.507 -0.3384  0.0825 -0.2076
 6544W        W22013  14.223   8.123  15.474 -0.0423 -0.1086 -0.3684
 6545W        W22014  14.655  10.567   1.533  0.0287 -0.0289 -0.0419
 6546W        W22015  17.413   0.842  14.940 -0.1869  0.4698 -0.1435
 6547W        W22016   4.824   3.239   3.305 -0.0044 -0.0542 -0.1127
 6548W        W22017   0.341  17.652  15.770  0.0273  0.1340 -0.0544
 6549W        W22018  12.875  17.755   4.298  0.0636 -0.0445  0.0162
 6550W        W22019  14.737  13.701   5.090 -0.0029 -0.0486  0.0822
 6551W        W22020  16.187   4.633   1.870  0.2107 -0.1285 -0.0037
 6552W        W22021   7.363   6.127   0.457 -0.3343 -0.0959  0.2380
 6553W        W22022   9.434   2.252  15.774 -0.2264 -0.4671  0.0040
 6554W        W22023  10.846  14.213  15.541 -0.1368  0.1166 -0.1963
 6555W        W22024  10.584  15.259   0.438 -0.0526 -0.0023  0.2942
 6556W        W22025  12.769   9.856  15.328  0.5447  0.2616 -0.0426
 6557W        W22026  11.975  17.343  12.467 -0.2573  0.0968  0.0053
 6558W        W22027   3.311   2.770  11.845  0.1139 -0.0233  0.0372
 6559W        W22028  17.637   8.042  10.804  0.4164  0.4166 -0.1654
 6560W        W22029   3.710  10.407   2.356 -0.3619  0.0465  0.2213
 6561W        W22030  18.275  17.952  16.090 -0.0497  0.0969  0.3267
 6562W        W22031   1.507   6.383   3.774  0.1804  0.0305  0.1888
 6563W        W22032   4.196  12.699   4.250 -0.1777  0.3268  0.2486
 6564W        W22033  14.764  14.243  13.532  0.0243 -0.5270 -0.0461
 6565W        W22034  10.765  11.918  14.216 -0.3733 -0.0931 -0.0511
 6566W        W22035  14.248   3.511   2.234  0.0563  0.1689 -0.0923
 6567W        W22036   6.908   6.019   0.549  0.1883 -0.1197  0.2801
 6568W        W22037  12.014  18.288  11.921  0.1845 -0.2854 -0.4784
 6569W        W22038  17.001  14.133  14.399 -0.2056  0.5791 -0.0370
 6570W        W22039  12.231   7.684  14.067  0.0959 -0.0544 -0.0798
 6571W        W22040  15.029   2.626  13.430  0.1595 -0.0984  0.0641
 6572W        W22041  14.179  17.882  14.735  0.0703 -0.0374 -0.0727
 6573W        W22042   2.721   3.857   0.892  0.0087  0.3628 -0.0340
 6574W        W22043   9.751  17.975   5.033  0.0425 -0.2261 -0.1126
 6575W        W22044   6.878  16.667   3.255  0.2651 -0.1746  0.0989
 6576W        W22045   1.365  10.627   4.548 -0.0075  0.1022 -0.1520
 6577W        W22046   0.569   6.618   0.761 -0.1234 -0.3312  0.1632
 6578W        W22047   7.886   1.444  12.480  0.0587  0.2232  0.0299
 6579W        W22048  16.690   7.866  12.972 -0.0516  0.2733 -0.0275
 6580W        W22049  13.286   3.535   1.918 -0.0167  0.0066 -0.1360
 6581W        W22050  14.505  17.143   1.280  0.3012  0.0404 -0.0193
 6582W        W22051  12.314   5.604   3.613 -0.0462  0.0311  0.2026
 6583W        W22052   4.549   9.912   2.073 -0.0745  0.2215  0.0143
 6584W        W22053   4.507  17.454   4.473  0.2518  0.0847  0.1084
 6585W        W22054   6.322   4.023   0.381 -0.2896  0.2370  0.0610
 6586W        W22055  12.113  10.356   1.158  0.0614 -0.0725 -0.2622
 6587W        W22056   3.459  17.913  14.774 -0.0653  0.0519 -0.0165
 6588W        W22057   7.037   7.511  11.024 -0.2435 -0.0880  0.0482
 6589W        W22058   7.187  14.126   3.945 -0.4296  0.2611  0.0491
 6590W        W22059  15.664   0.520   3.049  0.0946 -0.0613 -0.1034
 6591W        W22060   4.529   2.921   1.412 -0.1549  0.0484 -0.0196
 6592W        W22061   0.901   8.424   5.223  0.0949  0.1095 -0.1177
 6593W        W22062  17.640  16.147  13.063 -0.0986 -0.0257  0.0792
 6594W        W22063   5.219   2.350   3.851  0.4717 -0.0020  0.1764
 6595W        W22064   9.845   3.303   1.572  0.1714 -0.1524 -0.1418
 6596W        W22065   4.214  13.727   4.633 -0.1013 -0.2745 -0.2227
 6597W        W22066   8.738   9.348   0.970 -0.2661  0.1332 -0.1372
 6598W        W22067  10.946  10.219   2.732 -0.1217 -0.1923  0.1877
 6599W        W22068   7.564   6.588   1.318 -0.0880  0.3752 -0.1144
 6600W        W22069   4.034  11.551  13.620 -0.2528  0.3328  0.3147
 6601W        W22070  16.100   0.960  11.129  0.2893 -0.2792  0.2065
 6602W        W22071   3.171   9.373   2.514 -0.1681 -0.4687 -0.0718
 6603W        W22072  12.648   6.649  12.767 -0.0291  0.1482  0.1133
 6604W        W22073   6.595  11.791   3.548 -0.0341  0.2473 -0.1826
 6605W        W22074  16.383  14.580  11.777 -0.1187 -0.2608  0.1562
 6606W        W22075   6.271  17.666   2.402 -0.1442 -0.1853  0.1807
 6607W        W22076  16.418  10.490   4.764  0.0879 -0.4022  0.0579
 6608W        W22077   6.637   9.748   4.876  0.0834 -0.1345  0.0352
 6609W        W22078  15.257   1.455   1.053 -0.0792 -0.1924  0.1811
 6610W        W22079   5.282   4.901   0.682  0.2804  0.3020 -0.0888
 6611W        W22080   8.161   8.969   1.260 -0.0185 -0.1415  0.0668
 6612W        W22081  11.166  16.912  12.943  0.1242 -0.1377 -0.3335
 6613W        W22082  10.310   3.550  14.197  0.0928  0.1581 -0.0456
 6614W        W22083   7.499  13.154   0.408 -0.1826  0.2930 -0.1593
 6615W        W22084   4.514   9.365   3.544 -0.2420 -0.4466  0.0720
 6616W        W22085  13.403   5.260  13.423  0.0098  0.0530  0.0261
 6617W        W22086   4.588  16.647   5.326 -0.1910 -0.1903  0.0987
 6618W        W22087  14.325   8.668  10.289  0.1017  0.1020  0.1045
 6619W        W22088   5.282   7.987  13.280  0.2238 -0.2123  0.0502
 6620W        W22089   9.683   1.045  11.497  0.0821 -0.0066  0.2312
 6621W        W22090   3.415  13.821   1.982  0.0211 -0.0313 -0.4445
 6622W        W22091   2.244   8.760  13.162 -0.1119 -0.1683  0.1884
 6623W        W22092  18.200   4.254   4.597 -0.0995  0.0429 -0.0471
 6624W        W22093  18.029   7.695  11.929 -0.1004 -0.0932 -0.1137
 6625W        W22094  16.594   3.212  12.794 -0.1657 -0.1281 -0.0296
 6626W        W22095  14.311   6.544  13.653 -0.1304  0.2375 -0.0557
 6627W        W22096  14.344   5.737  14.885 -0.1059  0.1662 -0.4755
 6628W        W22097   6.960   1.256  13.351 -0.0806  0.2254  0.2811
 6629W        W22098   1.755   9.374   3.548  0.2954  0.0246 -0.1759
 6630W        W22099   0.689  13.186  11.924  0.1597 -0.0255  0.3478
 6631W        W22100  10.160   4.079  15.615  0.2288  0.0894 -0.1226
 6632W        W22101   3.693  13.098  10.138 -0.1179 -0.0429  0.1161
 6633W        W22102  11.031   7.390  12.771  0.1403 -0.2548 -0.1446
 6634W        W22103  17.725   3.359  12.938 -0.2698 -0.1284  0.1025
 6635W        W22104   1.864   9.401   3.086  0.1474 -0.0912  0.1718
 6636W        W22105  14.633   4.960   0.227  0.1003 -0.0939 -0.0174
 6637W        W22106   9.747   4.911  13.721 -0.0609 -0.0539 -0.1981
 6638W        W22107  11.579  18.189   1.099  0.1467  0.2859 -0.2670
 6639W        W22108   9.680   3.572   2.047 -0.1313 -0.0342  0.3092
 6640W        W22109   3.754  14.299   4.448  0.2117  0.0158  0.6221
 6641W        W22110   8.644  12.753   2.908  0.1262  0.0481  0.0278
 6642W        W22111   9.194   7.733   4.878  0.0403 -0.1530 -0.0203
 6643W        W22112   6.830   8.839  13.331  0.0994  0.0517 -0.1909
 6644W        W22113   5.752   0.793   0.406  0.0123 -0.1761  0.1992
 6645W        W22114   7.708  13.856   4.414  0.4033  0.0386  0.1928
 6646W        W22115  17.760  18.282  15.968 -0.0197  0.2913 -0.2406
 6647W        W22116   2.180  15.535   4.270  0.1262 -0.0198 -0.0351
 6648W        W22117   5.211   5.587  14.387  0.0656  0.3985  0.0269
 6649W        W22118   9.327   8.314  11.515  0.1508 -0.1644  0.0046
 6650W        W22119  11.438   9.816  12.843 -0.2869 -0.2476 -0.0790
 6651W        W22120   0.143  12.688   2.206 -0.1078 -0.1429 -0.0932
 6652W        W22121   2.451   4.387   2.809 -0.1140  0.1259  0.1534
 6653W        W22122   7.490  15.795   5.149  0.0626 -0.1310  0.0563
 6654W        W22123  17.826   2.834   0.309 -0.3214 -0.0343  0.0588
 6655W        W22124  13.664   9.850   0.451  0.2666 -0.0253 -0.1521
 6656W        W22125   6.804   9.914  13.574 -0.1760 -0.0820 -0.0968
 6657W        W22126  11.540  16.655   3.287  0.0588  0.0101  0.3266
 6658W        W22127  11.310  11.945  13.675  0.2485  0.1113 -0.1234
 6659W        W22128   8.174   4.299   2.890 -0.0129  0.1356 -0.0869
 6660W        W22129   1.026   5.701   2.035 -0.1806 -0.0893 -0.0785
 6661W        W22130   3.724   0.059  15.001  0.2070 -0.4028  0.1276
 6662W        W22131  13.123  17.183   4.752  0.1113 -0.4089 -0.0625
 6663W        W22132   8.584   8.329  13.683 -0.1741 -0.1299 -0.3268
 6664W        W22133   5.129   6.411   2.577 -0.0545  0.2727  0.2741
 6665W        W22134   7.332  11.111  15.994 -0.0698  0.1648  0.1897
 6666W        W22135   1.729  15.862  15.773 -0.1683 -0.0770  0.1573
 6667W        W22136  16.347  14.588  12.496  0.1297  0.2854  0.0686
 6668W        W22137   8.417  16.883  12.826 -0.0168 -0.3441 -0.1603
 6669W        W22138   0.112  15.713   4.969 -0.1647 -0.0336 -0.0295
 6670W        W22139  11.956   1.718   0.407 -0.0378 -0.1050 -0.1680
 6671W        W22140  12.216   6.799   4.565 -0.2378  0.1627 -0.1980
 6672W        W22141  13.222   2.937   2.562  0.1450  0.0426  0.0076
 6673W        W22142  11.569  14.382   2.832  0.0277 -0.0910  0.2313
 6674W        W22143   5.807   7.565  15.856 -0.0002  0.1327  0.2803
 6675W        W22144   7.069   4.050   0.914 -0.3849  0.4167 -0.1506
 6676W        W22145  17.468   0.303   3.943 -0.3951 -0.0877  0.3716
 6677W        W22146  11.012  15.996   0.408 -0.0606  0.1303  0.0819
 6678W        W22147  14.203  10.603  14.811 -0.1372 -0.2643 -0.2809
 6679W        W22148   9.886  10.237   1.789  0.0989  0.3346  0.0437
 6680W        W22149  11.829   3.687   3.045  0.1344  0.0470  0.0788
 6681W        W22150  12.284   3.404   0.554  0.0807 -0.1033  0.3417
 6682W        W22151  18.139  11.111  13.689  0.2165  0.0326  0.1113
 6683W        W22152   6.653  14.567  13.411 -0.2740 -0.0311 -0.0663
 6684W        W22153  16.152  13.578  12.663 -0.3907 -0.0748  0.0981
 6685W        W22154  12.120  12.720  11.249  0.3305  0.3032 -0.0547
 6686W        W22155  13.726   8.111  15.525 -0.1130 -0.2001  0.0588
 6687W        W22156  16.707   9.835   4.230  0.0028  0.0117  0.2524
 6688W        W22157  15.668   5.138  14.237  0.1350 -0.0941  0.0301
 6689W        W22158   1.861  12.575   1.267 -0.0148 -0.1197  0.0791
 6690W        W22159  10.980   7.315  14.760  0.4062  0.0085 -0.1364
 6691W        W22160   7.698  15.466  11.890 -0.0053  0.0976  0.3319
 6692W        W22161   8.575   0.061  11.672  0.1092 -0.0445 -0.1156
 6693W        W22162   3.555  17.088   9.763 -0.0002  0.3208 -0.1852
 6694W        W22163   8.933   5.432   4.524  0.1078 -0.0719  0.1646
 6695W        W22164   6.008   9.138  15.560  0.0892 -0.0310 -0.0481
 6696W        W22165   6.751   9.888   3.439 -0.2936  0.1368 -0.0951
 6697W        W22166   0.092   8.750   3.405  0.0358 -0.2423 -0.2837
 6698W        W22167   5.935   2.584   2.534 -0.2372  0.2355  0.1193
 6699W        W22168   7.226   4.600   4.369 -0.2478  0.1992  0.1421
 6700W        W22169  18.003   9.424  14.683 -0.2622  0.0789  0.0146
 6701W        W22170   0.478   2.392  12.130 -0.0950 -0.0494  0.0216
 6702W        W22171   6.589  14.948  12.224 -0.1712 -0.2771  0.1700
 6703W        W22172  11.317  13.742   0.463  0.2733  0.0301 -0.0355
 6704W        W22173  11.749   8.475   0.759  0.4798  0.2007  0.0349
 6705W        W22174   4.972  16.961  11.897 -0.0622  0.2929 -0.0436
 6706W        W22175   8.124   6.872   3.266  0.1430  0.1169 -0.1439
 6707W        W22176  15.149   7.248   3.762  0.1091  0.0698  0.2038
 6708W        W22177  14.373   8.533  14.690  0.0909 -0.2748 -0.2045
 6709W        W22178  13.015  12.926  14.515 -0.0040 -0.0444  0.1467
 6710W        W22179   5.977  13.721   4.179 -0.1666 -0.1434 -0.1713
 6711W        W22180   9.332   8.741  15.707 -0.0673  0.0023 -0.3289
 6712W        W22181  16.529   3.681  15.306  0.2740 -0.0457 -0.2183
 6713W        W22182   8.229   3.741   0.453 -0.2709 -0.1606  0.4082
 6714W        W22183   7.473   7.786   5.326  0.3188  0.0508  0.2055
 6715W        W22184   9.287   2.956  13.440  0.0460  0.2779  0.1934
 6716W        W22185   6.070   7.185   0.536 -0.0235 -0.0981  0.1688
 6717W        W22186   5.159   9.319  11.942 -0.2855  0.3478 -0.1877
 6718W        W22187  16.671   3.708   0.334 -0.1959  0.2494 -0.0614
 6719W        W22188  10.414   0.060   3.442  0.1943 -0.1127  0.1392
 6720W        W22189  14.579   1.062  12.002 -0.1514  0.0236  0.0070
 6721W        W22190   9.218   3.392  12.039  0.1091  0.1683  0.1737
 6722W        W22191   4.854   7.554  12.377 -0.0805  0.1980  0.1654
 6723W        W22192  10.022  11.255   2.535 -0.0524  0.0113  0.1232
 6724W        W22193  12.023   2.204  13.889  0.1342  0.0499  0.2183
 6725W        W22194  15.853  11.756  13.778  0.0175  0.0866  0.0649
 6726W        W22195   1.642   0.927   5.825 -0.0664  0.0640 -0.3539
 6727W        W22196   3.877  18.134   4.802  0.1563  0.0385 -0.1907
 6728W        W22197  11.262  12.596  12.397 -0.1245  0.1304  0.0690
 6729W        W22198   4.770   3.428  13.104  0.0056 -0.3026 -0.3191
 6730W        W22199   7.752  14.038  11.996 -0.1183  0.0678  0.1649
 6731W        W22200   1.574   0.092   0.703  0.1273 -0.0473 -0.1503
 6732W        W22201   7.330   1.070  15.153  0.0763 -0.1331  0.0506
 6733W        W22202   6.969   0.429  14.653  0.0006  0.0446 -0.1463
 6734W        W22203   4.471   8.933   3.250  0.0952 -0.2069 -0.2603
 6735W        W22204   0.703  13.744  11.242  0.1204  0.1465  0.2125
 6736W        W22205  15.195   4.507  11.917  0.0877 -0.0157 -0.1818
 6737W        W22206  13.495  17.203   3.794 -0.3198  0.0007  0.0619
 6738W        W22207   9.423   7.350   5.067  0.0834  0.1339 -0.0402
 6739W        W22208  12.162  12.712   5.338  0.1997  0.2823 -0.0836
 6740W        W22209   4.657   1.069  11.511 -0.0035 -0.3923  0.1311
 6741W        W22210  15.058   6.524  15.144 -0.2345  0.3052  0.2228
 6742W        W22211  14.141  16.976   5.599 -0.1537 -0.2733  0.1457
 6743W        W22212   7.474  10.657   1.198 -0.2476  0.0009  0.0964
 6744W        W22213  10.180  14.935  15.350 -0.0322  0.2819 -0.1123
 6745W        W22214   0.516  15.172   2.607 -0.0196 -0.3251 -0.1981
 6746W        W22215   2.363   2.806  15.347  0.2315 -0.0471  0.1397
 6747W        W22216   6.884  10.169  11.951  0.0411  0.1387 -0.1841
 6748W        W22217  12.167  18.180  13.829  0.2467 -0.3001 -0.3159
 6749W        W22218  11.700   5.954   4.301  0.1831 -0.3544 -0.1188
 6750W        W22219  11.867   6.364  12.264  0.4503  0.0895  0.0979
 6751W        W22220   3.356   7.190   3.776  0.0863  0.0870 -0.3463
 6752W        W22221   2.740   2.690   6.314 -0.0665 -0.1455  0.3296
 6753W        W22222  16.952  15.569  11.365  0.4750  0.0586  0.0313
 6754W        W22223   3.697   0.852  11.253  0.1447  0.2652 -0.0305
 6755W        W22224   5.750  18.026  14.656 -0.3214 -0.0754 -0.1706
 6756W        W22225  17.281   6.358  13.978 -0.2078  0.0477  0.2485
 6757W        W22226  12.169  17.359  11.973  0.3064  0.2225 -0.0671
 6758W        W22227  13.251  10.896   3.567  0.1616  0.2177 -0.3682
 6759W        W22228   2.399   5.057   0.193 -0.0070  0.1655 -0.0531
 6760W        W22229   8.861  16.559   0.287 -0.3254 -0.0075  0.1349
 6761W        W22230  13.370  11.517   4.493 -0.1693 -0.2491 -0.2855
 6762W        W22231   7.854   6.800   3.776  0.1044 -0.1835  0.1751
 6763W        W22232  13.998  15.876   5.391 -0.1848 -0.2449  0.0947
 6764W        W22233   7.696  14.448  10.830  0.2769 -0.3384 -0.2602
 6765W        W22234   0.950   1.068  11.302 -0.0023  0.3117 -0.4131
 6766W        W22235   4.548  10.797  14.412 -0.2657 -0.1684 -0.1797
 6767W        W22236   4.333  14.462   0.194 -0.1270  0.0023  0.4451
 6768W        W22237   9.541  11.993  11.954  0.1494 -0.1557 -0.0667
 6769W        W22238   9.437   8.881  12.400 -0.1931  0.1828  0.3730
 6770W        W22239   8.499  14.446  13.148 -0.1408 -0.1252 -0.1536
 6771W        W22240   2.903  16.219   5.139  0.3859  0.0707 -0.0441
 6772W        W22241  17.568  14.789   0.235 -0.3369 -0.3416 -0.1480
 6773W        W22242  13.946  15.761   4.908  0.2489  0.1008 -0.0842
 6774W        W22243  11.793   4.169   2.913 -0.1031  0.0281 -0.0910
 6775W        W22244   2.282  14.976   3.165  0.0721  0.0314  0.0708
 6776W        W22245   1.861   6.693  13.388  0.2168  0.1526 -0.4372
 6777W        W22246  15.719   7.483   1.182 -0.2570 -0.1120 -0.1562
 6778W        W22247  13.236   1.160  11.085  0.2108  0.0472  0.2064
 6779W        W22248   3.772   1.079  12.140  0.1098 -0.2143  0.1239
 6780W        W22249  11.099   3.823   2.203  0.3685  0.1664 -0.1289
 6781W        W22250  16.035  14.582   4.592  0.0273  0.1774  0.1257
 6782W        W22251   6.553   9.996   4.327 -0.3386 -0.1946  0.2547
 6783W        W22252  13.984  14.626   4.688  0.1493  0.2853  0.0308
 6784W        W22253  17.062   2.538   2.398 -0.0402 -0.0189 -0.5049
 6785W        W22254   6.669   5.424   3.103  0.0117  0.1054  0.0175
 6786W        W22255   8.752  10.411  16.122  0.1339  0.1652 -0.0415
 6787W        W22256   7.276   3.047   3.716 -0.0300  0.0223 -0.2813
 6788W        W22257  17.557  11.132   5.464 -0.3298 -0.0159 -0.2098
 6789W        W22258   4.002   3.867   1.207 -0.0203 -0.3250 -0.0726
 6790W        W22259   5.974  17.236   2.318 -0.1817  0.2119  0.0491
 6791W        W22260   7.662   2.339   4.731 -0.1978  0.1630 -0.2226
 6792W        W22261  13.006  17.684  14.141  0.0614 -0.2166  0.1073
 6793W        W22262  15.902  14.556  11.612  0.0718  0.1634  0.3489
 6794W        W22263   2.710  17.080  12.088  0.2093 -0.1039 -0.0264
 6795W        W22264   2.869   7.046   0.938 -0.2489 -0.4824 -0.0957
 6796W        W22265   8.956  17.749  11.242 -0.1681  0.0903 -0.0195
 6797W        W22266   3.014  11.065   3.983 -0.1441 -0.0123 -0.1658
 6798W        W22267  10.566  10.922   3.575 -0.1278 -0.1518 -0.0292
 6799W        W22268  14.026   6.858  15.008 -0.0922  0.3066 -0.1555
 6800W        W22269  10.757  10.863   4.770  0.0763  0.0463 -0.4240
 6801W        W22270  11.497   7.901  16.134  0.0678  0.2456  0.2053
 6802W        W22271  11.757  12.563  14.235 -0.1908 -0.2476  0.4224
 6803W        W22272   4.889   2.275  12.571  0.1114  0.0215  0.1506
 6804W        W22273  11.579  18.015   5.351  0.0755 -0.1120 -0.0177
 6805W        W22274  10.043   9.914  12.263  0.1519  0.1222  0.0377
 6806W        W22275  18.291  12.881  12.242  0.0554 -0.1783 -0.0319
 6807W        W22276   3.447   8.948   2.791  0.0877 -0.2077  0.1104
 6808W        W22277   5.664   3.151   1.107  0.1000  0.1062 -0.1877
 6809W        W22278   2.060   0.793  10.700 -0.2264 -0.0458 -0.2942
 6810W        W22279   4.675  13.323  14.736  0.3505  0.1000 -0.2240
 6811W        W22280   3.681  16.287  13.384 -0.0594  0.2413  0.1279
 6812W        W22281  14.387   8.105  13.472  0.2230  0.1244 -0.1307
 6813W        W22282  15.115  12.306   4.635 -0.0401 -0.0319  0.0332
 6814W        W22283  17.457  13.452   3.779 -0.2370 -0.2906  0.0348
 6815W        W22284   4.762  14.201   2.152 -0.2284  0.0464 -0.0665
 6816W        W22285   8.489   6.571   2.467 -0.1957 -0.1515 -0.2738
 6817W        W22286   1.589   4.674  13.068  0.3483  0.0673  0.2897
 6818W        W22287  14.834  12.622  14.568 -0.0595 -0.1586  0.1053
 6819W        W22288   7.857   0.291   5.604 -0.0900  0.1439  0.1044
 6820W        W22289   6.136   1.723   5.310 -0.1702 -0.2385  0.0080
 6821W        W22290   0.377   8.423  12.459  0.0582 -0.0644  0.3895
 6822W        W22291   0.795  11.568   2.252 -0.1383  0.0026 -0.0797
 6823W        W22292   0.716   9.579  14.705 -0.0310  0.1084  0.0102
 6824W        W22293  12.465  18.302   1.555 -0.0858  0.0476  0.0393
 6825W        W22294   4.049  12.464  13.620  0.2546 -0.1411  0.4360
 6826W        W22295  12.014   3.315   3.458 -0.0661 -0.0715 -0.1187
 6827W        W22296  11.546   6.849   2.299 -0.3819 -0.2628  0.0941
 6828W        W22297   4.094  16.781  11.081  0.1058  0.2573 -0.3658
 6829W        W22298  17.419   9.288   1.398 -0.0695 -0.0443 -0.1389
 6830W        W22299   6.494   4.274  11.665  0.1504  0.1007  0.0912
 6831W        W22300   1.707   4.700   0.719  0.0056 -0.0835 -0.0649
 6832W        W22301  16.737   6.739   2.223 -0.0721 -0.0676 -0.1938
 6833W        W22302  16.174   0.933   2.364  0.0654 -0.2941  0.1062
 6834W        W22303   9.328   1.246   1.515 -0.1705  0.2273 -0.4340
 6835W        W22304   8.350   6.760  14.500  0.0517 -0.2326  0.4332
 6836W        W22305  10.615   4.122   2.642  0.1412  0.1561  0.2573
 6837W        W22306   1.196   1.156   9.837 -0.0864  0.1126  0.0545
 6838W        W22307  16.421  14.292   5.375 -0.2305 -0.1266 -0.0693
 6839W        W22308   4.125   6.202   3.475 -0.2615  0.5640  0.0981
 6840W        W22309   9.283  13.162  13.524  0.2063  0.0010 -0.1018
 6841W        W22310  13.211   0.994   4.033  0.0419 -0.2135 -0.0348
 6842W        W22311   7.674   9.362  14.179 -0.3967  0.0396  0.2814
 6843W        W22312   3.233  16.098   5.977  0.5229  0.2311  0.1003
 6844W        W22313   6.981   7.659  14.486  0.2108 -0.0877  0.0128
 6845W        W22314   2.261  13.480   0.460 -0.1368  0.0492  0.0172
 6846W        W22315  10.198  11.956   5.775 -0.2345  0.1614  0.0602
 6847W        W22316  14.767   1.812  13.725  0.2330  0.1866 -0.2731
 6848W        W22317  10.994  12.997   5.239  0.0004 -0.2145  0.0656
 6849W        W22318  13.164   8.726   5.032 -0.0221  0.2630  0.1691
 6850W        W22319  17.240  15.346   3.348  0.0402  0.0015  0.0102
 6851W        W22320   0.057   1.444  14.901  0.3301  0.3672 -0.1925
 6852W        W22321   9.064  14.688   4.780 -0.1212  0.0169  0.1734
 6853W        W22322  10.593  13.404  10.555 -0.1711  0.0374  0.0572
 6854W        W22323   1.334   0.348  13.505  0.0267 -0.1794  0.0569
 6855W        W22324  13.070   6.050   5.021 -0.1772  0.0762  0.0275
 6856W        W22325   7.227   7.362   4.170 -0.2720 -0.2636  0.1011
 6857W        W22326  11.612  13.011  15.153  0.2806 -0.1535  0.1391
 6858W        W22327  16.391  11.146   1.181 -0.0769 -0.1312 -0.3773
 6859W        W22328   3.072   1.770   3.124 -0.5154  0.2047 -0.2493
 6860W        W22329   4.727   6.645   6.379 -0.2047 -0.1127 -0.2458
 6861W        W22330   1.610   8.023  15.817 -0.0708 -0.0331  0.0472
 6862W        W22331   9.236   5.156  11.743 -0.0265  0.1239 -0.1246
 6863W        W22332  12.357   7.241  12.793 -0.1466  0.0503 -0.3683
 6864W        W22333  16.303  10.932  12.114 -0.0798  0.0025 -0.3328
 6865W        W22334   8.781   2.883  15.154  0.0010  0.3604  0.1702
 6866W        W22335  10.913   8.265   3.128  0.4352 -0.0409  0.6343
 6867W        W22336  14.404  12.422   5.858  0.1537 -0.1679 -0.0408
 6868W        W22337  14.605  12.165   4.319  0.2058  0.2348  0.3509
 6869W        W22338   1.671  18.229   4.839 -0.0248  0.5979 -0.0936
 6870W        W22339  18.214  16.666  16.049 -0.0300  0.0517  0.1379
 6871W        W22340  10.627  10.574   2.971 -0.0572 -0.1191 -0.2064
 6872W        W22341   7.402   7.897  12.226  0.2591  0.0288 -0.2351
 6873W        W22342   8.304   3.356   1.892 -0.0841  0.1619 -0.1845
 6874W        W22343  10.618   7.400  15.078  0.2366 -0.1067  0.3293
 6875W        W22344   9.504  10.067   0.649  0.0274  0.2289 -0.0506
 6876W        W22345  17.983   0.723   5.000  0.2698 -0.0173 -0.1119
 6877W        W22346   9.758   4.872   3.022 -0.0323 -0.0957  0.1409
 6878W        W22347  16.673  12.483   5.339  0.1608 -0.1390 -0.1255
 6879W        W22348  14.516  11.716   3.043 -0.1268 -0.1864 -0.1868
 6880W        W22349   6.312   7.764  10.527  0.0542  0.0565  0.0046
 6881W        W22350   0.971   3.828   5.618 -0.2868 -0.0098  0.1184
 6882W        W22351  12.945  17.761   3.811  0.2298  0.0655  0.1138
 6883W        W22352  14.495  14.242  15.611  0.0264  0.1034 -0.0697
 6884W        W22353   2.576  16.756   2.552 -0.0185  0.3109 -0.1105
 6885W        W22354  17.998   8.635   5.023  0.0826 -0.0331  0.0266
 6886W        W22355   0.613   7.875  15.807 -0.1489 -0.0925 -0.1404
 6887W        W22356  12.608  12.066  13.470  0.2698  0.0898 -0.0492
 6888W        W22357   2.228  17.698  14.029  0.1526  0.3715  0.2032
 6889W        W22358   6.031   3.729   0.041  0.1822  0.1296  0.4478
 6890W        W22359  11.153  17.240   2.889 -0.2007 -0.1554  0.2531
 6891W        W22360  14.897   2.063   1.342  0.2729 -0.0493 -0.2380
 6892W        W22361  11.349  14.085  13.583  0.1205  0.1314  0.0860
 6893W        W22362  15.556  11.492  11.451  0.0820  0.1030 -0.1527
 6894W        W22363  14.505   8.835   1.668 -0.0563 -0.1097  0.0332
 6895W        W22364   4.458   2.005  14.096 -0.3456  0.0651 -0.0254
 6896W        W22365  13.217   4.981   0.716  0.0301 -0.1520 -0.0926
 6897W        W22366  10.207  10.939   0.014  0.1825 -0.1984  0.1833
 6898W        W22367  10.200   8.854   1.546  0.0030  0.2533  0.2757
 6899W        W22368   4.300   7.940  13.071 -0.0163  0.2192 -0.1278
 6900W        W22369   9.232  15.172  11.422  0.0368 -0.3701  0.0537
 6901W        W22370   4.785   3.273  11.305 -0.1326 -0.4688  0.1759
 6902W        W22371  15.593   5.210  11.327 -0.1839 -0.1688  0.0402
 6903W        W22372  11.993   0.444  14.393 -0.1670 -0.3420  0.1816
 6904W        W22373   3.476   5.130   6.056  0.0313  0.1259  0.5275
 6905W        W22374  16.124  10.187   1.424 -0.0406  0.1680  0.0384
 6906W        W22375   1.755   6.348  14.972 -0.2154 -0.0143 -0.2842
 6907W        W22376  15.967   6.305  13.074  0.0630 -0.0627 -0.0494
 6908W        W22377   4.534   4.533   5.553  0.4081 -0.0233 -0.1944
 6909W        W22378  11.813  14.445   3.319 -0.0002  0.0055 -0.0686
 6910W        W22379  11.265  10.224   3.812 -0.0686  0.0992  0.0350
 6911W        W22380  12.568   9.579   3.717 -0.0632 -0.0039  0.1001
 6912W        W22381   9.776   1.853  14.567  0.2175 -0.1090  0.3343
 6913W        W22382   1.897  12.316  13.696 -0.0226 -0.2779 -0.2851
 6914W        W22383  12.505   2.248   2.489 -0.1751  0.2463  0.1540
 6915W        W22384   3.141   5.864  13.154  0.0333 -0.1306 -0.1429
 6916W        W22385   8.328   8.378   3.007  0.0196  0.2725  0.1017
 6917W        W22386   2.747   7.900   4.768  0.1773 -0.2549  0.1214
 6918W        W22387   5.644   3.361   0.623  0.1181 -0.0202 -0.0329
 6919W        W22388   6.182  10.910   4.598  0.1454  0.0843 -0.2418
 6920W        W22389  14.925  18.150  13.189 -0.0361  0.2770  0.0625
 6921W        W22390  17.425   4.945  11.561 -0.3255  0.0684 -0.3265
 6922W        W22391  15.128  15.682  11.708  0.2253 -0.1786  0.3628
 6923W        W22392   6.798   4.203  12.038  0.2626 -0.1360 -0.2901
 6924W        W22393  17.172   8.584  11.326 -0.2001 -0.1032 -0.0084
 6925W        W22394  10.352  14.464  15.419 -0.3501 -0.3700 -0.0733
 6926W        W22395   6.942   5.636   1.179 -0.0439 -0.0951  0.1593
 6927W        W22396   1.449   6.398   6.063 -0.0502 -0.1618 -0.1532
 6928W        W22397  17.524   5.578  15.792 -0.1078  0.1729  0.2078
 6929W        W22398  10.357  10.258  14.682 -0.0074  0.3257 -0.1128
 6930W        W22399  17.330   9.629  13.020 -0.0832  0.1341  0.1787
 6931W        W22400   3.528  11.389  11.759  0.5175  0.0166  0.0524
 6932W        W22401  15.622   2.901   1.731 -0.2168 -0.2751 -0.1563
 6933W        W22402  16.579   9.106  11.376 -0.0360  0.1248  0.1252
 6934W        W22403   4.687  16.002  15.441 -0.1214 -0.1111  0.0839
 6935W        W22404   0.656  10.418  14.712  0.1817  0.0499 -0.3947
 6936W        W22405   4.322   1.612  10.118  0.2776  0.0523  0.1721
 6937W        W22406  14.655  17.829   3.801 -0.2418 -0.1529 -0.0095
 6938W        W22407  14.375   4.962  14.301 -0.6080  0.2379  0.4581
 6939W        W22408  10.701  17.243  16.078  0.2307 -0.0370  0.0531
 6940W        W22409   3.063  10.533  12.824 -0.0340  0.2513 -0.0426
 6941W        W22410   4.914  10.594   4.852  0.0885  0.0927  0.0123
 6942W        W22411   9.694   2.957   1.955  0.0764 -0.1104 -0.1322
 6943W        W22412   0.710   1.502  11.165 -0.1643 -0.1864  0.0338
 6944W        W22413  12.302   6.473   0.076  0.1439  0.0282 -0.0872
 6945W        W22414  10.692   0.526  13.128 -0.3781  0.0051 -0.1142
 6946W        W22415  12.863   3.909   1.698 -0.2837  0.3356 -0.0585
 6947W        W22416   8.012   5.725  11.827  0.3764  0.1378  0.2448
 6948W        W22417  11.796   7.570  11.656  0.2902 -0.2964 -0.0403
 6949W        W22418  15.392   4.428   4.964  0.3059 -0.0247 -0.3284
 6950W        W22419   1.149  16.935  14.391 -0.0950 -0.0795  0.0328
 6951W        W22420   5.893  15.805   0.253 -0.0892 -0.1084 -0.0627
 6952W        W22421   8.831  13.455  13.337 -0.0793  0.0155  0.1643
 6953W        W22422  14.028  13.937  15.030  0.2965 -0.2153 -0.0682
 6954W        W22423   0.247  16.850   4.955 -0.2399  0.2597  0.1876
 6955W        W22424  10.027  15.051   3.864  0.1768 -0.2649 -0.2484
 6956W        W22425  13.053   3.472   3.880 -0.3006  0.2467  0.1816
 6957W        W22426   3.307   2.187   3.505 -0.1992  0.1692 -0.2398
 6958W        W22427   2.502   3.742  15.522 -0.1189 -0.0784 -0.2112
 6959W        W22428  13.923   3.488  14.644 -0.2722  0.0692  0.1083
 6960W        W22429   9.573   3.248   5.426 -0.0367 -0.2331  0.1974
 6961W        W22430  11.394   9.476  15.619 -0.1792 -0.0699  0.3349
 6962W        W22431  12.014   9.044  11.475 -0.3508  0.0252  0.0914
 6963W        W22432   0.951   6.330   3.765 -0.1220  0.3746 -0.0210
 6964W        W22433   8.347  12.997   0.348 -0.0524  0.2360 -0.2987
 6965W        W22434   1.481   8.264  11.679  0.0356 -0.0638  0.3019
 6966W        W22435  14.055   5.115   3.615 -0.2416 -0.0952  0.1383
 6967W        W22436  17.950   2.949  13.908 -0.0805  0.1476 -0.1576
 6968W        W22437   9.031   0.835   1.193 -0.3757 -0.2120 -0.1134
 6969W        W22438   9.859   3.808  11.715 -0.2422 -0.2336 -0.0214
 6970W        W22439   4.318   4.775  14.968 -0.0198  0.3085  0.4303
 6971W        W22440   5.947   8.647  14.308 -0.0134 -0.2075 -0.0845
 6972W        W22441  15.369   6.931  12.292  0.0040 -0.1407 -0.2209
 6973W        W22442   6.132   1.776  10.896 -0.2010 -0.0752  0.4076
 6974W        W22443   3.721   7.825  15.163 -0.1146  0.1147  0.0261
 6975W        W22444  17.405  10.541  13.202  0.0761 -0.1478  0.1330
 6976W        W22445  18.191   4.314  14.687  0.0646 -0.1564  0.0011
 6977W        W22446  14.418  16.311  15.789 -0.2122  0.0326  0.2407
 6978W        W22447  18.284   2.716   3.015 -0.1643 -0.1204  0.0372
 6979W        W22448  14.291   5.932  15.374  0.0520 -0.2126  0.2054
 6980W        W22449   3.280   7.847   4.300 -0.2165 -0.0929  0.2239
 6981W        W22450   1.892   8.562   1.506 -0.0216 -0.0543  0.1910
 6982W        W22451   3.991  15.710   4.447 -0.1123 -0.0344  0.0094
 6983W        W22452   7.208   4.261   5.344 -0.1749 -0.1027  0.0812
 6984W        W22453   4.138  11.590   3.227 -0.1458  0.1186  0.3190
 6985W        W22454   1.388   9.470  15.057  0.1556  0.2999 -0.0888
 6986W        W22455   8.955  15.977  11.729  0.0911  0.1485  0.1982
 6987W        W22456   1.710  13.227   4.590 -0.0726 -0.2135 -0.1389
 6988W        W22457  11.388  11.449   0.880 -0.2580  0.0373  0.0387
 6989W        W22458   4.827  15.690   3.820  0.0055  0.0186  0.0904
 6990W        W22459  10.887   8.932   5.149 -0.2525  0.1101  0.0571
 6991W        W22460  16.439  18.118  15.515 -0.1375  0.1217  0.1370
 6992W        W22461   5.652   9.871   1.407 -0.1579  0.0237  0.0040
 6993W        W22462   5.925  13.802   1.315 -0.0015 -0.0677 -0.0478
 6994W        W22463  17.216  11.525  15.663  0.3241 -0.2431 -0.0226
 6995W        W22464   3.427   6.128  14.351 -0.2063 -0.2392 -0.0098
 6996W        W22465   4.709   2.466   1.224  0.1435  0.1872  0.0370
 6997W        W22466  16.569  13.499   4.385  0.3613 -0.0753 -0.0908
 6998W        W22467  14.850  13.453  10.854  0.2118  0.1207  0.3124
 6999W        W22468  17.231  16.609  15.577  0.3199  0.1827  0.0264
 7000W        W22469   2.465   6.139   1.172  0.0655 -0.1194 -0.1442
 7001W        W22470   5.444   5.247  15.689  0.0110 -0.0847  0.0037
 7002W        W22471  10.366  10.547  13.352  0.1526 -0.0459 -0.1189
 7003W        W22472  14.697   5.574   1.941  0.5727  0.0705 -0.0665
 7004W        W22473   9.474  11.478   4.424 -0.0942  0.4333 -0.0917
 7005W        W22474  11.422   9.678   0.334  0.2055 -0.0936  0.3231
 7006W        W22475   7.986   6.489   4.548 -0.0714  0.0710 -0.2589
 7007W        W22476   8.155   2.097  14.947 -0.0245 -0.0070  0.1733
 7008W        W22477  16.292   4.040  12.377  0.1105  0.1174  0.0380
 7009W        W22478  10.305   8.578   0.933 -0.1943  0.2811  0.0519
 7010W        W22479  16.218  15.782  15.198 -0.2204 -0.3057 -0.4234
 7011W        W22480  11.158  17.133   0.753 -0.0128  0.2349  0.1174
 7012W        W22481   6.404   2.623   4.885 -0.3550  0.2119 -0.1263
 7013W        W22482   7.723  14.210  13.724  0.0682 -0.0252  0.2604
 7014W        W22483   5.016   5.487   0.086  0.1147  0.0566 -0.1782
 7015W        W22484   6.631  12.217   3.358 -0.1179  0.0348 -0.0211
 7016W        W22485   1.130   4.854   3.146 -0.2119  0.2420 -0.1489
 7017W        W22486  10.062  18.007  14.991  0.1750  0.0126 -0.1226
 7018W        W22487  14.595  18.230  15.484  0.1445  0.1179  0.0891
 7019W        W22488   6.768   7.793   3.679 -0.1195 -0.1903  0.1143
 7020W        W22489  12.458   0.145  11.144 -0.1806  0.0372  0.0433
 7021W        W22490   0.444   6.057  12.074  0.1427  0.4249 -0.0729
 7022W        W22491   7.828   6.191   0.221 -0.2823 -0.2892  0.1131
 7023W        W22492   4.124   1.193  12.477  0.0738 -0.0899  0.2986
 7024W        W22493   1.532   4.029   2.548 -0.0113  0.0230  0.0565
 7025W        W22494   6.213   7.096  12.418  0.5921 -0.0701  0.0278
 7026W        W22495   2.602   7.394  14.861  0.0526  0.4557  0.0884
 7027W        W22496  10.512   6.477   3.274 -0.1358  0.2575 -0.2089
 7028W        W22497  12.762  10.615  11.853  0.2598 -0.0061 -0.0365
 7029W        W22498   8.020  16.097   3.816  0.1234  0.1610 -0.0994
 7030W        W22499   5.454   1.888  12.516  0.1814 -0.0661 -0.0233
 7031W        W22500  15.054  17.777   1.167  0.1679  0.2733 -0.0305
 7032W        W22501   6.278   1.485   3.162 -0.1068 -0.1785  0.0955
 7033W        W22502   6.260   8.124   2.609 -0.0791 -0.2147  0.4405
 7034W        W22503  15.101  17.076   4.680 -0.2099 -0.0684 -0.0057
 7035W        W22504  17.213   4.702   0.179 -0.1837 -0.1317  0.1050
 7036W        W22505  17.342  17.390   5.485 -0.0077 -0.0138  0.2114
 7037W        W22506  11.898   5.623   6.176  0.1780  0.0267  0.3927
 7038W        W22507   6.793   2.035   2.636 -0.0049 -0.1985 -0.1115
 7039W        W22508   8.671  14.019   4.100 -0.1525  0.3447 -0.0397
 7040W        W22509  12.490  17.982   4.095  0.1501  0.0114  0.3605
 7041W        W22510  16.429  12.402   3.381  0.1523 -0.1594  0.0187
 7042W        W22511  11.884  16.129  14.121  0.0773 -0.0545  0.0505
 7043W        W22512   6.491  16.770  13.345 -0.1040  0.0978 -0.2669
 7044W        W22513  12.735   8.896   4.635  0.0376  0.1394 -0.0930
 7045W        W22514   8.817  13.048   3.730  0.1545  0.0205 -0.1397
 7046W        W22515   2.370   1.748  11.407  0.1367 -0.0595  0.0002
 7047W        W22516  12.773  18.270  15.946 -0.3323  0.0520  0.0604
 7048W        W22517   4.283   0.598  13.873 -0.1516 -0.0947 -0.0616
 7049W        W22518   2.673  10.179   4.383 -0.0150  0.0495 -0.0944
 7050W        W22519   4.920   3.878   4.816  0.3217  0.0121 -0.1430
 7051W        W22520   5.550  13.971  13.426 -0.2408 -0.1877  0.1011
 7052W        W22521   5.234  14.664   0.467  0.0725 -0.2400  0.3109
 7053W        W22522   5.980   3.076   2.440  0.1806 -0.1228  0.0460
 7054W        W22523  13.450  17.834   1.338  0.1009  0.1399 -0.1467
 7055W        W22524   6.563   6.311  14.209  0.0772 -0.0331 -0.1361
 7056W        W22525  16.959   9.919  11.824  0.2778  0.2241 -0.0440
 7057W        W22526   3.596  17.275  14.977 -0.0935 -0.4437  0.1099
 7058W        W22527  15.623   2.194  12.230 -0.3382 -0.0753  0.2208
 7059W        W22528   9.603  11.883  14.708 -0.0607 -0.2080 -0.1059
 7060W        W22529   2.649   1.647  14.050 -0.2351  0.1802 -0.3680
 7061W        W22530  12.745  14.765  10.517  0.3137 -0.0345  0.0727
 7062W        W22531   2.074   1.405  15.811  0.0237  0.4393  0.0135
 7063W        W22532  14.897   3.111  13.291 -0.0759  0.1458 -0.3937
 7064W        W22533  14.355   9.196   6.198  0.0654  0.2503 -0.0115
 7065W        W22534   8.003  17.677   1.625  0.5377  0.0151 -0.0389
 7066W        W22535  13.074   7.072  15.898  0.0677  0.0135  0.3051
 7067W        W22536   5.384   0.789  11.692 -0.0595 -0.0460  0.0166
 7068W        W22537  15.640  15.023   4.748 -0.2092  0.1158  0.0080
 7069W        W22538   3.064  14.575   1.577 -0.2020 -0.0291  0.1307
 7070W        W22539   3.690  10.873   1.300  0.0530 -0.2614 -0.1629
 7071W        W22540  11.697   8.791   2.364  0.1852 -0.3922  0.0377
 7072W        W22541   5.977   6.799   2.915  0.3610  0.0120  0.0987
 7073W        W22542   6.701  16.885   1.892 -0.0067 -0.0419  0.1088
 7074W        W22543   5.572  16.569  13.181  0.0844  0.1757  0.0700
 7075W        W22544  10.215   1.608  12.854 -0.1324  0.0207  0.0624
 7076W        W22545  12.627  14.397  12.171  0.2229  0.2470 -0.2382
 7077W        W22546  12.512   4.599   4.552 -0.0560 -0.2036  0.2880
 7078W        W22547  14.472  16.899  15.741  0.0095  0.1836 -0.0754
 7079W        W22548   6.814   9.344   3.214 -0.0611  0.0707  0.2610
 7080W        W22549   6.013   9.115   5.247 -0.0941  0.0057 -0.0660
 7081W        W22550  16.732   9.579  13.200 -0.0027  0.0235  0.4588
 7082W        W22551   2.541  17.235   2.094  0.0749  0.0810 -0.0978
 7083W        W22552   4.981  16.816  12.396 -0.0228  0.1225 -0.0070
 7084W        W22553   1.345  10.787  13.820  0.3158  0.0560  0.1225
 7085W        W22554   6.278  12.961  13.052  0.4838  0.0078 -0.1256
 7086W        W22555  17.702   0.019   3.492  0.0431  0.1855 -0.0045
 7087W        W22556  17.129   7.594   1.366 -0.0131  0.2098  0.2696
 7088W        W22557  10.001  11.331   0.245  0.1801 -0.4456 -0.1671
 7089W        W22558  11.028   4.683   5.413  0.5444 -0.1398 -0.1095
 7090W        W22559   2.261  15.835  13.482 -0.2125 -0.2838 -0.0066
 7091W        W22560  12.807   6.450  13.218 -0.1076 -0.1009  0.1503
 7092W        W22561   3.105   8.674  14.276  0.3883 -0.1678 -0.1095
 7093W        W22562  13.619   7.202  11.271 -0.2135 -0.1057 -0.4709
 7094W        W22563   7.393  10.878   4.858 -0.3604 -0.2524  0.2302
 7095W        W22564  14.027  16.131  14.863 -0.0666  0.0314 -0.0819
 7096W        W22565   0.113   4.789  10.983 -0.1436 -0.0583 -0.0767
 7097W        W22566  11.052   5.335   0.015 -0.1518  0.0707 -0.3044
 7098W        W22567  11.013   6.887  13.396  0.1288  0.2044 -0.2251
 7099W        W22568   0.560   7.388  15.671 -0.1448  0.3691  0.1078
 7100W        W22569  10.509   5.473  14.541  0.2598 -0.0819 -0.0355
 7101W        W22570   8.586   8.220   1.110  0.2546 -0.1601 -0.5934
 7102W        W22571   5.092   4.925   3.670  0.2634 -0.0116 -0.4132
 7103W        W22572  12.483  10.897   1.993 -0.1114 -0.0695 -0.0287
 7104W        W22573   2.755   5.507   3.115  0.0550 -0.4145 -0.0259
 7105W        W22574   4.571   8.953   2.292 -0.4883 -0.2220 -0.0229
 7106W        W22575   3.434  12.365  12.074 -0.1433 -0.1113  0.0167
 7107W        W22576   5.702   5.740   1.327 -0.0093  0.1212  0.1123
 7108W        W22577   1.145   0.620  11.732  0.1661 -0.1208  0.0568
 7109W        W22578  14.951  11.601  13.023  0.0819  0.2148  0.2459
 7110W        W22579   3.346   7.518  11.958  0.0567 -0.3029  0.1275
 7111W        W22580   6.074  13.644   1.836 -0.1452  0.0783 -0.0690
 7112W        W22581  12.708   1.747   1.782  0.0301 -0.1195 -0.0647
 7113W        W22582   7.544   8.471  13.672 -0.0945  0.0974  0.0785
 7114W        W22583   6.249   4.021   0.932 -0.1899  0.0164 -0.0740
 7115W        W22584   9.232   8.160   0.959  0.0640  0.0104  0.1978
 7116W        W22585   7.819   9.401  15.179 -0.0981 -0.2396 -0.1435
 7117W        W22586   3.910   2.834   3.663  0.2932 -0.2329  0.0273
 7118W        W22587   5.096  10.616  10.913 -0.0673  0.1515 -0.1502
 7119W        W22588  11.034  13.166  11.369 -0.3382  0.0734 -0.1436
 7120W        W22589  17.174  13.083   0.858  0.0881  0.0986  0.0720
 7121W        W22590  11.598  16.171  12.124  0.1229  0.1316 -0.1377
 7122W        W22591   7.006  17.155  11.046 -0.1033 -0.1393 -0.2338
 7123W        W22592   1.377  14.618   5.223 -0.2375 -0.2368  0.1550
 7124W        W22593   2.629   2.153  15.442  0.1191  0.0082 -0.0021
 7125W        W22594   5.551   2.679   1.193  0.1792  0.0411 -0.1899
 7126W        W22595   6.069  16.038   4.191 -0.0628  0.1347  0.0915
 7127W        W22596   1.787   2.533  14.901 -0.2571  0.3077 -0.0507
 7128W        W22597   2.450  17.626  13.589  0.0411 -0.1441  0.0790
 7129W        W22598  11.611   7.951  13.004  0.0695  0.1986 -0.4382
 7130W        W22599   5.042   7.296  14.714 -0.1287 -0.2079 -0.3532
 7131W        W22600  13.449   7.325  12.862  0.4691 -0.1227  0.0597
 7132W        W22601   4.693  12.364   4.325  0.0862 -0.3008  0.0848
 7133W        W22602   9.815   4.937   5.696 -0.4560 -0.0311 -0.1545
 7134W        W22603  16.035   2.853  13.511 -0.1152  0.0831 -0.0672
 7135W        W22604   4.799   2.670  12.246  0.1364 -0.0462  0.2312
 7136W        W22605  16.680  13.871   3.958  0.1721  0.0300 -0.0209
 7137W        W22606  11.101  10.028   0.601  0.2292  0.4878  0.2723
 7138W        W22607  12.809   0.042  11.524 -0.2810  0.0711  0.0493
 7139W        W22608  15.396  15.551   2.104 -0.0829  0.1997  0.0153
 7140W        W22609  10.846  17.512  14.874 -0.0464  0.1452  0.2275
 7141W        W22610   1.507   1.852   3.945 -0.1494  0.0740 -0.2678
 7142W        W22611   4.337   7.084   6.272 -0.0760 -0.0808 -0.0507
 7143W        W22612   1.567  17.233   0.826  0.2502 -0.1415  0.2666
 7144W        W22613  14.264   1.639   5.387 -0.0129 -0.0010 -0.0425
 7145W        W22614   7.770  10.392   1.569 -0.1079 -0.2264 -0.0772
 7146W        W22615  13.455  14.873  14.978  0.1443  0.1524 -0.1408
 7147W        W22616  15.553  14.786  12.991 -0.1315 -0.1019 -0.1828
 7148W        W22617   3.864  12.615  12.345  0.0735 -0.2209 -0.0313
 7149W        W22618  10.762   8.589   0.689 -0.1898 -0.0871  0.2947
 7150W        W22619  10.320  12.415   2.917  0.2850  0.3158  0.1690
 7151W        W22620   0.598   9.144  11.713  0.0684 -0.0236  0.0546
 7152W        W22621  11.298  15.161   3.919  0.2756  0.1844 -0.2132
 7153W        W22622  13.224   6.551   5.399  0.2448  0.0935  0.0170
 7154W        W22623  17.404  15.513   0.109 -0.0927  0.1860  0.1038
 7155W        W22624  17.966   4.620   4.355  0.3400 -0.0855 -0.3720
 7156W        W22625   2.716  15.589   4.720 -0.1284 -0.1755  0.2177
 7157W        W22626   7.638   6.379  15.708 -0.1364  0.0096 -0.3554
 7158W        W22627   9.143  10.144  15.782  0.1942 -0.1428  0.3061
 7159W        W22628   7.467   9.802  15.213  0.0673 -0.2251  0.0474
 7160W        W22629  17.625   1.295  13.120  0.0243 -0.2747  0.2227
 7161W        W22630  15.915  15.767   0.784 -0.1526 -0.1104  0.6357
 7162W        W22631   2.775   9.044   2.686 -0.2392  0.1506  0.4550
 7163W        W22632   9.855  17.603  14.784  0.0216 -0.2047 -0.2895
 7164W        W22633   7.062  12.176   4.599  0.0522 -0.1068 -0.0292
 7165W        W22634   8.114  10.576   3.166  0.0351 -0.2243  0.1140
 7166W        W22635   9.223  11.075  11.645  0.0470  0.3970 -0.0430
 7167W        W22636   4.115  16.077  16.168  0.2815  0.1596  0.0677
 7168W        W22637   0.909  12.147   0.504 -0.3058  0.0378  0.2006
 7169W        W22638  14.241   3.942   2.415 -0.2395 -0.0356 -0.1878
 7170W        W22639  16.460   1.845   1.847  0.6043  0.0650 -0.0247
 7171W        W22640   7.895   3.911  12.672 -0.1950  0.0567 -0.1042
 7172W        W22641   2.699   4.935  13.480  0.1045 -0.0587 -0.2502
 7173W        W22642  12.506  14.384   6.282 -0.1141  0.0440 -0.3104
 7174W        W22643   8.771  14.928   2.539 -0.1567 -0.1570  0.0129
 7175W        W22644   5.628   7.750  12.650  0.0025 -0.1360  0.1034
 7176W        W22645  17.951   3.872   1.543  0.0548  0.3075  0.0313
 7177W        W22646   0.392   2.749   2.711  0.0456 -0.1022  0.1316
 7178W        W22647   5.094   3.408  14.650 -0.1584  0.0305  0.1350
 7179W        W22648   4.551   5.438  12.089  0.2418  0.1433  0.2508
 7180W        W22649   3.640   9.965  14.912 -0.1572  0.0277  0.2674
 7181W        W22650   9.204   0.097  14.290 -0.0083 -0.0667  0.1273
 7182W        W22651  14.269   1.545  15.036 -0.2216 -0.0716 -0.2146
 7183W        W22652  11.571   3.098   1.263  0.0431  0.1863 -0.1484
 7184W        W22653  14.667  10.388  13.832  0.1234  0.1675 -0.2704
 7185W        W22654   1.335  15.420  13.235 -0.1073  0.0906 -0.0301
 7186W        W22655  15.438  16.792  14.097 -0.3010 -0.0972 -0.0758
 7187W        W22656   6.259  15.299   1.311 -0.1345 -0.1689  0.0083
 7188W        W22657   8.354   8.006  15.307 -0.1275  0.0075  0.0279
 7189W        W22658  11.206   1.146   0.367  0.3243 -0.3922 -0.1053
 7190W        W22659   6.394  10.648  11.796  0.0777  0.2919  0.3852
 7191W        W22660   5.220   1.471  12.431  0.1351 -0.1216 -0.2601
 7192W        W22661  15.685   8.635  11.306  0.0019 -0.2239  0.0280
 7193W        W22662   9.840   8.846   5.215  0.0562  0.1169 -0.0827
 7194W        W22663   2.211   4.884   4.172 -0.0777 -0.1051  0.1719
 7195W        W22664  11.586  13.925  15.130 -0.0143 -0.3553 -0.0243
 7196W        W22665   2.468   8.501  15.736  0.3377  0.1870  0.2296
 7197W        W22666  14.377   2.387  13.989 -0.2007  0.0693  0.2365
 7198W        W22667   8.699   6.267   2.106  0.1498 -0.1907 -0.0425
 7199W        W22668  16.593   2.040  13.473  0.0665  0.1136 -0.0180
 7200W        W22669   1.390  10.346   3.650 -0.0122 -0.1008 -0.2845
 7201W        W22670   3.172  15.277  16.089 -0.0846  0.0809 -0.0749
 7202W        W22671  16.669   4.795   1.797 -0.0197  0.3566 -0.1099
 7203W        W22672   6.452  12.734   5.130  0.0743  0.0984  0.1543
 7204W        W22673  14.164   9.956  14.934  0.1551 -0.2024  0.2159
 7205W        W22674  13.793   6.950   3.789  0.0084  0.2712 -0.0507
 7206W        W22675  16.500  13.929   2.539  0.3615  0.2341 -0.1647
 7207W        W22676   0.190   1.508   2.901 -0.4121  0.2127 -0.2573
 7208W        W22677   0.025   9.583  13.855  0.0403 -0.0740 -0.1387
 7209W        W22678  10.436   5.638   4.824  0.0298 -0.1302  0.1127
 7210W        W22679   0.358   7.596   1.791  0.0264 -0.0266  0.5755
 7211W        W22680  16.263   8.690   1.218  0.0972 -0.2777 -0.2215
 7212W        W22681   9.489   8.382   1.388 -0.1621  0.2618 -0.1807
 7213W        W22682   0.606   4.475   1.954  0.1804 -0.1719 -0.3851
 7214W        W22683  15.832  17.540   6.298 -0.0831  0.4163  0.1825
 7215W        W22684   8.324   5.180  12.442 -0.1831  0.2377 -0.0309
 7216W        W22685  13.664   9.152   3.622  0.0456 -0.1805  0.0452
 7217W        W22686   6.763   0.480  11.445 -0.4604  0.1857  0.0172
 7218W        W22687   9.118   0.242   0.530  0.1998 -0.1994 -0.0167
 7219W        W22688  14.858  15.842   2.755 -0.0421  0.0496  0.2084
 7220W        W22689  14.598  13.068  11.072 -0.0545 -0.0006 -0.0671
 7221W        W22690   6.946   2.801   0.250 -0.1948  0.0854 -0.2811
 7222W        W22691  12.646  12.826  14.885  0.0272  0.0553  0.0355
 7223W        W22692  16.856  10.486   4.335 -0.1995  0.3546 -0.0202
 7224W        W22693  16.397   7.423  14.800  0.1240 -0.1258 -0.2077
 7225W        W22694  13.839  10.475   0.420 -0.0160 -0.0425 -0.1321
 7226W        W22695   3.740   8.663   0.726 -0.2346  0.0896 -0.0917
 7227W        W22696  14.264   9.632  11.832  0.1101  0.1172  0.1057
 7228W        W22697  15.701   4.294   2.469 -0.0958  0.0913 -0.0104
 7229W        W22698  14.353   4.229   9.977 -0.0198  0.0593  0.2836
 7230W        W22699   9.437  11.495   1.952 -0.2026 -0.0318  0.0159
 7231W        W22700   7.015  16.734  13.526  0.0361  0.1950 -0.0614
 7232W        W22701  11.153   9.421  12.989  0.0097 -0.3409  0.1599
 7233W        W22702  13.444  18.170  10.453  0.0074  0.3383  0.1418
 7234W        W22703   4.538   2.238  12.226 -0.4063  0.2364  0.1864
 7235W        W22704   6.487  13.607   5.687  0.0917 -0.3411  0.0468
 7236W        W22705   3.882  14.615  16.087  0.2004 -0.2189 -0.2663
 7237W        W22706  16.412   7.184   2.121 -0.3386 -0.2490  0.1679
 7238W        W22707   8.146   2.391   5.380  0.0372 -0.3723 -0.0813
 7239W        W22708   9.503   9.514  13.164  0.1958  0.0873  0.1399
 7240W        W22709  16.925  10.917   5.306  0.1334  0.0257 -0.0992
 7241W        W22710   2.085  17.934   0.019  0.2241  0.2196  0.2247
 7242W        W22711  16.072   0.934  14.173  0.0770 -0.1011  0.0735
 7243W        W22712   5.084   5.451   0.615 -0.0576 -0.3353  0.1511
 7244W        W22713  16.932   2.763   0.455  0.0583 -0.2529 -0.1470
 7245W        W22714   5.693  13.561   4.578 -0.1572  0.0005 -0.1088
 7246W        W22715  16.416   1.542   1.437  0.1818  0.2998  0.0773
 7247W        W22716   2.948   0.842  14.015 -0.1748  0.0659 -0.2136
 7248W        W22717   2.156  17.613   1.397  0.2098  0.1138  0.0229
 7249W        W22718  13.187  12.969  12.141 -0.1729  0.1884 -0.0774
 7250W        W22719   6.241  14.071   0.918  0.3088  0.1598 -0.2222
 7251W        W22720  12.074  10.857   0.353 -0.0559  0.2046 -0.0286
 7252W        W22721   6.620   1.716   0.129 -0.0911  0.1739  0.1246
 7253W        W22722   2.762   2.207   4.879  0.3716  0.1377 -0.1296
 7254W        W22723  14.839  17.033  12.487 -0.1204 -0.3355 -0.1111
 7255W        W22724   2.858  16.867  14.449  0.0217  0.0339 -0.1564
 7256W        W22725  11.935   3.813   1.618  0.2584  0.1768 -0.2328
 7257W        W22726  13.228   8.787  14.455 -0.2984  0.2969  0.1301
 7258W        W22727   8.155   7.911   3.234  0.0902  0.2563 -0.0038
 7259W        W22728  16.143  12.102  12.618 -0.3517 -0.0237  0.0100
 7260W        W22729  14.626   4.299  12.596 -0.3647  0.0365 -0.3535
 7261W        W22730   9.479   2.652  10.148  0.0753  0.0093  0.1386
 7262W        W22731  12.976   5.843  12.736 -0.0760 -0.1701  0.0659
 7263W        W22732  14.025   9.627   6.140 -0.3388 -0.1583 -0.0292
 7264W        W22733  14.207   7.966  11.153 -0.0194 -0.0784  0.4203
 7265W        W22734  12.162  12.669  14.553 -0.3256  0.0255  0.2176
 7266W        W22735  16.762  12.320  16.023 -0.2394 -0.2316 -0.0487
 7267W        W22736   5.666  11.177  13.077  0.0939 -0.1209 -0.1150
 7268W        W22737   7.632  14.900  11.111  0.0396 -0.1628 -0.1109
 7269W        W22738  11.036   6.260  11.831  0.1465 -0.2867  0.0667
 7270W        W22739   3.973   5.128  15.011  0.3419  0.1774  0.0931
 7271W        W22740  14.739   1.674   4.014 -0.0362  0.2789 -0.2194
 7272W        W22741  12.332   3.543   3.099 -0.4411 -0.3627  0.1184
 7273W        W22742  14.739  14.820  14.925  0.2213 -0.1072 -0.2593
 7274W        W22743   1.938  17.148  10.876 -0.1529  0.2924 -0.1954
 7275W        W22744   7.271   1.484   3.708 -0.1565 -0.0857  0.0757
 7276W        W22745   9.209  13.468   0.066 -0.0079 -0.3412  0.0793
 7277W        W22746   4.693  11.036   3.371  0.0423  0.0779  0.1452
 7278W        W22747   0.396  14.385   3.312 -0.0041 -0.1305  0.2249
 7279W        W22748   7.339   6.376   2.339 -0.1159 -0.1869 -0.0539
 7280W        W22749  11.315   1.205   3.352 -0.0997 -0.1085 -0.2118
 7281W        W22750  14.040  15.158  11.257  0.3354  0.2711  0.1348
 7282W        W22751  15.869   5.767   2.993 -0.1036 -0.2759  0.0691
 7283W        W22752  13.516   8.791  10.444 -0.0904 -0.0036  0.1444
 7284W        W22753  11.394   1.770   3.073  0.2900  0.2039  0.3126
 7285W        W22754  14.643   4.793  15.771 -0.1289  0.1738 -0.2477
 7286W        W22755  11.664  10.146   1.251  0.0539  0.0247  0.3069
 7287W        W22756   1.793   8.688  15.382 -0.0002  0.3702  0.2537
 7288W        W22757   3.078  18.018  13.837  0.0837 -0.0536 -0.0704
 7289W        W22758  17.882   4.056  15.302  0.0694  0.2021 -0.3245
 7290W        W22759  16.316   0.352  13.538  0.3102 -0.0988 -0.0554
 7291W        W22760   9.782   7.614  13.430 -0.0627 -0.0911 -0.2024
 7292W        W22761  17.051   0.778   2.810 -0.1361 -0.1618 -0.2273
 7293W        W22762   9.603   5.062   1.378 -0.0127  0.0455 -0.0258
 7294W        W22763  15.724   4.844  14.857 -0.2299  0.1069 -0.2407
 7295W        W22764  16.624  17.317   4.763 -0.3793  0.2645 -0.1530
 7296W        W22765   5.474   6.655   2.887 -0.1916  0.0873 -0.1596
 7297W        W22766  13.420  15.881  12.374  0.1008  0.0364  0.1078
 7298W        W22767   5.687  15.851   2.104  0.1028 -0.2890  0.2251
 7299W        W22768   3.078  12.757  12.512 -0.5152 -0.2097 -0.2512
 7300W        W22769   1.521   9.545   1.877 -0.0944 -0.4476 -0.1582
 7301W        W22770  18.098  12.027  13.210  0.3014 -0.3808  0.2495
 7302W        W22771  13.178  10.345  15.834  0.0890 -0.0742  0.1002
 7303W        W22772  11.861   4.553  12.947 -0.3019 -0.2293  0.1147
 7304W        W22773  11.011  12.833   4.268  0.0633  0.1909  0.0608
 7305W        W22774   7.999   2.678  13.699 -0.3252  0.2485  0.2597
 7306W        W22775  10.454  13.085   2.131  0.2359  0.0919 -0.1012
 7307W        W22776  10.325  17.196   5.297  0.5896  0.1378 -0.1889
 7308W        W22777  11.635   7.300  15.936  0.1593  0.1217  0.2060
 7309W        W22778  13.966   1.976  13.145  0.0339  0.1882 -0.2615
 7310W        W22779   2.122   0.412   2.756 -0.3078 -0.0792  0.0583
 7311W        W22780   9.685   3.341  13.165  0.2326 -0.0109  0.1017
 7312W        W22781  14.445  13.575  11.175 -0.0582 -0.1883  0.2755
 7313W        W22782  17.998   4.368  14.256  0.0274 -0.1797  0.0525
 7314W        W22783  10.303   2.886   0.810 -0.1193  0.3018 -0.2348
 7315W        W22784  15.570   5.810   3.938 -0.0413 -0.0360  0.6020
 7316W        W22785   0.020   1.879  15.558  0.2001  0.1113  0.1641
 7317W        W22786  13.281  10.837   1.689  0.1525 -0.1544 -0.2502
 7318W        W22787   0.348   4.537  14.856 -0.0873  0.2821 -0.2064
 7319W        W22788  15.484  10.681  14.883 -0.0465  0.0961  0.4332
 7320W        W22789  11.200   4.555  14.619 -0.0114 -0.0845 -0.3879
 7321W        W22790  15.398  15.754   2.760 -0.0590 -0.0571 -0.0484
 7322W        W22791  13.501   8.299   4.915 -0.1501  0.0496 -0.0794
 7323W        W22792   6.060   9.862   4.428  0.0691 -0.1798  0.1529
 7324W        W22793   5.904   4.854   1.501 -0.3830  0.2453  0.1278
 7325W        W22794  11.676   4.767   4.143  0.1538  0.1539 -0.2979
 7326W        W22795  16.656  16.186   0.186 -0.1156  0.3054 -0.1799
 7327W        W22796   0.008   6.421   1.713  0.0114  0.0691 -0.0489
 7328W        W22797  18.063   8.232  15.510 -0.0139 -0.5081 -0.0758
 7329W        W22798  14.245  17.610   1.418 -0.2310  0.2050 -0.0671
 7330W        W22799   8.079  10.532   0.660  0.0785 -0.3359 -0.3295
 7331W        W22800   9.922  13.887   1.983  0.2832  0.0531 -0.3957
 7332W        W22801   1.018   7.728   0.792  0.0775  0.1161 -0.2670
 7333W        W22802  14.239   7.320   1.898 -0.1507 -0.0206  0.1033
 7334W        W22803  16.555   4.642  13.084 -0.1735  0.2631 -0.2793
 7335W        W22804  12.147  17.417   0.342 -0.1194  0.4148 -0.1513
 7336W        W22805  11.643   5.839  11.365 -0.1289 -0.2149 -0.1612
 7337W        W22806   4.911   5.130  12.778 -0.0361 -0.0690 -0.1547
 7338W        W22807  15.880   8.944   2.273 -0.1027  0.0281 -0.0292
 7339W        W22808  12.081   5.316   2.202  0.2083  0.0977  0.1854
 7340W        W22809  13.973  17.113   2.730 -0.0830  0.1456 -0.2874
 7341W        W22810   1.197  16.352  13.349 -0.1950 -0.0351 -0.0183
 7342W        W22811   7.776  10.781  11.567 -0.0619  0.2664 -0.3290
 7343W        W22812   5.274   2.325  12.262 -0.1931 -0.1764 -0.0321
 7344W        W22813   5.267  10.950   1.710 -0.2582 -0.1564 -0.0796
 7345W        W22814  15.927   6.039  10.525  0.1348  0.1559  0.0001
 7346W        W22815   7.472   9.217   5.929 -0.4022  0.0516  0.3324
 7347W        W22816   6.336   3.475   4.693 -0.2639 -0.0741  0.0595
 7348W        W22817  13.369   0.983   0.215 -0.0770  0.1046 -0.0163
 7349W        W22818   8.577   6.108   1.567  0.0126  0.0983 -0.0663
 7350W        W22819   2.330  17.170   2.654 -0.2742 -0.0188 -0.1216
 7351W        W22820   6.658   3.477   5.140  0.0724 -0.1006 -0.0048
 7352W        W22821   2.614  13.631  14.448 -0.1162 -0.0229  0.0840
 7353W        W22822   0.426  12.634  11.591  0.2738 -0.1020  0.1009
 7354W        W22823  18.165  11.940  14.212 -0.3069 -0.3408 -0.1470
 7355W        W22824   5.577   3.370  11.447  0.0364 -0.0941 -0.2259
 7356W        W22825  15.633  11.560  12.935 -0.0659  0.1384  0.0558
 7357W        W22826  15.052  17.240   2.521 -0.1268 -0.0397 -0.1364
 7358W        W22827   9.050  12.480   0.054 -0.0919 -0.1882 -0.0476
 7359W        W22828   4.535  16.155  14.115  0.1414 -0.1006 -0.1891
 7360W        W22829  13.330   1.845  13.929 -0.1930  0.1750  0.2777
 7361W        W22830   1.159   0.388   5.421  0.0551 -0.3563 -0.2131
 7362W        W22831   4.324   4.162   4.222 -0.0751  0.0469 -0.3124
 7363W        W22832  16.955   1.311   5.068 -0.0422  0.1737 -0.1473
 7364W        W22833  14.391   9.728   2.018 -0.3108  0.0652  0.2165
 7365W        W22834   6.375  16.019   1.575 -0.4730 -0.1459 -0.1429
 7366W        W22835   7.308  16.092   1.927  0.2206 -0.0537  0.0366
 7367W        W22836  11.838   5.928  15.339  0.0998 -0.3269 -0.0131
 7368W        W22837  15.540   8.232   1.288  0.1407  0.0192  0.0793
 7369W        W22838   6.256  14.126  14.213  0.1372 -0.2031  0.0367
 7370W        W22839   1.773   2.011  12.612 -0.0798 -0.0292 -0.0444
 7371W        W22840  12.217   9.422  13.970 -0.0717  0.1499  0.2457
 7372W        W22841   6.719  12.252  11.861  0.0614 -0.1152 -0.4069
 7373W        W22842  17.052  16.041   0.595 -0.1699 -0.1072 -0.1660
 7374W        W22843   9.735   3.884  15.999  0.1336 -0.2190  0.1800
 7375W        W22844   6.187  18.119  15.183 -0.0571  0.2364  0.0296
 7376W        W22845   5.309   5.080  12.477 -0.1156  0.0107 -0.1442
 7377W        W22846   2.502  13.871   4.747 -0.2796 -0.0415  0.1133
 7378W        W22847   2.773   5.716  11.352  0.0203 -0.0289  0.0570
 7379W        W22848  16.624   0.441   0.480  0.0107 -0.3038 -0.1201
 7380W        W22849   5.051   3.346  13.644  0.1391  0.3153 -0.0546
 7381W        W22850   7.115  14.646  14.855 -0.0349  0.0243 -0.1141
 7382W        W22851   6.376  10.316   1.586  0.0578  0.0597  0.2894
 7383W        W22852   2.998  17.169   3.608 -0.2129  0.1722 -0.0464
 7384W        W22853   7.665  13.508   2.590 -0.1455 -0.3395  0.2162
 7385W        W22854  14.981   8.477   0.874  0.0010 -0.1202 -0.1964
 7386W        W22855  12.134  14.167   4.328 -0.0398  0.0845  0.1017
 7387W        W22856  16.546  12.767  13.755 -0.3026 -0.1532  0.0986
 7388W        W22857   6.503  15.741  15.057 -0.0878 -0.2680  0.2408
 7389W        W22858  18.078  12.396  15.014 -0.0535  0.1005 -0.1181
 7390W        W22859   6.377  10.690   3.548 -0.1301  0.0123  0.0442
 7391W        W22860   3.635   9.445  15.677  0.1474  0.0387  0.2069
 7392W        W22861   1.701  14.836  12.118  0.4968 -0.1016 -0.2080
 7393W        W22862  18.012  14.163   4.268  0.2080  0.2004 -0.1094
 7394W        W22863  17.399  10.946   5.927  0.1267 -0.1067  0.2022
 7395W        W22864   9.871   2.845  14.446 -0.1826  0.1907  0.2290
 7396W        W22865   9.734   1.671   4.855  0.1731 -0.0179  0.0416
 7397W        W22866  16.014   0.229  14.628 -0.3420 -0.0076 -0.1237
 7398W        W22867   9.986   9.763  13.024  0.0544  0.0179 -0.1269
 7399W        W22868  13.806  10.525  12.766 -0.1331 -0.0947  0.0715
 7400W        W22869  17.565   0.793  11.496 -0.0039  0.0493  0.1627
 7401W        W22870   1.202   4.168   1.565  0.0772 -0.1897 -0.2004
 7402W        W22871   2.071  16.286   1.759  0.0533  0.0046 -0.0149
 7403W        W22872  11.192   1.933  12.203 -0.3531 -0.0820 -0.1589
 7404W        W22873  14.696   3.313  15.980 -0.1931 -0.1469  0.1958
 7405W        W22874   6.849   4.565  13.376  0.0237  0.2986 -0.3322
 7406W        W22875  13.395  13.369   1.918 -0.0153  0.2273  0.2221
 7407W        W22876   2.033   9.531  12.887  0.0551  0.0449 -0.0992
 7408W        W22877  13.023   8.718  13.077  0.0986  0.1724 -0.0912
 7409W        W22878   2.851  10.299  11.798  0.2102 -0.1104 -0.0943
 7410W        W22879  13.594  14.494   5.309  0.1490 -0.0814  0.1757
 7411W        W22880  11.846  17.782  13.268 -0.2214  0.1955 -0.4585
 7412W        W22881   6.501   3.957   5.812  0.0893  0.1228  0.0876
 7413W        W22882  14.228  13.574  12.022 -0.0642  0.0278  0.0399
 7414W        W22883   4.899   2.876   3.930  0.0876  0.2810  0.0702
 7415W        W22884  13.980   5.079  11.131 -0.0291  0.0888 -0.0126
 7416W        W22885   2.695  12.466  14.504  0.3205 -0.2651  0.0133
 7417W        W22886   6.388  14.348  13.762 -0.1266  0.2208 -0.3589
 7418W        W22887   1.820   5.295  12.035 -0.1494 -0.2463 -0.0925
 7419W        W22888   1.427   5.661   4.382  0.2786 -0.1223 -0.1655
 7420W        W22889   0.307  16.085  15.562  0.0867  0.0150 -0.0112
 7421W        W22890   0.923  11.758  15.024  0.1628  0.0200 -0.0794
 7422W        W22891   9.519  15.515   1.050  0.3373  0.0116 -0.0245
 7423W        W22892  10.400  16.138   5.090 -0.1213  0.0049 -0.0502
 7424W        W22893  10.242  16.464  15.805  0.3469 -0.1769  0.0471
 7425W        W22894  12.847  11.740  13.774  0.0157 -0.1980 -0.0624
 7426W        W22895   9.142  13.964   4.170  0.1414  0.0142 -0.1391
 7427W        W22896   8.839  15.282  14.415 -0.1722  0.2855 -0.0878
 7428W        W22897   2.827  17.402   0.446  0.0524  0.2079 -0.1083
 7429W        W22898   5.494  14.676  12.860  0.0836  0.0582 -0.1639
 7430W        W22899   6.469  18.221   0.603  0.1315  0.0286 -0.0968
 7431W        W22900   0.915   1.850   4.045  0.0896  0.2855 -0.1652
 7432W        W22901   8.743   5.698   4.934 -0.2635 -0.2351  0.1815
 7433W        W22902  15.799   3.116   4.586  0.0605 -0.3545  0.2717
 7434W        W22903  13.110   4.464   2.374  0.2596 -0.0151  0.0530
 7435W        W22904  12.609   7.071  12.356 -0.0947 -0.0221 -0.3114
 7436W        W22905   8.893   3.106  12.762  0.3691 -0.0601  0.0787
 7437W        W22906   7.971  17.587  11.330  0.0012  0.3581  0.0044
 7438W        W22907   6.624   9.681   2.163 -0.0017 -0.0782  0.0194
 7439W        W22908   2.872   7.176  11.377 -0.0336  0.0944  0.2719
 7440W        W22909  11.823   1.788   4.819 -0.0341 -0.0141  0.2592
 7441W        W22910   2.656   2.422   2.504 -0.1142 -0.0946  0.0418
 7442W        W22911   6.343   4.232  12.749 -0.0803  0.1738  0.0355
 7443W        W22912   8.928   4.594   4.764 -0.0662 -0.0121 -0.0728
 7444W        W22913  10.910  16.889  14.886 -0.1629  0.1276 -0.0464
 7445W        W22914  14.816   7.324  15.205  0.2023 -0.1277  0.0695
 7446W        W22915   6.167  18.159  11.736  0.0086 -0.2875 -0.3199
 7447W        W22916   2.748   2.514  14.364 -0.0356  0.0470  0.0277
 7448W        W22917   5.240  11.951  11.503 -0.1591 -0.2873 -0.2142
 7449W        W22918  10.330  11.822   3.475 -0.0810  0.2647 -0.1244
 7450W        W22919   8.585   4.211  11.866  0.0616 -0.1656 -0.2718
 7451W        W22920   9.699   7.428  15.404  0.1194 -0.0604 -0.2071
 7452W        W22921   7.735  11.649   1.843 -0.2058  0.0354 -0.1593
 7453W        W22922   2.893   7.993   0.283 -0.3803 -0.1595  0.2896
 7454W        W22923  16.144  10.766  13.096  0.0752 -0.2255  0.0407
 7455W        W22924   3.978  12.310  10.540 -0.0498 -0.0213  0.1397
 7456W        W22925   4.222   3.968   1.700  0.2562 -0.0677 -0.0904
 7457W        W22926  14.080  14.110  15.938  0.0197 -0.1023  0.1291
 7458W        W22927  10.291  13.159   2.620  0.0576 -0.0355  0.3705
 7459W        W22928   4.171   2.142   5.336  0.0402 -0.1477 -0.0763
 7460W        W22929  11.725  15.491   2.217  0.1249  0.0735 -0.2169
 7461W        W22930   6.581  16.215  14.170 -0.2799 -0.0795 -0.3130
 7462W        W22931  17.634  17.369   5.063 -0.0885  0.1512 -0.0734
 7463W        W22932   3.400   8.629   0.272  0.1551  0.1427  0.0714
 7464W        W22933  16.570   7.906   2.589  0.2766  0.1014 -0.1219
 7465W        W22934   7.852  11.483   2.366  0.2164 -0.3352 -0.1650
 7466W        W22935   0.314   7.397  14.436  0.1893 -0.3656 -0.1878
 7467W        W22936  16.367  16.856   1.557  0.1784  0.0488 -0.1309
 7468W        W22937   3.495  10.769   5.345 -0.2336  0.2133  0.0024
 7469W        W22938   2.728  16.168   0.003 -0.0727  0.0407 -0.0705
 7470W        W22939   0.576  12.913   4.142 -0.0034  0.1339 -0.0579
 7471W        W22940  14.352  15.381  12.107 -0.0639  0.0727  0.1440
 7472W        W22941   0.014   2.789   4.463  0.2584  0.1463  0.2412
 7473W        W22942  13.774  14.035   5.320  0.0120 -0.2232 -0.2140
 7474W        W22943   8.821   3.403  15.230  0.0873 -0.0971 -0.1979
 7475W        W22944  17.466  17.546   1.364 -0.1211  0.0588 -0.0408
 7476W        W22945  13.352   0.090   3.229  0.0662  0.0682  0.2933
 7477W        W22946  12.262   1.471   1.475 -0.2655 -0.2653  0.2239
 7478W        W22947  13.122  13.849  14.710  0.0910 -0.2235 -0.1803
 7479W        W22948  15.859  15.199   5.539 -0.0693  0.0543  0.4087
 7480W        W22949  10.722  17.704   5.281  0.0452  0.1744  0.0827
 7481W        W22950  16.403   7.832  10.947 -0.0298 -0.0284  0.1089
 7482W        W22951  10.610  13.385  12.111 -0.3794  0.1691 -0.3314
 7483W        W22952   0.700  10.510   1.473  0.0192  0.1556 -0.0695
 7484W        W22953   1.103  15.821  13.091  0.5850 -0.1523 -0.1734
 7485W        W22954   6.414   8.131   3.688 -0.1224  0.1633 -0.0470
 7486W        W22955   8.763   8.566   2.012 -0.1563 -0.1044  0.0284
 7487W        W22956   4.144   9.477  15.897  0.0649  0.1314  0.1517
 7488W        W22957  14.536  11.903  14.958  0.0121 -0.1465 -0.0817
 7489W        W22958  11.988  10.882   5.647  0.0650 -0.2337  0.2080
 7490W        W22959   6.215  14.560   0.202 -0.0571 -0.0889  0.3118
 7491W        W22960   4.325   8.410   0.830 -0.1196  0.0826  0.3958
 7492W        W22961  16.042  15.547  12.710  0.0446 -0.0036 -0.0672
 7493W        W22962  14.098   2.652  15.058 -0.0318  0.1017 -0.0816
 7494W        W22963  15.643   0.666   4.006 -0.0407 -0.2774 -0.0636
 7495W        W22964   6.950  16.724  15.513 -0.3135  0.2163 -0.0504
 7496W        W22965   1.952  16.040  16.173  0.0614 -0.0988 -0.1824
 7497W        W22966  15.229  14.922  15.959 -0.1823 -0.3886 -0.0285
 7498W        W22967   9.715   9.656   0.956  0.0779  0.0777  0.0003
 7499W        W22968   8.717   1.817   2.092 -0.0157 -0.0740 -0.1531
 7500W        W22969   1.692  11.816   2.482 -0.0410 -0.1773 -0.0479
 7501W        W22970   3.534  16.375   0.545 -0.2285  0.4691 -0.1849
 7502W        W22971   7.770   9.216  11.327 -0.2663 -0.3525 -0.0672
 7503W        W22972  16.300   2.144   0.325  0.0018  0.1045  0.0329
 7504W        W22973  12.384   3.771  13.135  0.0943 -0.1814  0.0408
 7505W        W22974   0.541   9.362  13.904 -0.1448  0.2202 -0.1618
 7506W        W22975  16.233  13.739   4.679  0.1656  0.1075  0.1322
 7507W        W22976  13.811  17.172   3.397 -0.1072 -0.0086  0.1503
 7508W        W22977  10.124   7.729  11.659 -0.3029  0.2474 -0.1336
 7509W        W22978  15.199   5.528   4.981 -0.2877 -0.1773  0.0317
 7510W        W22979  17.642   3.603   3.199 -0.3091  0.1223 -0.1154
 7511W        W22980   4.093  10.906  14.160  0.1234 -0.0252 -0.0622
 7512W        W22981   4.896   6.938  13.007  0.1246  0.1501  0.0062
 7513W        W22982   6.339   7.057   2.572  0.0650  0.0705 -0.0182
 7514W        W22983   4.272   8.825   4.346 -0.0870 -0.0652 -0.3394
 7515W        W22984   3.767  13.513   1.954 -0.1283  0.1066 -0.2152
 7516W        W22985   5.640  10.458   4.197  0.4084  0.1463  0.1520
 7517W        W22986   3.957   3.759   3.442 -0.0516  0.1335 -0.0474
 7518W        W22987   4.381   6.604   0.722  0.0158  0.2667  0.0716
 7519W        W22988   4.023   3.876  11.951  0.1742  0.1856  0.0291
 7520W        W22989  17.174  11.132   0.311 -0.1795  0.0007  0.0757
 7521W        W22990   1.744   4.193  12.689  0.2373  0.1205  0.0081
 7522W        W22991   5.599  15.725  14.889 -0.0490  0.0401  0.2451
 7523W        W22992   5.539  10.923  12.705  0.1378  0.1145  0.0193
 7524W        W22993  17.177   1.784  15.330 -0.2848 -0.0586  0.4359
 7525W        W22994  11.118   0.006   1.548  0.1785 -0.0022  0.1387
 7526W        W22995   1.718   0.376  13.884 -0.1531  0.0662 -0.0753
 7527W        W22996   0.857   2.040  11.972  0.0710 -0.0514 -0.2288
 7528W        W22997   0.274  13.693   5.617  0.0043 -0.0838  0.1512
 7529W        W22998   4.601   2.146   5.105 -0.5266 -0.2106  0.0635
 7530W        W22999   7.840   2.214   6.181  0.1732 -0.0990  0.1866
 7531W        W23000   3.646  15.378  10.805  0.0144  0.0456 -0.2195
 7532W        W23001   5.355  17.943  13.886  0.1538  0.2015  0.2306
 7533W        W23002   2.994   3.908   4.405 -0.2065 -0.1916  0.2437
 7534W        W23003   9.072  10.387   4.123 -0.0776 -0.1515  0.1589
 7535W        W23004  10.102  11.027  13.845  0.2029 -0.0161 -0.2094
 7536W        W23005  15.738  12.389  12.423 -0.1293  0.0337  0.0396
 7537W        W23006   7.474  11.394  14.600  0.0346 -0.0673  0.4069
 7538W        W23007   7.296   7.258  13.167 -0.2902 -0.0218  0.3868
 7539W        W23008   6.716   6.983   0.473  0.1547  0.2308 -0.2323
 7540W        W23009   8.614  11.007   1.991 -0.2592  0.2899  0.1168
 7541W        W23010  15.611  10.858   1.946 -0.0238 -0.1977 -0.1593
 7542W        W23011  11.708   2.455   3.672  0.3570  0.0144 -0.5021
 7543W        W23012   5.927   7.035   1.514  0.1202  0.2038 -0.2927
 7544W        W23013   5.306  16.231   0.521 -0.0621 -0.2383  0.0827
 7545W        W23014   4.777   0.081  15.733  0.1671 -0.1346 -0.0273
 7546W        W23015   9.846   0.671   5.228  0.0166  0.2415  0.3277
 7547W        W23016  11.788   5.922  15.911  0.0193  0.0490  0.0970
 7548W        W23017   8.012  17.886   3.765 -0.0491 -0.0942  0.1372
 7549W        W23018  10.014   3.871  15.085  0.1340  0.5616  0.4746
 7550W        W23019  16.128   7.920   5.087 -0.1353  0.1834 -0.1460
 7551W        W23020  15.861   2.793  15.234  0.1593  0.1258  0.2413
 7552W        W23021  16.494   9.077  12.434  0.1423 -0.2741 -0.0586
 7553W        W23022  10.921  15.680   0.031 -0.0957  0.2313  0.2134
 7554W        W23023  14.119   6.433  15.534  0.1970 -0.1833  0.0889
 7555W        W23024   2.410   3.278  15.664  0.0305 -0.2557 -0.0828
 7556W        W23025  16.808  11.863  11.599  0.1177  0.2850 -0.1604
 7557W        W23026   4.821   6.280   0.735  0.0754 -0.2597 -0.2149
 7558W        W23027  12.055   0.875   4.735  0.0476 -0.0107 -0.1889
 7559W        W23028   4.944   2.936  13.347  0.0979  0.2560 -0.0459
 7560W        W23029   0.264  12.359  11.185  0.0578 -0.0117  0.2599
 7561W        W23030  16.656  14.565  10.894 -0.1607  0.0252  0.2189
 7562W        W23031   7.974  16.987   2.918 -0.0745  0.2122  0.0791
 7563W        W23032   8.611   6.461   0.514 -0.2387  0.2167  0.1260
 7564W        W23033   0.710  14.685  11.756  0.0187 -0.1872  0.0827
 7565W        W23034   0.948   3.656   1.484  0.0595 -0.0146  0.1074
 7566W        W23035   6.046   2.995  12.210  0.1220  0.1373 -0.1777
 7567W        W23036  10.786   0.123  13.989 -0.0926 -0.0027  0.2536
 7568W        W23037  14.865   4.666   2.110  0.0768 -0.0172 -0.2047
 7569W        W23038   1.595  13.488   3.291  0.0421 -0.2004 -0.1407
 7570W        W23039  13.920   2.964   1.634 -0.0555 -0.2784 -0.1486
 7571W        W23040   4.723  14.741  12.543 -0.0631  0.0503 -0.1962
 7572W        W23041   4.567   0.848  13.112 -0.0832  0.2555 -0.0630
 7573W        W23042  14.120   0.418   4.777 -0.2424 -0.1324 -0.2473
 7574W        W23043   6.679  10.539  12.283  0.1878 -0.0182 -0.2009
 7575W        W23044  17.161   6.099  11.961  0.3471  0.0391  0.1955
 7576W        W23045   1.739  13.874  12.265  0.1072  0.1521  0.1395
 7577W        W23046  11.983  15.875  12.120  0.1208 -0.1478 -0.1566
 7578W        W23047   1.748  17.922   3.363 -0.0949 -0.2383  0.3357
 7579W        W23048   2.398  10.943  12.056  0.0054  0.0314  0.0610
 7580W        W23049  14.940   4.697  12.828 -0.0951  0.1265 -0.0515
 7581W        W23050   6.190  14.185   3.819 -0.3974  0.1276 -0.0013
 7582W        W23051   6.364  13.735  12.958  0.2586  0.1587  0.0475
 7583W        W23052   8.291   1.257   6.033 -0.1255 -0.0206 -0.1700
 7584W        W23053   9.477   3.517  15.181 -0.3753  0.1529  0.1808
 7585W        W23054   5.203  12.316  11.860  0.1312  0.0041 -0.1396
 7586W        W23055  13.879   1.211   1.197 -0.1071  0.1661 -0.1065
 7587W        W23056  13.377   4.765  10.234  0.0341 -0.0231  0.0711
 7588W        W23057  14.324   1.051  14.150 -0.0449  0.2117  0.0787
 7589W        W23058  15.926  14.295  12.117  0.0856 -0.1759  0.2319
 7590W        W23059   3.933   7.549   3.198 -0.3377 -0.1801 -0.1298
 7591W        W23060   3.588   0.137   1.865  0.0208  0.1295  0.0321
 7592W        W23061  11.662   3.022   2.124 -0.0885 -0.0861 -0.1165
 7593W        W23062   0.950   6.094  12.164 -0.2177 -0.1799  0.0498
 7594W        W23063  17.238   7.245   1.726  0.2661 -0.4210 -0.5070
 7595W        W23064  17.938   6.674   5.365  0.1260  0.5057  0.2490
 7596W        W23065   2.664   7.590  15.766 -0.2427 -0.0046 -0.1319
 7597W        W23066  14.574  11.294   9.904  0.0083 -0.1089  0.1675
 7598W        W23067  12.433  15.518   4.687 -0.1319 -0.3167 -0.0666
 7599W        W23068   2.442   8.854   5.575  0.0922 -0.2423  0.1499
 7600W        W23069   8.196   7.194  13.807 -0.0844 -0.1933 -0.0987
 7601W        W23070   6.060   8.293  13.733 -0.0481 -0.1107 -0.0151
 7602W        W23071  12.500   6.519   3.724 -0.0601 -0.0791 -0.1985
 7603W        W23072  10.540  17.125  14.708 -0.0728 -0.0502 -0.3109
 7604W        W23073  15.492   3.996  13.505  0.0582  0.2250  0.1434
 7605W        W23074  11.463   3.289   4.155 -0.3324 -0.1489 -0.2519
 7606W        W23075   7.068   6.787  13.843 -0.1861 -0.1244 -0.0688
 7607W        W23076  16.497   4.178  16.099  0.2259 -0.1025  0.0054
 7608W        W23077   4.764   2.391  14.016 -0.1593 -0.2025  0.4761
 7609W        W23078  17.141   4.399   1.917  0.0168  0.1146  0.3298
 7610W        W23079   5.794  10.818   1.870 -0.1146 -0.0028  0.0090
 7611W        W23080  14.867  15.886  13.244  0.1061  0.1981  0.1716
 7612W        W23081   1.854   9.792  15.891  0.1892  0.2335 -0.1655
 7613W        W23082  13.146   6.872  14.039 -0.1164  0.0669  0.4596
 7614W        W23083   1.184   0.880   5.554 -0.0118 -0.0382  0.1757
 7615W        W23084   7.490   4.012   3.429  0.1490 -0.0358 -0.1133
 7616W        W23085   4.872  18.012  11.243 -0.0899 -0.0597  0.0719
 7617W        W23086   9.044   6.944  14.099 -0.1765 -0.1708 -0.1052
 7618W        W23087   9.783   2.277  12.315  0.1011 -0.1023 -0.4141
 7619W        W23088   8.089   8.091   6.600  0.0007  0.1532 -0.0110
 7620W        W23089   6.809  14.858  15.653 -0.2197  0.2011 -0.2987
 7621W        W23090  17.511  11.678   2.271  0.2943  0.0234 -0.1353
 7622W        W23091   1.884  15.221   2.964  0.1149 -0.1023 -0.0700
 7623W        W23092   3.327   9.521  13.735 -0.0440 -0.1611 -0.0766
 7624W        W23093  14.062   5.599   4.293 -0.1937  0.0077  0.2325
 7625W        W23094  15.504   9.541   5.183  0.0087 -0.4480  0.0806
 7626W        W23095   3.767  14.439  10.776  0.0550 -0.0422  0.0605
 7627W        W23096  14.317   3.126  15.210 -0.0088  0.1411  0.1569
 7628W        W23097  12.043  13.077   3.890  0.1846  0.3085 -0.2473
 7629W        W23098  16.562  15.044  13.917  0.1069  0.0729 -0.1468
 7630W        W23099  10.138  17.633  15.536 -0.0188 -0.1636 -0.1589
 7631W        W23100  11.389   7.204   3.687  0.0629 -0.3106 -0.1009
 7632W        W23101   3.975  12.087   4.914  0.2312  0.2079  0.0065
 7633W        W23102  14.933   9.235  15.901 -0.1872  0.0811 -0.4829
 7634W        W23103   7.627   3.582   2.175 -0.1551 -0.1273  0.2889
 7635W        W23104  16.196   5.176  11.219  0.0731 -0.1814 -0.0151
 7636W        W23105   0.597   5.156  11.977  0.1203  0.0267  0.4094
 7637W        W23106  16.992   6.468  14.934  0.0522  0.1839  0.0597
 7638W        W23107  17.563  17.216   3.545 -0.1056  0.1126  0.1075
 7639W        W23108  17.499   7.549   0.380  0.0774 -0.2784  0.2010
 7640W        W23109  16.000   9.030  11.222 -0.0090  0.1426  0.1558
 7641W        W23110   1.182  10.707   0.938  0.0034  0.1668  0.1337
 7642W        W23111  17.598  13.874   4.042 -0.1323 -0.4343 -0.1063
 7643W        W23112  17.545   0.357  15.193 -0.0460 -0.2460 -0.1643
 7644W        W23113  17.963  12.855   1.381 -0.0230  0.1451 -0.0348
 7645W        W23114   5.061   4.670  16.073 -0.0703  0.2147 -0.0408
 7646W        W23115  11.957   3.673  14.618  0.0276 -0.1878  0.0092
 7647W        W23116  15.666   0.652  11.092 -0.0598  0.1685  0.0381
 7648W        W23117  15.299  14.512  12.553  0.1525 -0.2534 -0.1719
 7649W        W23118   2.860   6.656  11.550  0.2601 -0.2049 -0.0746
 7650W        W23119  10.305   1.862  15.108 -0.1188 -0.1683  0.1481
 7651W        W23120   8.097   0.664   1.636  0.2060  0.0282  0.1837
 7652W        W23121  14.851   2.297  12.961  0.2542 -0.2648  0.0543
 7653W        W23122   7.405   4.613   5.626  0.2945 -0.1925  0.1990
 7654W        W23123   4.318   3.735  15.598 -0.1102 -0.1518 -0.2986
 7655W        W23124   3.473  13.371   3.930  0.0795 -0.2245  0.0296
 7656W        W23125   1.218  10.600   2.794  0.2271 -0.1306  0.0658
 7657W        W23126  12.857   2.522  13.230 -0.2937  0.3239 -0.0799
 7658W        W23127  17.765   3.780   5.354  0.0061 -0.1051  0.2335
 7659W        W23128  14.526  14.744   5.290 -0.3014 -0.3683  0.2079
 7660W        W23129   8.165   1.818  12.121 -0.3197  0.1824 -0.2746
 7661W        W23130   0.972   6.307   0.728 -0.1938 -0.3145 -0.1132
 7662W        W23131  18.168  14.294   1.490 -0.0609 -0.0478 -0.0044
 7663W        W23132   1.771   6.177   2.515  0.0812  0.1295 -0.1621
 7664W        W23133  17.213   8.490   0.982 -0.2447 -0.0360 -0.0772
 7665W        W23134  17.922   8.123  14.616 -0.0643  0.0837 -0.4651
 7666W        W23135   3.767   5.456  14.181 -0.3210 -0.1373 -0.1306
 7667W        W23136  12.909   2.442   2.684 -0.3518  0.0005 -0.3080
 7668W        W23137  12.941  16.019   2.050 -0.1662 -0.0510 -0.3099
 7669W        W23138  15.800   4.646  15.812 -0.1324  0.0629 -0.1798
 7670W        W23139   4.114  14.910  13.218  0.0999 -0.0525  0.4409
 7671W        W23140  13.400  11.103  11.718 -0.1519  0.2812  0.0896
 7672W        W23141  14.941  12.019  14.622 -0.2860  0.2015  0.2818
 7673W        W23142   6.625  15.351  13.138  0.1339  0.1572 -0.0133
 7674W        W23143   6.319   5.311   2.694  0.4586 -0.3465 -0.2072
 7675W        W23144  11.792  11.964   1.468  0.0393 -0.0503 -0.2670
 7676W        W23145   9.509   8.311  13.710 -0.0038 -0.0201 -0.1086
 7677W        W23146  10.698   2.397  13.842 -0.1370  0.2712  0.2925
 7678W        W23147  11.113   3.345   1.839  0.0263 -0.0011 -0.2581
 7679W        W23148  14.577  13.174   4.287  0.2017 -0.0501 -0.0737
 7680W        W23149  14.194  16.754   1.039 -0.0485  0.1113  0.3603
 7681W        W23150  17.748   5.095  13.852 -0.2017  0.1218  0.0559
 7682W        W23151  14.425  13.638   0.497  0.1752  0.0622  0.0826
 7683W        W23152   2.178  13.198   2.543  0.1021  0.0161 -0.0702
 7684W        W23153  12.938  11.071  11.954  0.1977  0.0272 -0.0210
 7685W        W23154  11.817   7.742   5.415 -0.1081 -0.0486  0.1551
 7686W        W23155  14.362  10.680   4.262  0.2668 -0.2140 -0.0959
 7687W        W23156  13.424   8.003   0.248  0.1211 -0.1580 -0.1214
 7688W        W23157   4.116   6.586   3.855  0.0290  0.0151 -0.0922
 7689W        W23158   0.121  10.299  12.531  0.1600 -0.1358 -0.1820
 7690W        W23159  12.356   0.358  14.710 -0.2068 -0.1219 -0.0062
 7691W        W23160  17.399  11.993   1.228  0.0701 -0.0744 -0.0418
 7692W        W23161  15.127  16.670   3.939  0.0664  0.1449  0.0522
 7693W        W23162  14.624   7.687  13.250 -0.0040  0.0701  0.3010
 7694W        W23163  10.878   4.784   0.248  0.4714 -0.0200 -0.0812
 7695W        W23164  10.595   3.736   5.207 -0.0038 -0.2616 -0.3295
 7696W        W23165   3.428   1.557   4.194  0.2231  0.2290  0.2422
 7697W        W23166   4.202   0.891  15.987 -0.0106 -0.1317  0.0351
 7698W        W23167  11.432  10.987  10.434 -0.1872  0.2190 -0.3938
 7699W        W23168   7.975  14.689   1.468 -0.3988 -0.4119  0.0163
 7700W        W23169  16.592  11.601  13.376 -0.1287 -0.1235  0.0347
 7701W        W23170   1.410  14.680  13.775  0.4349 -0.1888 -0.0382
 7702W        W23171  14.028  17.216   5.093  0.1258  0.0170  0.0380
 7703W        W23172   9.284  13.386   1.068  0.4278  0.1648 -0.2534
 7704W        W23173   3.285  16.883  14.749 -0.1533 -0.0380 -0.0562
 7705W        W23174   3.275  15.076  11.159  0.1613 -0.1754  0.1151
 7706W        W23175   0.041  16.453  11.960  0.0986 -0.0953 -0.0304
 7707W        W23176  16.185   1.546  12.019  0.2499  0.1506 -0.0132
 7708W        W23177  15.257  17.637  13.588  0.1060  0.3323  0.0654
 7709W        W23178   7.350  14.076  11.625  0.3061  0.0749  0.0321
 7710W        W23179   3.861  12.108   3.054  0.0016  0.1704  0.1051
 7711W        W23180  17.857  16.911   1.747 -0.0444 -0.1091 -0.3009
 7712W        W23181   4.894  17.388   0.543  0.0522  0.3698  0.2405
 7713W        W23182  13.406   8.705   2.046  0.1802  0.1446  0.0253
 7714W        W23183   8.713   8.505  14.729  0.2830  0.1093  0.0257
 7715W        W23184   4.028  11.280   2.563 -0.0789  0.2624  0.0486
 7716W        W23185  11.762  13.425   0.447 -0.0241 -0.0696  0.2649
 7717W        W23186  16.657   3.225  15.436 -0.1410  0.0414 -0.4082
 7718W        W23187   5.340   7.281  12.773  0.0451  0.1341 -0.1185
 7719W        W23188   7.466  15.246  15.554  0.0642 -0.0943  0.0031
 7720W        W23189  16.810   6.971   0.190 -0.1209 -0.0935 -0.0721
 7721W        W23190  15.582   3.506   4.288 -0.2173  0.1471 -0.1376
 7722W        W23191   9.652  12.891  11.520  0.2328 -0.1179  0.0423
 7723W        W23192  11.277   8.345   1.135 -0.3216 -0.2124 -0.0189
 7724W        W23193  10.164  17.344  14.460 -0.0635  0.3667 -0.1511
 7725W        W23194   5.519   0.409   0.149 -0.0397 -0.0011 -0.0701
 7726W        W23195   1.491  15.492  15.974  0.1299 -0.3338 -0.1299
 7727W        W23196   1.058  11.929  12.613 -0.1441 -0.1497  0.1824
 7728W        W23197   6.728  11.409  12.200  0.1551  0.0353 -0.0717
 7729W        W23198  15.406   4.475  15.047  0.0409 -0.0369  0.3019
 7730W        W23199   3.757   9.190   1.037 -0.2758  0.0739 -0.0962
 7731W        W23200   7.472  16.976  13.804 -0.1524  0.1985  0.1999
 7732W        W23201   6.269   5.201   0.863  0.0938 -0.2482  0.4584
 7733W        W23202  12.825   3.530   2.041  0.1265  0.1134  0.0197
 7734W        W23203   4.155   2.379   3.480  0.0342 -0.1182  0.1612
 7735W        W23204  16.299  14.060  12.468 -0.4316 -0.0991 -0.2139
 7736W        W23205   3.963  15.196   3.635 -0.0499 -0.0977  0.0652
 7737W        W23206  15.913  10.769   4.849 -0.0095 -0.1749  0.1066
 7738W        W23207  16.910   4.367   2.951 -0.0078  0.2241 -0.2567
 7739W        W23208   7.436  17.803  15.911  0.2278  0.0608 -0.1468
 7740W        W23209   5.502  15.960  11.681  0.0289  0.1413  0.3697
 7741W        W23210   7.924  10.951   0.193 -0.4046  0.0471  0.0021
 7742W        W23211   5.843   1.138   1.355  0.1429  0.2115  0.0741
 7743W        W23212  17.997  15.555   0.499  0.1962 -0.3205 -0.0470
 7744W        W23213   9.378   8.705  11.913  0.0066 -0.1130  0.2529
 7745W        W23214   9.184  12.227   3.578 -0.1007 -0.3457  0.0473
 7746W        W23215   1.383   4.000   3.808  0.0678 -0.1013 -0.0397
 7747W        W23216   2.464  12.460   0.356  0.1491 -0.2994  0.2019
 7748W        W23217  10.521  10.776   2.042 -0.2639  0.1171 -0.0400
 7749W        W23218  13.348   0.835  14.316  0.0166  0.2793  0.0421
 7750W        W23219  10.788  10.448  11.097 -0.0851 -0.0948  0.3560
 7751W        W23220  16.948   8.023   1.641 -0.2851  0.1447  0.0066
 7752W        W23221   6.624   1.152  12.462 -0.0184 -0.4692 -0.0417
 7753W        W23222  13.927   3.169  14.091 -0.0444 -0.1249 -0.2682
 7754W        W23223   5.698   2.014  12.088  0.2232 -0.1270  0.1663
 7755W        W23224   5.419   0.088   4.781  0.0197 -0.2407 -0.0428
 7756W        W23225   8.962  11.097   4.800  0.1532 -0.2429  0.0703
 7757W        W23226   8.869   0.341  13.642 -0.1189 -0.0458 -0.0991
 7758W        W23227   3.646  13.539  14.410  0.0806  0.2170  0.1612
 7759W        W23228  14.230  16.253   4.968 -0.1581 -0.0015 -0.2018
 7760W        W23229  12.065   5.073   1.615  0.0402  0.0160  0.0903
 7761W        W23230  11.213  17.161  11.825 -0.2829  0.0831  0.1915
 7762W        W23231  15.440   1.486  14.810  0.1910 -0.1809 -0.0481
 7763W        W23232  16.227  18.116   1.006 -0.2185  0.2126 -0.1101
 7764W        W23233   6.390   4.588  14.883 -0.0057  0.3291  0.0719
 7765W        W23234  17.365  17.831  15.821 -0.0449 -0.0269  0.0723
 7766W        W23235   0.723  16.467  13.634  0.0240  0.0575 -0.0312
 7767W        W23236  14.468   1.527  14.114 -0.2016  0.3054 -0.1438
 7768W        W23237   5.694  13.179  10.847  0.1048  0.2037  0.4118
 7769W        W23238  17.010  15.899  15.761  0.0974  0.1972  0.0635
 7770W        W23239  16.468   4.244   3.123 -0.0798 -0.0797  0.3876
 7771W        W23240  11.920   1.877   5.304 -0.1040 -0.1807 -0.3819
 7772W        W23241  17.120  18.280  11.085 -0.0595 -0.1077 -0.2659
 7773W        W23242   4.873  11.789   4.923  0.1051 -0.0383  0.2877
 7774W        W23243  12.564  15.753  11.617 -0.0260  0.0381  0.1589
 7775W        W23244   0.005   1.364   3.957  0.1869 -0.1011 -0.1200
 7776W        W23245  16.229   3.238  15.107  0.2085  0.1735 -0.2992
 7777W        W23246  16.664   5.748   0.814 -0.0039  0.1230 -0.1613
 7778W        W23247   2.472   5.490   1.106 -0.2412  0.0105 -0.2521
 7779W        W23248  17.473  10.841   2.969 -0.1460 -0.0754 -0.2169
 7780W        W23249   2.010   0.746  12.194 -0.3466 -0.1487 -0.0204
 7781W        W23250   7.341   2.022   4.368  0.4361 -0.2393 -0.3665
 7782W        W23251   6.496   6.660   4.376 -0.4418  0.0429 -0.2040
 7783W        W23252  10.377   9.181   3.626 -0.2010 -0.1009  0.1714
 7784W        W23253  16.710  13.445   2.659 -0.0148  0.0997 -0.2502
 7785W        W23254   3.035  14.796  15.925 -0.0476  0.3156  0.1028
 7786W        W23255  10.341  10.306  10.710  0.3764 -0.1375  0.0743
 7787W        W23256   6.008   3.295   4.243 -0.3950  0.1015 -0.2252
 7788W        W23257   8.161  11.254   4.345 -0.0372  0.0345 -0.1944
 7789W        W23258  15.418   6.387  11.638  0.0837 -0.2165  0.0493
 7790W        W23259   2.308  14.096   3.357 -0.1848 -0.3312  0.0556
 7791W        W23260  18.187  15.902   0.964  0.0895  0.3171 -0.1312
 7792W        W23261   6.405   3.250  12.011 -0.1484 -0.1009  0.2372
 7793W        W23262   8.900   1.440  15.836  0.2797 -0.2370  0.0446
 7794W        W23263   4.609   3.923  12.277  0.1743 -0.0279  0.2246
 7795W        W23264  15.042   1.502  11.904 -0.1729  0.0015 -0.3615
 7796W        W23265   4.999   5.495   1.982  0.1672 -0.1404 -0.0823
 7797W        W23266   5.486   0.958   4.158 -0.1687 -0.1424 -0.3080
 7798W        W23267   3.253   7.322   4.250 -0.0471 -0.1599 -0.1594
 7799W        W23268   5.139   3.409   6.080  0.0576 -0.0659 -0.0413
 7800W        W23269  10.445   3.378  12.243 -0.0691 -0.2099  0.0667
 7801W        W23270   5.911   3.090  13.504  0.2523  0.0428 -0.2363
 7802W        W23271   6.904   8.961  14.741  0.3343 -0.1566 -0.1957
 7803W        W23272   5.726  18.018   1.758 -0.1457  0.3577  0.3515
 7804W        W23273  17.054   2.083  14.549 -0.1680 -0.1237 -0.1971
 7805W        W23274   1.621   5.833   1.345  0.2350 -0.0717 -0.0805
 7806W        W23275   5.882   4.256  13.509  0.2104  0.1620 -0.3270
 7807W        W23276  17.063   7.957   4.449  0.1446 -0.0148 -0.1737
 7808W        W23277   5.129  12.363  14.169  0.2760 -0.1282 -0.0354
 7809W        W23278  14.795  15.639  15.399 -0.1480 -0.3169  0.0792
 7810W        W23279   4.651  10.751  11.579  0.2675  0.0306 -0.0397
 7811W        W23280  17.912   3.391  11.998 -0.2763  0.4723  0.1195
 7812W        W23281   8.024  14.323  11.641 -0.2430 -0.0856 -0.5198
 7813W        W23282   2.168   3.503   0.977  0.2180 -0.4340 -0.2676
 7814W        W23283  12.592   4.067   1.221 -0.0214 -0.1675  0.2675
 7815W        W23284   9.048  13.985  15.084 -0.1810  0.0326  0.1642
 7816W        W23285  13.487  12.388   3.604  0.2240 -0.2514 -0.0082
 7817W        W23286   5.059   5.314   4.013 -0.0873  0.0774  0.0650
 7818W        W23287  15.357   1.037   4.251 -0.1044 -0.0274 -0.1818
 7819W        W23288   7.812   0.936   2.806 -0.1348 -0.1590  0.7133
 7820W        W23289  12.537  10.404  15.449  0.2205 -0.1988 -0.4808
 7821W        W23290  12.517  14.940  13.751 -0.1414  0.0995 -0.0349
 7822W        W23291  15.558   9.754   0.663 -0.1662 -0.3048  0.2945
 7823W        W23292   0.940   5.819  13.532 -0.0623 -0.3167 -0.1986
 7824W        W23293  14.420  11.298  13.683 -0.2094  0.2560  0.0098
 7825W        W23294   3.338  13.714  15.020 -0.3585 -0.0005 -0.0816
 7826W        W23295  17.545  16.481  11.716  0.1777 -0.0117 -0.1969
 7827W        W23296   0.159  13.661   0.876  0.1383 -0.0564  0.3383
 7828W        W23297  17.214  13.873  14.031 -0.0317 -0.2292 -0.0988
 7829W        W23298  13.087  12.476   4.580  0.0547  0.2638  0.0231
 7830W        W23299  11.895  12.075  15.916  0.0028  0.3650 -0.0419
 7831W        W23300   5.385   1.218  14.944  0.1978 -0.3804  0.0555
 7832W        W23301  13.900  12.477   3.252 -0.0866  0.3003 -0.4557
 7833W        W23302  17.234   8.003   0.067  0.2944 -0.2435  0.1070
 7834W        W23303   2.677   5.607   4.875  0.1077  0.0250 -0.1823
 7835W        W23304  11.044   2.613  13.309  0.1664  0.1523 -0.2176
 7836W        W23305   5.688   1.079  15.709  0.2224  0.1444 -0.1591
 7837W        W23306   4.006   7.503   1.009  0.1252 -0.0587 -0.0780
 7838W        W23307  14.890   4.074  10.270  0.0456  0.0874  0.1192
 7839W        W23308   2.973   0.469  13.537 -0.0845  0.0062  0.0909
 7840W        W23309  16.879   6.395   1.499  0.0851  0.0964  0.2076
 7841W        W23310  15.409  14.915  14.248 -0.2704  0.1837 -0.1911
 7842W        W23311  16.845   7.497  13.981  0.0775 -0.3129  0.2565
 7843W        W23312   1.879   7.948  13.829  0.0862 -0.2455  0.2590
 7844W        W23313  13.235   4.406   4.110 -0.0077 -0.2025  0.1049
 7845W        W23314   8.730   5.298   1.001  0.2923  0.2260  0.0917
 7846W        W23315   0.248  10.748  12.865  0.1191  0.4797  0.1747
 7847W        W23316  17.779  14.142   2.149 -0.2663  0.0868 -0.1310
 7848W        W23317  14.994  13.989   3.916 -0.2686 -0.0836 -0.3085
 7849W        W23318  11.857  17.115  15.076  0.1194 -0.2342  0.1667
 7850W        W23319   7.764   9.981   5.022  0.1263  0.0660 -0.0802
 7851W        W23320  13.101   7.064   2.620  0.0291  0.0054  0.0880
 7852W        W23321  13.835  17.858  14.259 -0.1286  0.1309  0.1664
 7853W        W23322  17.382   2.457   4.216 -0.0121  0.0537 -0.0265
 7854W        W23323  17.397   0.621  14.212  0.1030 -0.3604 -0.0325
 7855W        W23324   6.485   7.228  13.170  0.0167 -0.2869 -0.0198
 7856W        W23325   2.465  16.740   5.821  0.1886 -0.0256  0.0317
 7857W        W23326  17.696   4.334   1.205 -0.3958  0.0496  0.0867
 7858W        W23327  12.818   5.632   5.262 -0.2182  0.2168 -0.2613
 7859W        W23328  15.421   1.795   0.529  0.2067  0.0890 -0.1582
 7860W        W23329   9.017   1.788   0.343 -0.1519 -0.0532 -0.1342
 7861W        W23330  18.074   5.453  12.478 -0.2610  0.0238  0.2559
 7862W        W23331  15.844  17.776   3.473 -0.3501  0.0369  0.1510
 7863W        W23332   3.552   7.681  14.702 -0.1673 -0.2863  0.4503
 7864W        W23333   5.594  17.522   1.606  0.0279  0.1760 -0.0349
 7865W        W23334   2.014   9.646  11.401 -0.0121  0.2357 -0.0060
 7866W        W23335  14.089  12.003   2.770  0.2721  0.0928  0.2178
 7867W        W23336   6.221  17.733   4.069 -0.1594  0.1702  0.1137
 7868W        W23337  12.425   7.278   3.772  0.0602 -0.3034 -0.0875
 7869W        W23338  10.645   6.085   3.636  0.1382  0.0594  0.1218
 7870W        W23339   4.125   0.026  10.750  0.0484 -0.2589 -0.1548
 7871W        W23340   6.952   9.573   4.443 -0.3809 -0.2931  0.1635
 7872W        W23341   7.798   6.222   4.939  0.3967 -0.0470 -0.1770
 7873W        W23342   7.574   2.260  15.511 -0.3236 -0.2742 -0.2448
 7874W        W23343   3.985   1.027  14.061  0.2479 -0.0805  0.2259
 7875W        W23344   6.083   1.903   3.106  0.5692  0.1284  0.1278
 7876W        W23345  15.279   4.793  14.610  0.0121  0.0715  0.2763
 7877W        W23346  14.901   2.393  13.931  0.1876 -0.2154  0.1412
 7878W        W23347  12.285  17.036   1.704  0.0090  0.0483 -0.0564
 7879W        W23348   9.511   8.013  13.327 -0.0321  0.0105  0.0248
 7880W        W23349  17.158   2.570  11.233 -0.1329 -0.1194  0.0516
 7881W        W23350  15.893  17.000  14.037 -0.0684  0.0128  0.3501
 7882W        W23351   0.124  16.869  14.936  0.1461 -0.1732 -0.4866
 7883W        W23352  12.476  17.726  16.164  0.2096  0.0222  0.3379
 7884W        W23353  17.682   2.902  11.759 -0.0082 -0.0197  0.1083
 7885W        W23354  15.082   2.722  14.283 -0.0332 -0.0697 -0.0932
 7886W        W23355  10.076   7.935  12.125  0.2491 -0.0816 -0.0918
 7887W        W23356  15.783  11.125  15.204 -0.2511 -0.1654 -0.0371
 7888W        W23357   9.892  11.642  14.415  0.2086  0.1831 -0.0879
 7889W        W23358   5.528  12.798  11.197  0.0946  0.1239  0.1351
 7890W        W23359   3.782   3.309   3.175  0.2625  0.1054 -0.3444
 7891W        W23360   2.476   8.814  11.934 -0.3364 -0.1085 -0.5194
 7892W        W23361   5.242  11.447   4.761  0.2307  0.0937  0.2328
 7893W        W23362   3.656   0.426  11.520 -0.2494  0.0665 -0.0623
 7894W        W23363  14.435   5.122   2.032  0.0318  0.0282 -0.2457
 7895W        W23364   7.100  18.038   3.440 -0.1472 -0.2669 -0.0563
 7896W        W23365  13.625   0.045   0.113  0.1083 -0.2378 -0.0715
 7897W        W23366   7.868   3.263  15.498 -0.0504  0.0155  0.2660
 7898W        W23367  15.357   2.489  11.619  0.2335  0.0063 -0.1925
 7899W        W23368   2.768  10.674  14.157  0.2740  0.1180  0.2083
 7900W        W23369  17.239  18.219  15.033  0.0748 -0.5065 -0.2719
 7901W        W23370  14.339   2.512   3.310 -0.2176 -0.1420  0.0326
 7902W        W23371   6.172   8.623  11.688  0.1470  0.0496 -0.1277
 7903W        W23372   8.862   2.173   2.716 -0.0019 -0.1726 -0.1366
 7904W        W23373  12.003   5.489   3.172 -0.2507  0.1251 -0.2423
 7905W        W23374   9.841  15.682  11.246  0.0802  0.0403  0.1808
 7906W        W23375   4.223  12.899   1.523 -0.2571  0.2024  0.1479
 7907W        W23376   1.964   3.821   2.380  0.1812 -0.0294 -0.0948
 7908W        W23377   8.405  11.225  11.260  0.1999 -0.1275 -0.1586
 7909W        W23378  12.993  14.614   1.914  0.3277  0.1216  0.0438
 7910W        W23379  15.650   6.707  14.343 -0.3000 -0.1103  0.3102
 7911W        W23380  17.335   2.763  14.440  0.0588  0.0534 -0.1001
 7912W        W23381   7.520   9.045  15.954 -0.3435 -0.2876 -0.0403
 7913W        W23382   7.378   1.366  13.537 -0.3074  0.0289 -0.0263
 7914W        W23383   8.099  17.127  11.404  0.3447 -0.1898 -0.0506
 7915W        W23384  15.277   3.139  14.131  0.0886  0.1619 -0.0582
 7916W        W23385   7.213   0.980   3.633  0.1058 -0.2995  0.0184
 7917W        W23386   5.944  15.417  10.939 -0.1357  0.1986  0.0349
 7918W        W23387   7.948  15.006  14.348 -0.0546 -0.2551  0.2846
 7919W        W23388   9.152   6.698   2.236  0.1764 -0.5646  0.0577
 7920W        W23389   6.683   3.515   2.451  0.2296  0.0226 -0.0627
 7921W        W23390   8.242   6.902   4.576  0.3430  0.1312  0.1849
 7922W        W23391   1.592   4.259   5.878 -0.0075 -0.4963 -0.1325
 7923W        W23392  14.176  15.505  13.124 -0.0961  0.0051 -0.1757
 7924W        W23393  13.897   4.203   1.907 -0.1475 -0.0376  0.1486
 7925W        W23394   9.926   8.093   1.340  0.1877  0.0433  0.2545
 7926W        W23395   3.054   7.205   5.588  0.0309 -0.0162 -0.0874
 7927W        W23396  11.196   7.468   0.768 -0.1149 -0.0938 -0.0195
 7928W        W23397  11.948  12.213   3.677 -0.1153 -0.0603 -0.2744
 7929W        W23398   4.651   0.860  15.331  0.1245  0.0891 -0.0544
 7930W        W23399   4.508   5.868  15.793  0.1454 -0.1854 -0.1377
 7931W        W23400   1.031   9.796   2.031  0.2749  0.2650  0.1328
 7932W        W23401  11.812   8.968   0.675  0.2497  0.1687  0.1068
 7933W        W23402  17.616   5.859   1.390 -0.1835  0.2835  0.3392
 7934W        W23403   7.412  14.165   2.691 -0.0929 -0.0875  0.1462
 7935W        W23404   6.964   4.618  15.893  0.1053 -0.1166 -0.1550
 7936W        W23405   7.735   8.065   2.189 -0.0912 -0.3159  0.1566
 7937W        W23406   3.193   6.271   4.040 -0.0014 -0.3492  0.1336
 7938W        W23407   9.796  17.737   4.612  0.0527  0.3474 -0.2208
 7939W        W23408  14.918   5.223  15.541 -0.3219  0.0731 -0.0120
 7940W        W23409   8.792   3.942  15.115 -0.0786 -0.3919 -0.0868
 7941W        W23410   4.062  14.374  13.452  0.0224  0.2230 -0.0576
 7942W        W23411  10.775   5.114  11.592  0.0860  0.0019 -0.0230
 7943W        W23412  10.928  17.523  12.206  0.0003  0.0426  0.1050
 7944W        W23413   7.022   8.562  14.147 -0.5576 -0.1276 -0.2080
 7945W        W23414   4.735   9.475   5.264 -0.1982  0.0070  0.1342
 7946W        W23415   6.977  13.892   0.196 -0.2166 -0.3665 -0.2072
 7947W        W23416  14.044   4.199   5.238 -0.0932  0.3197  0.0327
 7948W        W23417   0.781   0.797  10.424 -0.0556 -0.0210  0.0482
 7949W        W23418  14.235  14.518  14.720 -0.0382  0.4272 -0.1282
 7950W        W23419   9.694   2.621  15.854 -0.0337  0.0481 -0.0154
 7951W        W23420   3.832   8.353  15.221  0.3675 -0.0078  0.2721
 7952W        W23421   1.139   0.354  14.013 -0.0157  0.0086  0.3103
 7953W        W23422   4.780  10.136  12.244 -0.3282 -0.4167  0.0315
 7954W        W23423  12.669   1.223   3.458  0.1503 -0.1948  0.3838
 7955W        W23424  12.982   7.094  11.496 -0.0232  0.1620 -0.1415
 7956W        W23425   0.109   1.101   2.032 -0.0377  0.0482 -0.4492
 7957W        W23426  11.922  17.754   0.076  0.0109  0.2355 -0.0925
 7958W        W23427   5.558   8.014  15.019  0.0406 -0.0667 -0.1803
 7959W        W23428   9.570  16.315  14.949 -0.1807  0.1995 -0.3103
 7960W        W23429   2.921   8.248  10.548  0.1490  0.0590 -0.3176
 7961W        W23430   8.037  15.379   2.016 -0.0352 -0.0050 -0.2437
 7962W        W23431   5.414   2.214   0.185 -0.0959  0.0576  0.4865
 7963W        W23432   4.408  11.401   4.423  0.1142  0.1280 -0.0036
 7964W        W23433  11.878   7.625  12.728  0.0618  0.1855  0.0267
 7965W        W23434   9.598   0.707   3.381  0.0699 -0.0072 -0.2561
 7966W        W23435  11.011   1.837  15.018  0.2847  0.0477 -0.0552
 7967W        W23436  12.014   7.224  12.439  0.2184  0.1056 -0.2976
 7968W        W23437   2.536  11.251  15.629  0.1835  0.1922  0.0157
 7969W        W23438  17.686  18.119   1.643 -0.0775 -0.1832  0.0877
 7970W        W23439  15.792  13.606   2.168  0.0100  0.1436  0.0535
 7971W        W23440  13.436   2.063  11.514  0.1542 -0.2346  0.0361
 7972W        W23441  15.224  15.913   0.440 -0.0404 -0.0946  0.0727
 7973W        W23442   6.614   1.445  12.062 -0.3066  0.0305 -0.1733
 7974W        W23443   1.948  13.927  11.259 -0.3486  0.1387  0.1198
 7975W        W23444   1.849   9.238  14.908  0.3059 -0.0797  0.0708
 7976W        W23445  10.986  17.780  11.462  0.3104 -0.3558  0.2550
 7977W        W23446   8.641   6.917  13.511 -0.0460  0.0440 -0.0970
 7978W        W23447   8.603  11.479  13.271 -0.1256 -0.2202  0.2281
 7979W        W23448  10.898   1.903  13.513  0.1168 -0.1984 -0.1273
 7980W        W23449  13.508   6.432  11.486 -0.0483 -0.3327  0.1514
 7981W        W23450   4.535   1.691   1.005  0.1355 -0.2508  0.1439
 7982W        W23451   6.260  14.425  10.863 -0.2193 -0.0919 -0.1155
 7983W        W23452   1.454  13.277  12.905  0.2026 -0.0569  0.1965
 7984W        W23453   2.182  12.599   1.607  0.0910  0.3213 -0.0119
 7985W        W23454  16.224   2.205   1.572  0.3509  0.2159 -0.1621
 7986W        W23455   5.897   4.398  15.827  0.0490  0.0882  0.1859
 7987W        W23456  11.556   5.836   1.755 -0.1766  0.0453 -0.0918
 7988W        W23457  15.820  16.604  11.442 -0.0872  0.3198  0.2465
 7989W        W23458   9.116   3.742  15.486  0.0406  0.1146 -0.1372
 7990W        W23459  10.022   8.209  12.545 -0.0735 -0.1455  0.3746
 7991W        W23460  13.094  13.696  13.288 -0.2470  0.0983  0.1343
 7992W        W23461  13.199   6.973   1.156 -0.0054 -0.1782  0.1115
 7993W        W23462  15.805   1.150   4.003  0.0252  0.1676  0.1864
 7994W        W23463   4.686  13.451   0.505  0.1244  0.1235 -0.2084
 7995W        W23464   0.623  11.592  15.885  0.0180  0.0841 -0.0638
 7996W        W23465  10.963   5.126   0.618  0.1006  0.1080 -0.1394
 7997W        W23466   6.853   8.171   1.644 -0.3856  0.1265 -0.3276
 7998W        W23467  14.372   9.146  13.370 -0.0325 -0.1027  0.2188
 7999W        W23468  11.320   5.805  15.309 -0.1213 -0.0385 -0.0480
 8000W        W23469   8.945   2.294  15.837  0.1104 -0.2298 -0.0635
 8001W        W23470   6.978  15.869  14.170 -0.0005  0.0795  0.2214
 8002W        W23471   8.322  16.982   2.405  0.0863  0.2422  0.0800
 8003W        W23472  14.345  16.038  13.279  0.2764  0.0898  0.4500
 8004W        W23473   3.174   2.574  16.097  0.0850  0.0710 -0.2373
 8005W        W23474   3.314   0.295   5.427 -0.2378  0.3429 -0.0942
 8006W        W23475  17.147  13.280  14.744 -0.0034 -0.2028  0.1227
 8007W        W23476  13.997  18.048   3.305  0.5028 -0.0968  0.5662
 8008W        W23477  17.367  16.732   5.362 -0.0181 -0.2293  0.1263
 8009W        W23478  12.438   0.787   3.594  0.1280  0.0874 -0.0812
 8010W        W23479   4.687   1.390   4.927  0.2933 -0.2584 -0.2981
 8011W        W23480  12.319  15.924   1.055  0.0902  0.0807 -0.0388
 8012W        W23481  15.969   0.658  15.873 -0.1853  0.2367 -0.0781
 8013W        W23482  18.278  10.399   0.543  0.0406  0.1275  0.0680
 8014W        W23483   8.436   9.991  16.027 -0.0032  0.1727 -0.0852
 8015W        W23484   6.089   8.796  15.175  0.1136  0.0885 -0.0551
 8016W        W23485   8.101   6.818  12.697 -0.1126  0.1028 -0.4017
 8017W        W23486  18.124  10.620   1.882 -0.1775  0.2593  0.0414
 8018W        W23487  17.047  14.508  11.307 -0.0371 -0.1050 -0.0447
 8019W        W23488   6.445  10.996  12.122  0.3493  0.0759  0.2925
 8020W        W23489  10.484   9.337   1.397 -0.2183 -0.0237 -0.2481
 8021W        W23490  11.018  12.983   0.474 -0.1811 -0.4680  0.1029
 8022W        W23491   9.974  16.057  13.302  0.0334 -0.1927 -0.1008
 8023W        W23492   0.074  10.791  12.309  0.0691  0.4730 -0.0461
 8024W        W23493   2.847   1.253   0.219 -0.2793  0.3235 -0.2858
 8025W        W23494   3.189  16.049   0.265 -0.0267  0.1640  0.0082
 8026W        W23495   1.546  17.122   2.024 -0.1283  0.2415  0.0356
 8027W        W23496   6.121   8.940   0.738  0.0576  0.0008 -0.0588
 8028W        W23497   8.442   2.914   1.880 -0.0833  0.2901  0.3433
 8029W        W23498   4.143   4.224  14.060 -0.0941  0.1267  0.4006
 8030W        W23499   4.029   2.347  13.410 -0.0575  0.2690 -0.3541
 8031W        W23500  15.178   6.922  15.488 -0.1719  0.1979 -0.0677
 8032W        W23501   2.948   4.158   0.156 -0.0102 -0.0610  0.0532
 8033W        W23502   1.253   5.637  11.864 -0.0881 -0.0074 -0.0551
 8034W        W23503  11.614   5.968   4.834 -0.1242  0.0270  0.0100
 8035W        W23504  16.778   8.423  14.226 -0.0386  0.1047 -0.1700
 8036W        W23505  16.695   9.556  12.253  0.3807 -0.2842  0.0178
 8037W        W23506   4.074  17.534   3.420  0.0115  0.0218 -0.1100
 8038W        W23507   9.669  13.533   5.301  0.0458 -0.1034 -0.1541
 8039W        W23508  15.305   8.260   0.311 -0.1575 -0.3557  0.0753
 8040W        W23509  17.414   0.500  15.873  0.0301 -0.1383  0.0499
 8041W        W23510  11.383   3.029   4.794  0.2790 -0.1628  0.0162
 8042W        W23511   0.688   0.673   5.442  0.1055 -0.0652  0.0153
 8043W        W23512   2.506   2.048   2.287 -0.1691  0.1552  0.1935
 8044W        W23513  15.207   3.400   0.761 -0.1404 -0.0729  0.0042
 8045W        W23514  16.921   5.012   1.406 -0.0626 -0.1139  0.0554
 8046W        W23515  17.344  11.362   4.108 -0.0594  0.2227  0.0715
 8047W        W23516  17.750  14.483   2.989  0.2917 -0.0090 -0.2655
 8048W        W23517  15.819   2.091   2.058 -0.1276  0.3944 -0.1978
 8049W        W23518  16.058  11.858   4.439  0.1615 -0.0212 -0.2819
 8050W        W23519   0.547  16.089   1.726 -0.2014  0.0645 -0.0007
 8051W        W23520  17.680   7.065  11.895 -0.1123  0.0172  0.0607
 8052W        W23521  17.662  17.561  12.278  0.2010  0.1067  0.1539
 8053W        W23522   1.775  16.629   2.907 -0.1236 -0.0396 -0.0787
 8054W        W23523  11.943   3.426  11.361  0.3952  0.0780  0.0725
 8055W        W23524   6.930  12.233  10.648  0.2013  0.0065  0.2291
 8056W        W23525   5.132   3.410   0.695  0.0371  0.0463 -0.1904
 8057W        W23526   2.640   7.917   3.561  0.1067  0.1125 -0.0028
 8058W        W23527  14.894  15.357   4.541  0.2404  0.2009 -0.1922
 8059W        W23528  16.441  15.776  12.996  0.3070 -0.1549 -0.0384
 8060W        W23529   8.487   6.083   1.091 -0.0551  0.0923 -0.3511
 8061W        W23530  14.992   0.201   1.800  0.1441 -0.1099  0.2167
 8062W        W23531  13.510  17.562  14.957 -0.1031  0.2530  0.0095
 8063W        W23532  10.814   2.519   2.147  0.0939 -0.0355  0.0440
 8064W        W23533  14.580   3.928   3.549  0.0699  0.0650 -0.1744
 8065W        W23534  11.796  12.875   1.993  0.1338 -0.2767  0.3351
 8066W        W23535   1.378  11.538  12.439 -0.0100  0.1946  0.1980
 8067W        W23536   3.998   1.442  13.814  0.0324 -0.0118 -0.0365
 8068W        W23537   4.303  15.694   4.911  0.1847  0.0124 -0.4141
 8069W        W23538   8.019  12.556  12.729  0.0148 -0.0257  0.1883
 8070W        W23539   3.827   7.055   4.168 -0.2016 -0.1728  0.0265
 8071W        W23540  17.327   2.294  14.121  0.2224 -0.1649 -0.0946
 8072W        W23541   5.719   0.312   2.623  0.0366  0.0370 -0.0171
 8073W        W23542  10.341   2.519   4.433 -0.4091 -0.4594 -0.0902
 8074W        W23543  10.851  12.682   6.270 -0.1744 -0.1750 -0.2485
 8075W        W23544  10.536  16.064  13.636  0.1581 -0.1381 -0.2320
 8076W        W23545   8.302  16.844   4.628  0.0065  0.0960  0.0781
 8077W        W23546   2.138   5.166  14.625  0.2841  0.2808  0.0656
 8078W        W23547  10.623   5.879  12.163  0.0143 -0.0522  0.1744
 8079W        W23548  17.159   4.061  14.062 -0.0858  0.3109  0.0512
 8080W        W23549   4.732  13.050   0.228  0.0082 -0.2896  0.1369
 8081W        W23550  11.774  17.010   0.302  0.1742 -0.0390 -0.2889
 8082W        W23551  11.862   4.490  11.525  0.3261  0.0931 -0.1851
 8083W        W23552  16.724  16.755  15.680 -0.2773  0.0928  0.2669
 8084W        W23553   4.452   7.056   3.885  0.0946 -0.1470 -0.3084
 8085W        W23554  12.328   6.365  13.251  0.2347 -0.0549  0.3043
 8086W        W23555   0.895   2.025   4.543  0.0649 -0.0629 -0.2856
 8087W        W23556   8.642  11.388   4.513 -0.1930 -0.0166  0.2784
 8088W        W23557   3.375   7.642  15.890  0.0431 -0.0215  0.1257
 8089W        W23558   3.569  13.950  12.612  0.1704  0.1575  0.1247
 8090W        W23559  10.294   6.583   0.175  0.2887  0.1515 -0.0543
 8091W        W23560  11.439   6.699  13.607  0.0626 -0.2524 -0.0624
 8092W        W23561   3.587  18.249   2.431  0.0311 -0.1254 -0.1293
 8093W        W23562  16.232   0.979  14.658  0.3504 -0.2064 -0.0294
 8094W        W23563  10.200  10.282   4.069  0.1190  0.1308  0.0204
 8095W        W23564  11.921   8.342   2.491 -0.1986 -0.1419  0.0735
 8096W        W23565  14.466   0.722  12.497 -0.0219  0.0998  0.0473
 8097W        W23566   3.600  16.773  12.034  0.1619  0.3421 -0.0599
 8098W        W23567   9.307  10.118   0.097  0.0538  0.0136  0.1295
 8099W        W23568   4.630   9.615   2.451  0.0873  0.1352 -0.0783
 8100W        W23569  17.190   7.004  15.968  0.1655  0.0372  0.0654
 8101W        W23570   5.365   7.340  11.355 -0.2575 -0.0139  0.2608
 8102W        W23571   7.964  16.753   1.958 -0.3931 -0.2145 -0.1097
 8103W        W23572   0.298   3.982   1.955  0.2764 -0.2580 -0.2301
 8104W        W23573   6.307   6.207  13.122  0.4715  0.1321 -0.0715
 8105W        W23574   6.368   9.552   5.258 -0.0332 -0.1807 -0.2995
 8106W        W23575  14.171   2.572  11.985  0.1141 -0.0608  0.1839
 8107W        W23576   3.549   1.146   1.624  0.1997 -0.0398  0.1916
 8108W        W23577  17.125   2.356  12.863 -0.3645 -0.0595 -0.2103
 8109W        W23578  10.975  16.119   5.023 -0.0716 -0.0274 -0.1421
 8110W        W23579  10.489   0.034  14.399 -0.0891 -0.1734  0.0034
 8111W        W23580  15.420   9.101   2.429  0.0581 -0.3144  0.1034
 8112W        W23581  17.924  16.913   0.823  0.2849 -0.2158 -0.3442
 8113W        W23582  12.563  10.375  12.915  0.0109  0.2319 -0.3476
 8114W        W23583  15.401   3.550  15.598  0.2645  0.3840 -0.1890
 8115W        W23584  18.174  10.936   0.676  0.2521  0.3484 -0.0124
 8116W        W23585   4.932   1.850   2.426 -0.0623  0.1670 -0.1807
 8117W        W23586   7.141  10.414   2.170 -0.0744 -0.0057 -0.1343
 8118W        W23587   4.141   9.266   2.561 -0.1215  0.1890 -0.2657
 8119W        W23588   1.605   4.020  14.855 -0.0922 -0.3578  0.0659
 8120W        W23589   0.558   2.669  10.746 -0.1219  0.2589 -0.1537
 8121W        W23590   8.855   2.835  15.796  0.1935 -0.3600  0.2605
 8122W        W23591   5.588  11.969   4.569 -0.0661 -0.1982  0.1116
 8123W        W23592  10.474   5.240  13.183 -0.0474 -0.1867 -0.0756
 8124W        W23593  14.108   1.387  13.776 -0.1779  0.2630 -0.1004
 8125W        W23594  12.262  15.668   0.050 -0.3750 -0.0547  0.3081
 8126W        W23595  17.846   9.251   2.248 -0.1993  0.0994  0.3496
 8127W        W23596   7.770   5.163   0.629  0.0116 -0.0427  0.0814
 8128W        W23597  12.818   3.913  14.064  0.2189 -0.0105 -0.2912
 8129W        W23598   8.905  17.697   2.443 -0.0792  0.0206 -0.0600
 8130W        W23599   5.417   4.601   4.350  0.4512 -0.0190  0.0502
 8131W        W23600   0.248   2.106  12.477 -0.0893 -0.0222  0.1810
 8132W        W23601   5.944   8.511  12.172 -0.2940  0.0029 -0.1423
 8133W        W23602   8.920   9.087   3.695 -0.0424  0.2611  0.2994
 8134W        W23603  13.097   5.754   4.226  0.1395  0.1528  0.0483
 8135W        W23604  12.140   1.876   1.778  0.1945  0.0865 -0.1556
 8136W        W23605   2.564  15.663  11.117 -0.0817 -0.1515  0.1792
 8137W        W23606  14.582   9.126   4.512 -0.0606  0.0855  0.0200
 8138W        W23607   0.699  14.111   4.867 -0.0695 -0.0165 -0.1223
 8139W        W23608   0.316  10.550   2.218 -0.0532 -0.0425  0.3392
 8140W        W23609  11.834   8.035   5.919  0.1961 -0.5818  0.1106
 8141W        W23610   1.607  12.718   0.787  0.2505 -0.2833 -0.0869
 8142W        W23611   9.631   9.755   2.849  0.1056  0.0269 -0.2282
 8143W        W23612   2.781   9.795  11.597  0.2080 -0.0345  0.2570
 8144W        W23613   8.725  11.610   4.946  0.0203 -0.2037  0.3345
 8145W        W23614  18.099   0.333  13.778  0.3348 -0.1552  0.0433
 8146W        W23615   2.394   3.585   1.421 -0.0900 -0.1733  0.0510
 8147W        W23616  17.910  14.212   0.555 -0.3192  0.1441 -0.2517
 8148W        W23617  12.483   9.233   3.393 -0.0785 -0.0230  0.1448
 8149W        W23618  16.108   3.386  11.718 -0.0220 -0.0432  0.0912
 8150W        W23619  11.438  16.695  11.301  0.0829  0.1550  0.0711
 8151W        W23620  15.745   2.427  13.577 -0.2044 -0.0958  0.0719
 8152W        W23621  13.988   8.964  11.605 -0.2589  0.0313  0.1618
 8153W        W23622  17.272   4.097  15.454  0.0122 -0.2553 -0.2154
 8154W        W23623   3.790   5.556   5.767  0.2216 -0.4781 -0.0378
 8155W        W23624   5.616   4.415  15.297  0.0474 -0.1715  0.0075
 8156W        W23625  14.024   4.994  12.204 -0.1528 -0.0821 -0.0026
 8157W        W23626   6.333   6.903  14.759  0.2100 -0.3787 -0.0606
 8158W        W23627   0.484   4.918  16.086  0.0278 -0.4731 -0.3382
 8159W        W23628  14.967  15.532  14.578 -0.1327  0.0319 -0.1334
 8160W        W23629  11.943  18.206   0.293  0.1111  0.0657  0.0685
 8161W        W23630   7.487  16.363  11.689 -0.0083 -0.0170 -0.0927
 8162W        W23631  16.610  16.366  14.065 -0.2035 -0.0742  0.0907
 8163W        W23632   6.689  14.245   1.946 -0.0154  0.1467 -0.1425
 8164W        W23633   9.154  10.934   5.179 -0.1190  0.3571 -0.1083
 8165W        W23634   6.070   7.949   4.318  0.0482 -0.2577  0.3642
 8166W        W23635  13.322   2.392  13.955 -0.1091  0.1571  0.3954
 8167W        W23636   9.745  17.136   3.309 -0.2172  0.0015 -0.0062
 8168W        W23637  12.796   3.685  13.586  0.2079 -0.3072  0.0026
 8169W        W23638   0.039  17.292  15.402  0.0380 -0.4147  0.0750
 8170W        W23639  13.178   3.179  15.745  0.0931 -0.1483 -0.0290
 8171W        W23640   6.906  17.755   0.431 -0.1930 -0.2155 -0.4984
 8172W        W23641   9.489  13.596  14.124  0.2158 -0.1635  0.0018
 8173W        W23642   1.304   6.169   3.354  0.2224 -0.0120 -0.0146
 8174W        W23643  14.212  17.779  10.374  0.0884 -0.0537  0.1086
 8175W        W23644  14.790  13.071  14.336  0.1555  0.1120  0.0670
 8176W        W23645  14.129   0.945  12.053 -0.0511 -0.0756  0.3942
 8177W        W23646  17.499   5.556  14.188 -0.0553 -0.2371  0.0104
 8178W        W23647  12.317  16.272   5.330  0.0312  0.4587  0.0131
 8179W        W23648  10.908   9.895   3.790 -0.2301  0.1635 -0.1755
 8180W        W23649   3.542  17.749   2.815  0.1464 -0.0706 -0.1314
 8181W        W23650   2.098   0.062   0.349 -0.0030 -0.1824  0.0123
 8182W        W23651   2.183   3.488  16.120  0.3318  0.2005  0.0599
 8183W        W23652   9.948   1.600   3.824 -0.0314  0.2790  0.0968
 8184W        W23653   1.929   7.566   2.638  0.1268  0.0376  0.0399
 8185W        W23654   2.947  15.902   3.341  0.2707  0.2022  0.0659
 8186W        W23655  13.120  16.758  15.511  0.1700  0.2130  0.0058
 8187W        W23656   5.790   2.886   5.048 -0.1544 -0.2632  0.1267
 8188W        W23657   5.248  11.852   0.158  0.0183  0.0705 -0.1146
 8189W        W23658   6.020  11.851   2.988 -0.0884 -0.0756 -0.0249
 8190W        W23659  14.446  12.098   2.365  0.1494 -0.3090 -0.3704
 8191W        W23660   0.403  17.824  12.651 -0.2219 -0.0983 -0.1990
 8192W        W23661   9.110  14.571   0.463  0.0696  0.0313 -0.1596
 8193W        W23662  13.248  11.366   3.429  0.1170  0.3098 -0.1102
 8194W        W23663  17.585  14.031   5.838 -0.1056 -0.1146 -0.1536
 8195W        W23664  17.268   8.683   5.634 -0.1643  0.1156  0.1480
 8196W        W23665   7.999  13.784  13.787  0.2733 -0.2349  0.4625
 8197W        W23666   2.025  17.178   1.710 -0.1811  0.0668 -0.2476
 8198W        W23667  16.267  10.652  15.408 -0.1883  0.2148 -0.1349
 8199W        W23668   3.503   2.705   2.776  0.0163 -0.1916 -0.0865
 8200W        W23669  15.567  12.001  12.227 -0.0128 -0.0403  0.0187
 8201W        W23670  17.154   9.627  13.504  0.0364 -0.0316 -0.2080
 8202W        W23671   5.319  10.168   5.068  0.2378  0.3584  0.1253
 8203W        W23672  14.794   4.774  11.681  0.0029 -0.0873  0.2361
 8204W        W23673  16.746   9.372   3.385  0.2867  0.0460  0.1388
 8205W        W23674  11.273   8.774   0.810 -0.0968 -0.3166 -0.1584
 8206W        W23675   5.294  12.832   1.603 -0.1042  0.5238  0.1147
 8207W        W23676   6.585  11.423  14.262  0.0082  0.0704  0.0524
 8208W        W23677  14.265   6.692  10.586 -0.1635  0.0959  0.1024
 8209W        W23678  11.569   1.404   2.692 -0.0779  0.1327  0.4518
 8210W        W23679   5.720   1.252   2.318 -0.4529 -0.1009  0.0098
 8211W        W23680  12.943   4.779   2.028  0.2509  0.5327 -0.1269
 8212W        W23681  16.091   8.408  15.775  0.0718 -0.2495 -0.3224
 8213W        W23682   2.278  15.315   4.701 -0.1773  0.0312 -0.0362
 8214W        W23683  14.314  11.803   1.940  0.4414 -0.1713  0.0733
 8215W        W23684   0.035   6.806   3.561  0.2190  0.1848 -0.1441
 8216W        W23685   0.037  11.115   1.998 -0.1836 -0.3444  0.1951
 8217W        W23686  13.779   5.835  12.660 -0.1100  0.1504  0.2373
 8218W        W23687  10.943   6.133  14.072 -0.0288  0.3944  0.0498
 8219W        W23688  12.952  16.685  12.524  0.2063 -0.4399  0.1855
 8220W        W23689   0.600   9.422  13.000  0.0755  0.1403  0.0566
 8221W        W23690  11.501  17.544  14.284  0.0908 -0.0278  0.2318
 8222W        W23691  14.506   3.920  14.418  0.1713  0.1120  0.0338
 8223W        W23692  11.100   1.369  14.670 -0.0150  0.0198 -0.1057
 8224W        W23693  17.241  10.652  14.209  0.0160  0.0789  0.0418
 8225W        W23694  16.012   6.490   4.128  0.3464  0.1813 -0.2886
 8226W        W23695  15.760  14.103   2.046  0.1093  0.1531 -0.3316
 8227W        W23696  17.251  14.762  14.760 -0.1947  0.2012  0.2154
 8228W        W23697  10.288  11.422  15.991  0.2361  0.1102  0.0296
 8229W        W23698   4.675   4.528  14.698  0.1578 -0.0705 -0.1100
 8230W        W23699   8.956   3.218   2.615  0.0684 -0.3481  0.1489
 8231W        W23700   4.700  12.587  13.871  0.1267  0.1639 -0.0072
 8232W        W23701  15.942   7.909   1.989  0.1467 -0.0623 -0.2516
 8233W        W23702   1.653   1.315   1.028  0.1377 -0.1547 -0.0054
 8234W        W23703   2.035   4.759  11.182  0.2690  0.1394  0.3419
 8235W        W23704   0.713   8.901   4.012  0.0404  0.1416  0.2382
 8236W        W23705   2.786  12.024  14.857 -0.1939 -0.1743 -0.0708
 8237W        W23706  11.202   4.385  11.290 -0.0680  0.0464 -0.1461
 8238W        W23707  13.586   2.288   3.101 -0.0838  0.1634 -0.2796
 8239W        W23708   1.958  11.647   3.706  0.0578 -0.1208 -0.0525
 8240W        W23709  10.233   0.446   2.623  0.2325  0.1124  0.0742
 8241W        W23710  12.395  15.977  13.053 -0.2923 -0.3879 -0.0512
 8242W        W23711  12.048   2.963   2.396 -0.0112 -0.2167  0.4113
 8243W        W23712   0.352  14.011  13.013 -0.2524 -0.3747  0.1164
 8244W        W23713  12.670   1.536  12.868  0.1166 -0.1892 -0.0067
 8245W        W23714  11.662   9.125  11.995  0.0506  0.1400  0.0254
 8246W        W23715   9.401  16.029  14.568 -0.2457 -0.0515  0.3717
 8247W        W23716   4.422   5.959  14.639 -0.0332 -0.0786 -0.2034
 8248W        W23717   9.441  14.946   4.554  0.2004  0.0768  0.1061
 8249W        W23718  16.906   6.741   3.997 -0.1651  0.0242 -0.3445
 8250W        W23719  16.730   3.489   4.597 -0.1187  0.1103 -0.1725
 8251W        W23720   4.165   5.187   5.082  0.0201  0.1640 -0.2427
 8252W        W23721   8.129  13.295  15.192 -0.2333 -0.0997 -0.0836
 8253W        W23722   8.929   9.193  11.369  0.0088 -0.0041  0.1536
 8254W        W23723   0.010  11.429  14.179 -0.0669  0.3778 -0.1388
 8255W        W23724   9.225   0.492  12.789  0.0117 -0.0146 -0.0411
 8256W        W23725   7.590  14.543  13.346  0.0482 -0.2816 -0.0578
 8257W        W23726  17.330   6.031  14.405  0.1041 -0.0533  0.3468
 8258W        W23727   7.882   6.955   0.808  0.3489  0.2412 -0.1425
 8259W        W23728   9.446  15.484  11.036  0.1690 -0.2607 -0.1637
 8260W        W23729  13.783   3.707  12.830  0.0801 -0.1231  0.4571
 8261W        W23730  14.781   7.721  15.905  0.0985 -0.0286  0.1365
 8262W        W23731  13.336  10.866   4.077  0.0405  0.1891  0.2142
 8263W        W23732   8.886  15.040  10.621  0.3497 -0.0902  0.1775
 8264W        W23733   7.094   9.384  15.158  0.0456  0.1058 -0.2503
 8265W        W23734  13.532   5.616  16.064 -0.0842  0.1516  0.1884
 8266W        W23735   4.173  17.849  15.500 -0.0051 -0.2940  0.1525
 8267W        W23736   0.798   1.533  14.381  0.3393  0.0807 -0.0452
 8268W        W23737   1.262  12.731   0.299 -0.2322 -0.0651  0.1773
 8269W        W23738   3.267  15.786  14.867 -0.0852 -0.2726 -0.2482
 8270W        W23739  16.557   8.855   3.914 -0.4505 -0.0659  0.1296
 8271W        W23740   7.753  11.240   0.764  0.0287 -0.1552 -0.2451
 8272W        W23741  17.690  10.358   4.248 -0.1023 -0.0876  0.0203
 8273W        W23742  10.525   0.642  12.469  0.1957 -0.0806  0.0414
 8274W        W23743  10.783   3.507   4.693  0.2469  0.1486  0.0445
 8275W        W23744   4.207  17.743  14.381 -0.2208 -0.1334 -0.0368
 8276W        W23745  15.107   5.982  11.056 -0.0849  0.0136 -0.2571
 8277W        W23746   5.819  13.521   3.164 -0.0445  0.3227  0.2403
 8278W        W23747   6.966  12.104   1.031 -0.5394 -0.2845  0.0212
 8279W        W23748   2.615  11.609  14.626  0.3543  0.0266  0.1828
 8280W        W23749  15.308   8.778   3.918 -0.0689  0.1135 -0.1166
 8281W        W23750  15.709  11.586   4.668 -0.0084 -0.0353  0.1822
 8282W        W23751   5.754  17.354   5.450  0.0453 -0.2930  0.2945
 8283W        W23752   6.612  10.483   9.902 -0.1334 -0.0106 -0.1648
 8284W        W23753  15.337  16.316  13.924 -0.2860 -0.2884  0.1236
 8285W        W23754   1.524  11.323   5.718  0.0506  0.0775  0.0199
 8286W        W23755   2.511   0.508  12.645 -0.0538  0.0882  0.2518
 8287W        W23756   7.996  13.517   1.973  0.0335  0.0946 -0.0654
 8288W        W23757   7.981  11.092  14.138 -0.1348 -0.2960  0.2185
 8289W        W23758   8.910  15.713   4.026  0.0361  0.0804  0.0972
 8290W        W23759  11.275   6.683   3.502  0.1426 -0.0540  0.0280
 8291W        W23760  15.513   1.649  14.324 -0.1849  0.0869 -0.0894
 8292W        W23761  14.507   3.649   1.398 -0.0217  0.0791 -0.0011
 8293W        W23762   7.680  13.078  11.217 -0.1008 -0.0671 -0.2592
 8294W        W23763  12.709   4.190  12.983 -0.1871 -0.0251  0.0344
 8295W        W23764   3.461  15.512   3.206  0.1138  0.1465 -0.2518
 8296W        W23765  14.705   7.039   4.045 -0.0821 -0.1170 -0.0407
 8297W        W23766  18.068   9.281  14.200  0.0629  0.0497 -0.2295
 8298W        W23767  14.559   6.038   1.893 -0.6243 -0.1011 -0.1715
 8299W        W23768   1.235  10.921  15.011 -0.0020  0.1490 -0.0132
 8300W        W23769   0.188   2.885  15.834 -0.2060 -0.2262  0.0602
 8301W        W23770   4.313  16.365  11.367 -0.0171 -0.1860 -0.2029
 8302W        W23771  10.395   4.885  15.126 -0.1190 -0.1103 -0.0813
 8303W        W23772  10.951   7.046  14.314 -0.2261  0.2709 -0.1652
 8304W        W23773  11.480   0.341   1.231 -0.0285  0.0620  0.0257
 8305W        W23774  10.135   9.609   3.587 -0.1795 -0.1226  0.1188
 8306W        W23775   3.053  14.094   3.780 -0.1072  0.1701  0.2822
 8307W        W23776  16.286  11.938  11.765  0.0010  0.1133 -0.1473
 8308W        W23777   7.650  12.546   1.218  0.4009 -0.2479  0.2932
 8309W        W23778  14.753   1.451   3.069 -0.1234  0.0393  0.1398
 8310W        W23779  13.970  10.033  14.102  0.1616  0.0626 -0.0537
 8311W        W23780  11.754   1.738   1.448  0.2549 -0.1947 -0.1773
 8312W        W23781   7.072   5.903  13.520 -0.0364  0.0690  0.0580
 8313W        W23782   8.633  15.393   1.291  0.1334 -0.0178  0.0104
 8314W        W23783   0.831   0.177   1.328  0.1082 -0.3026  0.1362
 8315W        W23784  16.799   8.379   4.288  0.1927 -0.1819  0.0467
 8316W        W23785   2.419   5.145   3.315 -0.0116 -0.2956 -0.1769
 8317W        W23786   3.722   1.020   2.996  0.1456  0.1423  0.3302
 8318W        W23787  11.493   5.899  14.876  0.3195 -0.2979 -0.1551
 8319W        W23788  17.596  14.542  12.931  0.0134 -0.0090  0.2166
 8320W        W23789  14.713  14.895   3.422  0.2069  0.0341  0.1090
 8321W        W23790  12.530   7.813  13.475  0.0528  0.2178 -0.4985
 8322W        W23791   0.024  15.836  15.218 -0.0145  0.1917  0.0993
 8323W        W23792   7.794  12.225   1.947 -0.2552 -0.0832 -0.0128
 8324W        W23793   9.773  13.858   4.922  0.3335 -0.1603 -0.3202
 8325W        W23794   9.096   1.031   2.576  0.1060  0.3579 -0.1734
 8326W        W23795   6.399   3.428   5.611  0.0835  0.1535 -0.2125
 8327W        W23796  14.020  14.287   2.923  0.0259  0.2505  0.0844
 8328W        W23797   1.043   6.512   5.152  0.3282 -0.0578 -0.2646
 8329W        W23798  13.875  13.171   2.911 -0.1631  0.0118  0.0472
 8330W        W23799   5.054  11.366  13.494  0.3704  0.2260  0.0375
 8331W        W23800   4.375  17.416   0.923  0.3246  0.2577  0.1355
 8332W        W23801   6.682  16.832   4.046 -0.1865  0.2915  0.3630
 8333W        W23802   8.500  17.450   2.393  0.0120  0.1618  0.0231
 8334W        W23803  10.123   9.774   4.090 -0.0524 -0.1029  0.0271
 8335W        W23804  17.552  15.774   3.645  0.1645 -0.6878 -0.1132
 8336W        W23805  17.580  11.743   0.836  0.0126 -0.0346  0.2271
 8337W        W23806  16.770  17.593   1.962 -0.1371 -0.1544  0.0566
 8338W        W23807  10.765  12.085   3.318  0.1846 -0.0678 -0.1360
 8339W        W23808   7.912  11.680   0.939 -0.0772 -0.2884  0.2971
 8340W        W23809   3.007  16.251  13.282  0.3787 -0.2492 -0.0675
 8341W        W23810   8.292   7.785  12.832 -0.0968  0.2359 -0.3762
 8342W        W23811   3.204  14.459   4.027  0.2571  0.0282  0.3351
 8343W        W23812   3.192  12.867  10.886  0.3382  0.1945 -0.1180
 8344W        W23813  16.877   8.691  10.074  0.0781 -0.1287 -0.1986
 8345W        W23814   8.443  15.569   2.239 -0.1560  0.0328 -0.2819
 8346W        W23815   7.511   9.464   4.894 -0.2871  0.2270  0.0209
 8347W        W23816   2.489   7.445  12.991 -0.2303  0.1326 -0.1876
 8348W        W23817  13.471  17.569  14.357  0.0172  0.2043  0.3202
 8349W        W23818  17.038   3.839   0.778  0.0813 -0.0430 -0.1188
 8350W        W23819  14.934   2.985   0.787 -0.1018 -0.0434  0.0307
 8351W        W23820   2.408   4.219   3.663 -0.0746  0.0254  0.0455
 8352W        W23821   3.080   6.690   2.335  0.2103 -0.0340  0.4181
 8353W        W23822  12.604  12.800  11.357  0.1891  0.0859 -0.0220
 8354W        W23823   3.040  18.220  14.315  0.1386 -0.1374  0.2034
 8355W        W23824  11.541   8.049  12.267 -0.0106 -0.1299  0.3128
 8356W        W23825   9.517   0.383   3.031  0.0817  0.1595  0.0897
 8357W        W23826   8.241   0.581   4.816 -0.3087 -0.1496  0.0314
 8358W        W23827   2.785  15.035   2.272  0.0770  0.1209 -0.2830
 8359W        W23828   7.951   8.156  12.991 -0.0713  0.5700  0.1358
 8360W        W23829   9.460  13.605  13.041  0.0373  0.0659 -0.0519
 8361W        W23830  15.656  11.745   1.992 -0.1617 -0.1224  0.1158
 8362W        W23831   6.049  13.871   3.451  0.0200  0.0128 -0.0195
 8363W        W23832   9.867   4.120  12.474 -0.2170 -0.0709  0.1718
 8364W        W23833   6.290   4.261  16.080  0.0856 -0.1635  0.0912
 8365W        W23834   9.585   6.938   3.162  0.0940 -0.1691  0.3144
 8366W        W23835  13.098   0.755   3.003 -0.2288 -0.1648 -0.1458
 8367W        W23836   1.074   8.133   1.569  0.1040  0.1135 -0.1424
 8368W        W23837  17.582  17.073  12.388  0.0351 -0.0815  0.2310
 8369W        W23838   2.724   0.111  12.027 -0.0815 -0.2190  0.0289
 8370W        W23839   1.320   1.727   1.054 -0.0882  0.2074 -0.2190
 8371W        W23840  16.149   0.247   5.285 -0.0982  0.1821  0.1487
 8372W        W23841  15.342  13.198   0.589 -0.2523 -0.1258  0.3016
 8373W        W23842   8.227   8.494  14.526 -0.0262 -0.0313  0.0579
 8374W        W23843   4.187  11.580   3.913  0.0967 -0.1151 -0.1568
 8375W        W23844  11.510   5.508  16.154 -0.0212  0.1690 -0.0749
 8376W        W23845   3.020  13.185  11.802  0.1892  0.0764  0.1642
 8377W        W23846  15.458   0.923  14.879 -0.1928 -0.1511 -0.3420
 8378W        W23847  12.932  15.337  15.460 -0.0705 -0.2585  0.0659
 8379W        W23848   5.970  10.818  15.880  0.0568  0.0165 -0.0307
 8380W        W23849  11.360   3.346  10.199 -0.1419  0.0782  0.0440
 8381W        W23850  15.366   6.697   2.297 -0.0871 -0.0432 -0.1329
 8382W        W23851   3.271  14.614   0.662  0.3308  0.0311  0.0384
 8383W        W23852   8.831   3.623   3.697 -0.3053 -0.2977 -0.2607
 8384W        W23853   1.019  10.412   0.264  0.1964 -0.0479  0.4015
 8385W        W23854   8.279   2.303  10.448  0.2060 -0.3630  0.0099
 8386W        W23855   3.244  12.700  14.076  0.2455 -0.1409 -0.1629
 8387W        W23856   2.661   3.081  14.639 -0.1245  0.2154  0.2167
 8388W        W23857  10.557  16.892   0.996  0.0002 -0.0331 -0.0034
 8389W        W23858  15.511   8.706   4.759  0.2514  0.0092  0.1160
 8390W        W23859   2.741   6.629   0.028  0.0543 -0.0869  0.2852
 8391W        W23860   8.264  14.101  12.008  0.1892  0.0822 -0.2015
 8392W        W23861  12.459  14.776   2.203 -0.0324 -0.0706  0.0469
 8393W        W23862  18.061  11.132   3.725 -0.1188  0.1794 -0.0746
 8394W        W23863   9.978   1.422  12.444 -0.0529  0.1224  0.0440
 8395W        W23864   7.766   1.942  15.183 -0.0888  0.0034 -0.3407
 8396W        W23865  18.097  18.234  14.425 -0.2686 -0.5317 -0.2133
 8397W        W23866   3.834  15.093   0.350  0.0920 -0.1684  0.1699
 8398W        W23867   8.819   4.533  12.119 -0.0265 -0.1530  0.2061
 8399W        W23868  12.343  10.364  15.929  0.0946 -0.1721 -0.0711
 8400W        W23869   3.099  11.199   4.605  0.2696  0.0665 -0.0330
 8401W        W23870   4.710   2.682   3.332  0.1881 -0.2981 -0.1466
 8402W        W23871  17.276  11.738  11.436  0.0828 -0.0071 -0.0787
 8403W        W23872  16.780  11.011   2.037 -0.0923 -0.0045  0.1987
 8404W        W23873   2.829   5.938   0.123  0.1657  0.0862 -0.3417
 8405W        W23874   4.097  17.374  10.955 -0.0173  0.1785 -0.0840
 8406W        W23875  15.317   2.103  15.025  0.0165  0.1135 -0.0088
 8407W        W23876   8.385  13.008   3.460 -0.2994 -0.1888 -0.1877
 8408W        W23877  14.973   7.713   3.781 -0.3482 -0.1751 -0.2187
 8409W        W23878   2.887  17.651   2.208 -0.3654 -0.2816  0.1775
 8410W        W23879   4.080   3.170   1.464  0.0685  0.1633 -0.1261
 8411W        W23880  10.742  14.635  15.721  0.1707 -0.1086  0.0752
 8412W        W23881   8.558   7.140  14.161  0.0758 -0.2197  0.4602
 8413W        W23882  10.850   4.162   0.765 -0.1027 -0.2853 -0.3327
 8414W        W23883   3.764  11.066  12.025 -0.0107 -0.1489  0.0331
 8415W        W23884   5.650   6.716   0.679  0.0165 -0.0322 -0.1304
 8416W        W23885   7.609  18.159  11.487 -0.0350  0.0063 -0.0616
 8417W        W23886   8.235   5.729   3.977 -0.0059 -0.0366  0.0034
 8418W        W23887  11.963  16.815   4.630 -0.1417 -0.2224  0.3370
 8419W        W23888   2.868  15.552   2.071 -0.2598 -0.0622 -0.0103
 8420W        W23889  14.098  14.759   2.066  0.0739  0.2298 -0.1161
 8421W        W23890   4.990  15.195   9.967  0.1390  0.0828  0.1284
 8422W        W23891  18.026  15.309   1.435  0.2956 -0.0463  0.0999
 8423W        W23892  15.390  10.220   1.899  0.1038  0.1199  0.0565
 8424W        W23893   5.042  18.269   3.727  0.1601 -0.1200  0.3200
 8425W        W23894  12.210   3.155   0.142 -0.0763  0.2182 -0.1727
 8426W        W23895   6.982   9.139   1.421  0.1159 -0.5460  0.2923
 8427W        W23896   5.412   3.296  13.314 -0.0707 -0.0084  0.2205
 8428W        W23897   6.674   3.602  13.845 -0.3382 -0.2418  0.1991
 8429W        W23898  15.052  10.534   6.304 -0.1224  0.1213 -0.0583
 8430W        W23899   8.371   8.703  13.343  0.0959  0.0244 -0.0274
 8431W        W23900   7.626   7.836  15.779  0.2952  0.1836 -0.1931
 8432W        W23901  14.391  17.203   3.094  0.0073  0.0718  0.1511
 8433W        W23902   9.617  16.042   3.289  0.4151 -0.1563 -0.1809
 8434W        W23903   1.190  12.119   3.121  0.1780  0.0952  0.2404
 8435W        W23904   4.202  11.850  15.072  0.0283 -0.2124 -0.3608
 8436W        W23905   6.375   1.276  14.589 -0.0873 -0.1851  0.0984
 8437W        W23906  13.813   1.501   3.256 -0.0412  0.1249  0.1224
 8438W        W23907   5.409  13.108   2.067  0.0023  0.1619  0.0781
 8439W        W23908   9.412   2.757  14.447  0.2421  0.3113 -0.0655
 8440W        W23909   8.752  10.644   4.977  0.0620  0.0904  0.2495
 8441W        W23910   2.446  17.505  12.136  0.0745 -0.2269  0.2192
 8442W        W23911   0.631  13.156   3.282  0.2039 -0.0099  0.1334
 8443W        W23912   2.873  12.814  15.388  0.0229 -0.2066  0.1240
 8444W        W23913   6.077  16.536  13.115 -0.3562  0.0635 -0.0077
 8445W        W23914   1.825   9.885   3.057  0.0101 -0.1177  0.1905
 8446W        W23915   5.206   7.786   5.547 -0.0908 -0.0034  0.0781
 8447W        W23916  15.219   3.406  12.674  0.0985  0.0004  0.0113
 8448W        W23917   4.431  13.598  13.975  0.1789  0.0025  0.0256
 8449W        W23918  14.053  10.694  16.165 -0.3640  0.4652  0.1688
 8450W        W23919  16.063   4.143   4.525  0.1887  0.2698 -0.3431
 8451W        W23920   8.909   6.567   5.154 -0.0932 -0.0340  0.2890
 8452W        W23921   5.955  13.570   5.519 -0.0579 -0.1892  0.0204
 8453W        W23922   4.489   7.970  14.005  0.0349  0.1211 -0.0827
 8454W        W23923   6.851   1.565   2.246 -0.2678 -0.3923  0.0985
 8455W        W23924  15.600   3.824  10.436  0.1087  0.0234  0.1769
 8456W        W23925  15.167   8.378   3.064 -0.0272  0.1037  0.0644
 8457W        W23926  14.685  17.833  14.360  0.1796 -0.1988 -0.0256
 8458W        W23927   9.880  12.217  15.810  0.0423  0.1021  0.1798
 8459W        W23928   3.134   3.466  13.391 -0.1318 -0.1458  0.0967
 8460W        W23929   3.824   7.022   1.027  0.1220 -0.1266  0.1258
 8461W        W23930   4.196   3.902   0.328  0.3530  0.0089 -0.0446
 8462W        W23931   7.247   5.048  10.365  0.0181 -0.0343  0.0059
 8463W        W23932   1.611   8.396  14.175  0.0741 -0.1831  0.0867
 8464W        W23933  11.982   7.195  15.031  0.0208  0.0720  0.3414
 8465W        W23934   5.139   2.752   5.752 -0.2072 -0.0046 -0.2231
 8466W        W23935   6.616   6.131  15.674 -0.0364 -0.1468 -0.0067
 8467W        W23936  17.047  17.307   0.143 -0.1786 -0.1604 -0.2143
 8468W        W23937  12.773  16.008  15.618  0.1237 -0.0503  0.1309
 8469W        W23938  16.852   6.143  12.414  0.1321  0.1431  0.2327
 8470W        W23939   9.754   1.563   2.951 -0.2032 -0.2058 -0.0804
 8471W        W23940   1.394   3.971   2.058  0.2422 -0.2072  0.3314
 8472W        W23941  12.902  11.740  12.534 -0.3685  0.0066 -0.1261
 8473W        W23942   6.977   6.438  14.622 -0.2542 -0.1905 -0.0294
 8474W        W23943   0.235   4.864  14.038 -0.0738  0.5133 -0.0461
 8475W        W23944  10.432   9.883   0.645 -0.3820 -0.0340 -0.0997
 8476W        W23945  15.280  16.769   2.452 -0.0200 -0.1026  0.1796
 8477W        W23946   8.274   9.890   3.295 -0.2966 -0.0476  0.1375
 8478W        W23947  13.608  15.593  13.557  0.1909 -0.1194  0.0503
 8479W        W23948   2.310   0.166  15.251 -0.0227  0.3355  0.4141
 8480W        W23949  16.802  17.945  11.294 -0.2247 -0.1396 -0.0888
 8481W        W23950   1.606  12.299  12.859  0.1999  0.2759  0.0511
 8482W        W23951   1.274   8.723   2.858  0.2541  0.0203 -0.1995
 8483W        W23952  12.124   5.710   5.067 -0.2583  0.1780 -0.3268
 8484W        W23953  12.109   4.316   9.983 -0.0576  0.6204  0.0711
 8485W        W23954   9.336  14.676  14.885 -0.1180  0.2133 -0.2188
 8486W        W23955   2.606   5.530   0.106 -0.5063  0.1142  0.1160
 8487W        W23956   7.316   2.961   2.663  0.2419  0.0820  0.0795
 8488W        W23957   5.693  12.801   3.506 -0.5678  0.2335 -0.0345
 8489W        W23958   1.223   5.155   4.519  0.0215  0.1666 -0.0857
 8490W        W23959   4.403   0.638  12.233 -0.0333 -0.0502  0.0114
 8491W        W23960   5.940  14.779  13.185 -0.1511 -0.2169 -0.1558
 8492W        W23961   4.714   6.306  14.921  0.3692  0.2076  0.0863
 8493W        W23962  14.355  12.536  15.279  0.0590 -0.1153  0.3435
 8494W        W23963   5.764   7.810  12.056  0.1977  0.0327  0.2393
 8495W        W23964   6.856   5.183   0.985  0.1044  0.0064 -0.1434
 8496W        W23965  11.019  10.165  15.710  0.1598  0.0851  0.0071
 8497W        W23966   0.493   2.274   4.720  0.1213  0.0960 -0.1299
 8498W        W23967  16.436   6.362   0.055 -0.3127  0.2124  0.1471
 8499W        W23968   5.863   5.026   5.786  0.0699  0.0290  0.3267
 8500W        W23969  14.681   0.514  14.402 -0.2592 -0.0231  0.2223
 8501W        W23970  16.913   4.445  12.052 -0.0041 -0.4370  0.0597
 8502W        W23971  14.391   5.273  14.741 -0.1331 -0.1058 -0.0108
 8503W        W23972  10.902  13.700  11.181  0.0357 -0.1323  0.2001
 8504W        W23973   5.437  13.626  14.306  0.1021 -0.1336  0.0577
 8505W        W23974   9.986  11.929   3.876  0.3767 -0.1328 -0.0017
 8506W        W23975  12.797  11.638  12.065  0.0182  0.0367 -0.3591
 8507W        W23976  17.039  12.594   0.927  0.2175 -0.0239 -0.3831
 8508W        W23977   4.700  13.512   1.021 -0.1001  0.2794  0.1806
 8509W        W23978   3.608  15.594   5.319  0.1321 -0.4448 -0.1879
 8510W        W23979  11.339   9.966  12.384 -0.0111 -0.0464  0.1709
 8511W        W23980   2.844   5.057   3.578 -0.2859  0.1082  0.2459
 8512W        W23981  11.980   5.352   2.697 -0.0323  0.1041  0.0698
 8513W        W23982   8.736  13.343   0.948  0.2118  0.0371  0.3625
 8514W        W23983   3.005   4.447  12.339 -0.3299  0.0745 -0.2166
 8515W        W23984   8.689   0.004   2.988  0.0893  0.2177  0.1562
 8516W        W23985   5.846  13.313  10.263  0.1062 -0.0222  0.0922
 8517W        W23986  18.115  11.568  14.569 -0.2584 -0.0086 -0.0025
 8518W        W23987   8.371   7.413  11.224 -0.2989  0.0037  0.2163
 8519W        W23988  17.579  11.122  15.584  0.0093 -0.1106  0.0922
 8520W        W23989   6.839   0.290  14.123  0.1162  0.1367  0.1131
 8521W        W23990   2.895  17.764  15.304 -0.1434 -0.0295  0.3358
 8522W        W23991   4.814   7.098  12.458  0.0721  0.3104  0.2591
 8523W        W23992  13.699   6.209  13.460  0.0110 -0.2792  0.0484
 8524W        W23993  10.974   6.117   0.522 -0.1621 -0.1802 -0.1955
 8525W        W23994  14.875  12.570  13.496  0.1354  0.0659 -0.2398
 8526W        W23995   3.757  18.073  15.395  0.0217 -0.1927 -0.2930
 8527W        W23996  15.650  15.206   0.339  0.0268 -0.1532  0.3089
 8528W        W23997   8.123   6.477   2.958 -0.1180 -0.0317  0.1096
 8529W        W23998   4.572  16.978   0.632  0.1809 -0.0233  0.0774
 8530W        W23999   0.610   0.105  15.908  0.2860  0.0085 -0.1459
 8531W        W24000  13.785   2.958  10.890  0.0728  0.0319  0.0400
 8532W        W24001   8.784  14.336   4.413 -0.0887  0.2998  0.0963
 8533W        W24002   3.946  11.630  13.135  0.1574  0.0776  0.0013
 8534W        W24003  10.929   4.352   2.276 -0.3518 -0.3511 -0.0313
 8535W        W24004  13.269  13.629   1.207  0.1496  0.1204 -0.1130
 8536W        W24005   0.085  10.405   0.073 -0.2049  0.4838 -0.0583
 8537W        W24006  13.693   8.525  10.816 -0.0425  0.4696  0.2128
 8538W        W24007  11.208   0.128  10.022  0.0339 -0.2161  0.0325
 8539W        W24008  11.777   3.185   4.564  0.2290 -0.0613 -0.1933
 8540W        W24009   3.773   4.670  12.025  0.1304 -0.3971 -0.0564
 8541W        W24010  16.968  10.258   1.599  0.3073  0.2562  0.0209
 8542W        W24011   4.121  10.428   3.769 -0.0687  0.1486  0.3479
 8543W        W24012  13.025   0.664   1.495  0.0028  0.0290  0.0834
 8544W        W24013  16.473  14.210   4.701 -0.0222 -0.1261 -0.3109
 8545W        W24014   2.099   6.830   0.857  0.2547  0.1910  0.0751
 8546W        W24015  11.962   0.117   2.630 -0.0660  0.1927  0.2341
 8547W        W24016  10.348  12.462   4.519 -0.0413 -0.1841  0.0213
 8548W        W24017   4.792   6.652  16.088 -0.0980 -0.0234 -0.3183
 8549W        W24018   4.041  13.697   0.214 -0.0616  0.0258 -0.4260
 8550W        W24019   0.030   4.977   1.658  0.1826 -0.0742  0.1740
 8551W        W24020   7.694  16.642  12.065 -0.1055 -0.0351 -0.1236
 8552W        W24021   1.841  16.357  15.616  0.1283 -0.2702 -0.2298
 8553W        W24022   5.674  15.023   0.178  0.1509  0.0571 -0.1458
 8554W        W24023  18.271   9.636   5.095  0.0966  0.0032  0.1129
 8555W        W24024   8.199  17.721  13.406 -0.0177  0.3883  0.0976
 8556W        W24025   3.480   2.724  15.162 -0.0169  0.2657  0.3289
 8557W        W24026  11.757  12.674   5.048 -0.1239 -0.1756 -0.0590
 8558W        W24027  12.890  13.623   0.340 -0.2025 -0.2282  0.1394
 8559W        W24028   3.909  13.028  14.632  0.1537 -0.1476  0.0560
 8560W        W24029  16.377   7.851   4.636 -0.0125  0.0468  0.2820
 8561W        W24030  15.828   2.644   4.806  0.0174  0.2902 -0.2085
 8562W        W24031   5.328   0.135  13.853  0.0884  0.0617  0.3253
 8563W        W24032   9.466   9.236  14.744 -0.0734  0.0546  0.0213
 8564W        W24033   6.806   8.385   4.539 -0.1323 -0.0540 -0.0036
 8565W        W24034   0.051   4.484   5.038  0.0798 -0.1371 -0.0611
 8566W        W24035  12.779  13.076   3.823 -0.0684 -0.2821  0.0708
 8567W        W24036  17.989  14.968   5.326 -0.0991  0.0117  0.1595
 8568W        W24037  16.851   0.068  11.523 -0.4716 -0.3466 -0.2903
 8569W        W24038   5.476   3.739  11.723  0.2223  0.0436  0.1774
 8570W        W24039  11.557  17.880   6.064  0.0033  0.0397 -0.0929
 8571W        W24040  14.139  16.236   3.548  0.1786 -0.1469 -0.1270
 8572W        W24041   5.510  15.450   0.261  0.2518 -0.1736  0.0957
 8573W        W24042  16.416   0.875  13.394  0.2028 -0.2771  0.3899
 8574W        W24043   7.118   7.148  15.304 -0.0019 -0.2529 -0.2777
 8575W        W24044  10.144  16.896   1.345  0.1016 -0.0045 -0.0761
 8576W        W24045  17.071   5.550   1.954  0.2614  0.0056 -0.0716
 8577W        W24046  17.666  16.606   2.062  0.3367  0.3338  0.1665
 8578W        W24047   6.625  16.139   2.489 -0.0138 -0.0959 -0.1661
 8579W        W24048  17.541   6.607  10.505 -0.1603 -0.0836  0.1962
 8580W        W24049  12.115   4.193  12.358  0.0785  0.1649 -0.0752
 8581W        W24050  13.001   5.077   6.013 -0.0823  0.1595 -0.0458
 8582W        W24051   6.450   3.494   1.052  0.2206  0.3664 -0.1340
 8583W        W24052   8.981  14.322   1.964  0.0613 -0.0319 -0.1005
 8584W        W24053   6.354   8.923  12.890  0.2451  0.0527  0.2521
 8585W        W24054  15.929  10.852   3.622 -0.1525  0.0389 -0.0801
 8586W        W24055   2.918   9.346   3.039  0.1805 -0.0644 -0.1828
 8587W        W24056  17.964   7.590   0.519  0.1440 -0.1605 -0.0200
 8588W        W24057  11.122   3.980  15.961 -0.1796  0.1374  0.2139
 8589W        W24058   3.908   9.125   0.581 -0.1838 -0.1410  0.4988
 8590W        W24059   6.218  18.047   2.007 -0.0968  0.0024  0.2661
 8591W        W24060  16.409  18.229   2.935 -0.0242  0.0322 -0.1847
 8592W        W24061   4.064  15.662  10.888 -0.0794  0.0668 -0.3607
 8593W        W24062   4.312   7.617   5.132 -0.2045  0.1252  0.0991
 8594W        W24063   2.399  18.207  14.764  0.0284  0.0864 -0.1638
 8595W        W24064   9.632   6.591  12.065  0.3256 -0.1956 -0.0505
 8596W        W24065  10.675   8.716   1.583 -0.0619 -0.0898  0.3484
 8597W        W24066   4.645   3.764   0.435 -0.1411  0.0174 -0.1077
 8598W        W24067  10.415  13.498   1.676  0.1315  0.0596 -0.4355
 8599W        W24068   0.374   2.361   5.712 -0.2385 -0.2223  0.2651
 8600W        W24069  16.881   9.865   2.018 -0.0334  0.2297 -0.1152
 8601W        W24070  12.518  17.753   5.849 -0.0361 -0.0893  0.3659
 8602W        W24071  11.500  15.293  16.149 -0.4788 -0.0499  0.0011
 8603W        W24072   9.106   9.650   1.871 -0.1174 -0.0414 -0.1663
 8604W        W24073   9.553   2.997   1.249 -0.0009 -0.3279  0.2106
 8605W        W24074   9.189   1.198  11.141 -0.0196 -0.2017 -0.0665
 8606W        W24075  17.463  17.434  11.867 -0.1600  0.0570  0.2570
 8607W        W24076   4.413  10.480  14.840  0.1034 -0.1717  0.1080
 8608W        W24077   9.220  13.454  14.496  0.0136 -0.3694  0.0105
 8609W        W24078   4.498  18.229  14.522  0.2719  0.0439  0.1457
 8610W        W24079   3.226   3.317   4.370  0.0997 -0.0173  0.0223
 8611W        W24080  13.900   0.246  15.353  0.2621 -0.1792 -0.2308
 8612W        W24081   6.768   4.361   4.267 -0.2168  0.1976 -0.0128
 8613W        W24082   6.772   0.565   0.331  0.2380 -0.0909 -0.3268
 8614W        W24083  16.038   4.859   3.663  0.0695 -0.2447 -0.0067
 8615W        W24084  10.118  17.150  12.490 -0.0992  0.2121  0.0623
 8616W        W24085   2.200   6.332   0.750  0.1757 -0.2400  0.1215
 8617W        W24086  16.602   5.782   4.719 -0.1245 -0.1895 -0.2477
 8618W        W24087   2.675   7.755  15.302  0.1948 -0.0585  0.0238
 8619W        W24088  14.044   3.286   4.882  0.1538 -0.0544  0.2907
 8620W        W24089   1.204  11.734  15.962 -0.0978  0.2320 -0.0430
 8621W        W24090   0.552   0.766  12.414  0.2774 -0.2790  0.2007
 8622W        W24091   0.182  12.010  13.806  0.3213  0.0156 -0.2118
 8623W        W24092  11.445  17.422  12.264  0.0518  0.0611  0.1530
 8624W        W24093   3.714  10.212  13.525 -0.2632  0.0571 -0.0397
 8625W        W24094   4.188   6.910   4.462  0.1065 -0.1953 -0.0964
 8626W        W24095   5.646   4.959   4.010  0.0334 -0.1148 -0.0519
 8627W        W24096   0.449   1.774   2.410 -0.1583 -0.3828  0.2484
 8628W        W24097   5.990   0.075  13.242  0.1147 -0.2306  0.1844
 8629W        W24098   8.167   8.784  14.957  0.1395  0.0437 -0.1552
 8630W        W24099   6.270   1.257  14.078 -0.0082 -0.2653  0.0428
 8631W        W24100   7.637   4.118  15.983  0.2011  0.0709  0.1994
 8632W        W24101  10.383   9.715  14.657 -0.1200  0.3194  0.3647
 8633W        W24102   8.745  12.474   4.351  0.1266  0.0402 -0.2750
 8634W        W24103   9.984  11.627   5.142 -0.3103 -0.0408 -0.3618
 8635W        W24104  11.460  12.860  13.427  0.3404 -0.2218 -0.0215
 8636W        W24105   8.069  15.633  13.319 -0.1165  0.2737  0.1501
 8637W        W24106  14.437  17.301  11.208  0.1569  0.0684  0.0113
 8638W        W24107   9.581   9.219  13.904  0.0674 -0.1915 -0.1660
 8639W        W24108  12.485   7.322   1.911  0.0881 -0.2286  0.0489
 8640W        W24109  18.196  13.001   0.235 -0.0217  0.1607  0.0539
 8641W        W24110   8.428  16.099  14.482  0.2067  0.0138 -0.3415
 8642W        W24111   4.211   5.920   2.449 -0.1587 -0.2710  0.0578
 8643W        W24112   7.759   1.642  12.923  0.1524  0.1081  0.1170
 8644W        W24113  17.052  10.193  15.403 -0.0310 -0.0748 -0.4373
 8645W        W24114  15.942   8.481   2.053 -0.0520  0.3396 -0.1444
 8646W        W24115   7.564  14.524  15.028  0.3150  0.1509 -0.2358
 8647W        W24116   5.876  11.085   4.174 -0.0140 -0.0866  0.0098
 8648W        W24117  10.968   8.724   0.244 -0.3013 -0.0932  0.2734
 8649W        W24118   8.195   7.729  14.098  0.0458 -0.0302 -0.0482
 8650W        W24119  10.978   1.452  11.336 -0.0817  0.2107  0.2322
 8651W        W24120  15.324  12.994   1.630  0.0011  0.0816  0.0338
 8652W        W24121   9.707  15.055   1.177  0.1644  0.1123 -0.2390
 8653W        W24122  16.162  14.959   0.093  0.0482 -0.2597  0.2453
 8654W        W24123  13.847   9.146  15.218  0.2254  0.0136 -0.0166
 8655W        W24124   2.178   6.845   3.150 -0.4400 -0.0067  0.0711
 8656W        W24125  14.830   9.553  11.844 -0.3160 -0.0528  0.0919
 8657W        W24126   5.901   2.317   1.246  0.7111 -0.0272 -0.0484
 8658W        W24127  15.835  10.986  11.660  0.0356  0.2189 -0.1534
 8659W        W24128  18.288   0.464   3.858  0.1747  0.1036 -0.2371
 8660W        W24129   2.382  17.435   4.591  0.0566  0.3912  0.1829
 8661W        W24130  13.913  15.719  15.235  0.1371 -0.0498 -0.2384
 8662W        W24131  11.216   6.200  12.329  0.2421  0.1953 -0.1813
 8663W        W24132  11.181   4.613   3.490  0.1402 -0.2227  0.0915
 8664W        W24133  10.194   6.347   0.683 -0.2447  0.2041  0.2291
 8665W        W24134  13.458  16.340  10.933 -0.2848  0.0650 -0.2512
 8666W        W24135   8.635  16.206   2.067  0.0199 -0.1117 -0.1311
 8667W        W24136   4.564  17.470   1.911 -0.0080  0.2743  0.0851
 8668W        W24137  11.393   8.176  10.933 -0.2863 -0.1846  0.2061
 8669W        W24138   3.767  13.235   2.931  0.0658  0.0650 -0.1793
 8670W        W24139  10.791   6.391  15.463 -0.0537  0.2630 -0.1650
 8671W        W24140  11.578   8.543   1.612 -0.0154 -0.0040 -0.2143
 8672W        W24141  10.635   4.701   2.527 -0.1111 -0.2383 -0.3184
 8673W        W24142   6.160  14.334  11.322 -0.2068  0.0085  0.0260
 8674W        W24143  10.116  14.053  14.339  0.2189  0.0438  0.1766
 8675W        W24144  11.758   4.769   1.927 -0.0729  0.1476 -0.0992
 8676W        W24145   8.934   1.792   5.049  0.0344  0.1724  0.0429
 8677W        W24146  17.311   4.612   1.523  0.0666  0.0594  0.1735
 8678W        W24147  13.386  14.441  12.636 -0.2350  0.3460  0.1578
 8679W        W24148  17.668  11.474  14.336  0.2313 -0.0189 -0.3050
 8680W        W24149   2.140   7.058  14.929 -0.0126  0.0215  0.2604
 8681W        W24150   0.039  10.576  10.657 -0.1531 -0.1798 -0.1310
 8682W        W24151   1.018   7.919  14.804 -0.0655  0.2968 -0.0967
 8683W        W24152   7.144  13.326  14.686 -0.1313  0.0323 -0.0205
 8684W        W24153   1.913   8.934  11.296  0.0595  0.1258  0.1590
 8685W        W24154  11.343  14.297   0.186  0.0435  0.3672  0.1760
 8686W        W24155   1.678  17.630   1.569  0.1493  0.0185 -0.0628
 8687W        W24156  15.649   1.363   0.779  0.0296 -0.1756  0.0859
 8688W        W24157   7.178  16.709  14.699  0.0936  0.1673 -0.0683
 8689W        W24158   2.427   0.571  15.561 -0.4632 -0.0078 -0.2904
 8690W        W24159  15.457  10.407  14.339  0.3588  0.0619  0.4105
 8691W        W24160  11.074  17.680   3.150  0.0396  0.0165 -0.2008
 8692W        W24161  10.572   3.109   0.430 -0.1883  0.1885  0.0125
 8693W        W24162   1.419   0.227  15.461 -0.0048 -0.1019 -0.1317
 8694W        W24163   9.349  15.181  14.049 -0.0526  0.2227  0.1001
 8695W        W24164   6.069  16.272   1.221 -0.0640 -0.0311  0.0380
 8696W        W24165   7.428   7.658   4.841  0.0141 -0.0381  0.1483
 8697W        W24166  18.105  12.382   2.836  0.0862 -0.0012 -0.3686
 8698W        W24167   3.908   0.044   2.943 -0.4186 -0.1146  0.0182
 8699W        W24168   3.447   5.128   1.170  0.3212 -0.2984  0.2845
 8700W        W24169   7.724   0.739  15.161 -0.0131  0.3689  0.1068
 8701W        W24170   0.237   4.834   3.065 -0.1713 -0.2319  0.0541
 8702W        W24171  10.405   4.834   3.745  0.4059  0.0743  0.2304
 8703W        W24172   4.908  12.343   2.380  0.2100 -0.0260 -0.3388
 8704W        W24173  11.164   0.392   5.117  0.1946 -0.1248 -0.0115
 8705W        W24174   2.007  17.747   3.727 -0.0214  0.0117  0.3191
 8706W        W24175   8.161  10.008   0.639  0.0059  0.1407 -0.0222
 8707W        W24176  12.496  11.563   5.002 -0.0371 -0.0501  0.2574
 8708W        W24177   7.775  11.812   3.333  0.0684  0.1768  0.1832
 8709W        W24178   4.271   8.742   1.798 -0.1057 -0.0638  0.0119
 8710W        W24179   7.092   1.309  11.987 -0.0471 -0.0611 -0.1037
 8711W        W24180  12.969  12.509  16.120  0.1943 -0.0399 -0.1390
 8712W        W24181   0.980   7.454   1.835  0.0574 -0.1328  0.0613
 8713W        W24182  11.674   0.746   3.996 -0.0604  0.0052  0.0935
 8714W        W24183   8.494   9.073  10.627 -0.3854  0.0660 -0.1992
 8715W        W24184   1.370   7.029   1.992 -0.4271  0.3504  0.2947
 8716W        W24185   8.551   4.909  14.807 -0.0843  0.0793 -0.0392
 8717W        W24186  15.125  15.618   3.155  0.1089 -0.0907 -0.2648
 8718W        W24187   5.204   2.670   2.191  0.3105  0.1642 -0.0071
 8719W        W24188  11.008   2.064   2.178 -0.2057  0.1102  0.1499
 8720W        W24189  10.632  17.697  15.897 -0.0004 -0.2722  0.0895
 8721W        W24190   3.381   4.121  12.699  0.3184 -0.1388 -0.1214
 8722W        W24191  17.913   2.999   5.055  0.0507  0.0045  0.0686
 8723W        W24192   8.698   3.221   3.449  0.4020 -0.0338  0.2262
 8724W        W24193  13.994  12.621  14.461  0.0195 -0.0619 -0.0097
 8725W        W24194   2.719   0.624   3.389 -0.1330 -0.1981 -0.1276
 8726W        W24195  14.591  14.617   1.938  0.1658  0.0675  0.2875
 8727W        W24196  14.810  17.310   3.596  0.1050  0.0068 -0.0097
 8728W        W24197  12.556  14.802   3.197 -0.0951 -0.1206 -0.3849
 8729W        W24198   5.483  15.591  15.912  0.1330 -0.0074  0.0834
 8730W        W24199  13.387  11.361   0.274 -0.1689  0.0501  0.0743
 8731W        W24200  16.374   4.630   3.930 -0.0835 -0.1019 -0.2782
 8732W        W24201  12.424  16.712   3.569 -0.3326 -0.0061  0.1244
 8733W        W24202  13.164   0.486   0.534 -0.0025 -0.0323  0.0913
 8734W        W24203  16.825   5.611   3.718  0.2081  0.0933 -0.0102
 8735W        W24204   4.187   1.371   4.176  0.1029  0.1387 -0.1336
 8736W        W24205  15.973   3.972   0.842  0.1937 -0.0819  0.3978
 8737W        W24206  13.856   4.496   1.475  0.1509 -0.0123 -0.2154
 8738W        W24207  16.668   1.657   3.094  0.1490  0.0507 -0.2424
 8739W        W24208   3.380  13.255   1.838  0.1311 -0.1068  0.1309
 8740W        W24209  11.725  14.176   1.677 -0.0985 -0.0346 -0.2655
 8741W        W24210  16.335   1.899  15.095 -0.1642 -0.0754  0.1674
 8742W        W24211   1.107   1.649   1.842 -0.1327 -0.1199  0.0536
 8743W        W24212  12.190   1.686  12.259 -0.0616  0.1087  0.1731
 8744W        W24213  15.227   8.654  14.246 -0.0429  0.0760 -0.0866
 8745W        W24214  16.636   7.935   4.119  0.0158 -0.0113  0.2188
 8746W        W24215  17.248   6.989  13.439 -0.0294  0.0895  0.0839
 8747W        W24216   3.753  10.653  12.778  0.1724  0.0794 -0.3462
 8748W        W24217   2.297  13.071   5.923 -0.3021 -0.1907  0.1722
 8749W        W24218  13.043   2.713  15.889 -0.1100 -0.1029  0.1353
 8750W        W24219  10.156   7.668  12.573 -0.0398  0.0593 -0.2112
 8751W        W24220   8.368  14.007  12.878  0.3535  0.1243  0.0710
 8752W        W24221  12.811   0.866  12.022  0.1115 -0.0848  0.2302
 8753W        W24222  15.343   6.087  12.502  0.1027 -0.1881 -0.3105
 8754W        W24223  14.876  16.618   5.419 -0.1432 -0.0576 -0.0560
 8755W        W24224   4.025   0.246   2.522 -0.0512 -0.1546  0.3159
 8756W        W24225   0.765   0.338   3.025  0.0242  0.1663  0.0717
 8757W        W24226   0.536   5.699  13.321  0.2272 -0.2578 -0.0493
 8758W        W24227   8.525   5.266   5.886 -0.1092 -0.1104 -0.2483
 8759W        W24228   1.918  15.559   0.087 -0.1351 -0.0298 -0.4198
 8760W        W24229  16.919   5.985   2.777  0.1146  0.0402 -0.0098
 8761W        W24230   4.034   2.174   4.803 -0.1479 -0.1392  0.1368
 8762W        W24231   2.527  13.153  11.496  0.0495 -0.0421  0.0182
 8763W        W24232   7.641  14.849   3.758  0.1321 -0.1478  0.0159
 8764W        W24233   9.447  12.220  15.553 -0.1633 -0.3291  0.1227
 8765W        W24234   2.732  15.837   0.504  0.0558 -0.1655 -0.1953
 8766W        W24235   3.701   0.731   3.603  0.1507  0.0568 -0.0892
 8767W        W24236   6.151  10.800   0.327  0.0002 -0.0044 -0.1794
 8768W        W24237   8.629  14.913   3.983  0.2164 -0.0149 -0.2836
 8769W        W24238   9.878   7.056  11.100  0.0534 -0.6490 -0.0848
 8770W        W24239  16.497   6.618  15.339  0.1400  0.0454 -0.2205
 8771W        W24240  16.790   2.422   3.781  0.3033 -0.4038  0.3028
 8772W        W24241  11.225  17.662   5.356  0.0790  0.0010  0.1373
 8773W        W24242   5.089  11.070  15.030 -0.0402 -0.1011 -0.0022
 8774W        W24243  11.301   3.043   2.649  0.2200  0.2612  0.1289
 8775W        W24244   6.676  12.308   2.888 -0.0735 -0.3800  0.0199
 8776W        W24245   6.812   3.118   2.721  0.2920  0.1050  0.0318
 8777W        W24246   6.139  13.495  15.473 -0.1352 -0.0703  0.0318
 8778W        W24247  12.261  14.806   6.290  0.4736 -0.0340 -0.2216
 8779W        W24248  13.303   2.145   2.659  0.3664 -0.4583  0.0930
 8780W        W24249  16.509   5.981   3.576  0.0092 -0.1142  0.0343
 8781W        W24250  17.109   8.589  13.798  0.1016  0.1548  0.3338
 8782W        W24251   7.982  13.517   5.405  0.0268  0.3957 -0.1094
 8783W        W24252  10.315  13.593  11.315 -0.1564  0.0742 -0.4834
 8784W        W24253  10.154   1.319   4.848 -0.1485 -0.2431  0.2087
 8785W        W24254  13.998   5.603   0.687 -0.1663 -0.2660  0.0029
 8786W        W24255   2.967   2.419   3.763  0.0741 -0.0615 -0.0766
 8787W        W24256  14.082   8.707   1.359  0.2089 -0.3654  0.3241
 8788W        W24257  10.544   2.812  14.124  0.0488  0.3639 -0.3222
 8789W        W24258   2.776  14.331   4.670  0.1843  0.1433 -0.0705
 8790W        W24259   4.757   1.574  14.885  0.1555  0.3583  0.2722
 8791W        W24260  11.078   6.515   5.167 -0.1428 -0.4862 -0.2737
 8792W        W24261   9.888  17.480   3.751 -0.0064  0.1963  0.3595
 8793W        W24262   4.822   0.868  13.602  0.0856  0.1714  0.1159
 8794W        W24263   2.860   7.982   2.887  0.0652 -0.3247 -0.1678
 8795W        W24264   5.901  17.595   0.531  0.2909  0.1148 -0.0151
 8796W        W24265  13.456  11.212   2.041  0.0037 -0.1528 -0.0598
 8797W        W24266   0.234  16.706   4.405 -0.1311  0.2496  0.0800
 8798W        W24267   5.520   6.282   1.211  0.2106  0.1272 -0.2671
 8799W        W24268  11.036  12.209   3.783  0.3144 -0.0145 -0.0203
 8800W        W24269   2.145   4.392   0.097  0.1007  0.0980 -0.1324
 8801W        W24270  14.474   6.674  14.933 -0.2511 -0.2108 -0.0790
 8802W        W24271   3.864   0.782   2.521 -0.0808  0.2638  0.1389
 8803W        W24272   3.779   4.243  15.719  0.0817  0.0758 -0.1363
 8804W        W24273  17.865  11.122  11.954  0.1540  0.5027 -0.3277
 8805W        W24274  10.300   0.014  11.260  0.2427  0.0437  0.1825
 8806W        W24275   7.617   5.018  16.024 -0.3159  0.1391  0.0118
 8807W        W24276   9.867  18.111  15.427 -0.1378 -0.0613 -0.2322
 8808W        W24277   0.872   6.742  13.412  0.1107  0.0131 -0.5835
 8809W        W24278   8.672  13.320  12.440 -0.0724  0.1703 -0.1867
 8810W        W24279   2.009   7.553  13.454  0.1029 -0.0070  0.1787
 8811W        W24280   5.391  10.412   4.641 -0.3567  0.0155 -0.2129
 8812W        W24281   7.385  18.025  15.373  0.2183 -0.1685 -0.0187
 8813W        W24282  16.070   7.254  13.111 -0.0249  0.3503 -0.3026
 8814W        W24283  13.105   2.135  10.763 -0.2282  0.0501  0.0101
 8815W        W24284  16.709  10.968   0.234  0.1157 -0.0761  0.2019
 8816W        W24285  12.563  13.153  14.454 -0.2454  0.0646  0.1596
 8817W        W24286   6.380  15.362  10.658  0.1717 -0.0447 -0.0896
 8818W        W24287   5.629   6.675  13.506 -0.1084  0.0569  0.3396
 8819W        W24288  17.634   2.868   1.691  0.0571 -0.2048  0.2134
 8820W        W24289   5.330   6.744   0.079  0.0329  0.0773  0.0019
 8821W        W24290  13.123  12.290   1.338  0.0511 -0.0544  0.0609
 8822W        W24291   2.074   8.372   2.713 -0.3533  0.3056  0.0370
 8823W        W24292  16.731   5.773   5.849 -0.3185  0.1056 -0.0489
 8824W        W24293  12.959   3.271   4.319 -0.0285  0.1463  0.0431
 8825W        W24294  13.597  13.142  11.170 -0.0644 -0.2720  0.3868
 8826W        W24295   6.400  16.493  13.732  0.0135  0.0139  0.0663
 8827W        W24296  16.898   0.023   3.272 -0.1542 -0.3421  0.0501
 8828W        W24297   2.535   5.355  14.890  0.3492 -0.0025 -0.1576
 8829W        W24298  15.056   2.754   0.241 -0.1682  0.1009 -0.2967
 8830W        W24299   1.650  13.925  14.863  0.0189  0.1163 -0.2829
 8831W        W24300   9.061   8.179  15.674 -0.2202  0.2530  0.0528
 8832W        W24301  16.787   6.851   3.091 -0.2558 -0.0025 -0.1692
 8833W        W24302   9.883  10.744   2.565  0.0071 -0.0405  0.2171
 8834W        W24303  17.916   9.953  11.625  0.0524  0.1701 -0.1556
 8835W        W24304  13.397   5.630   0.881  0.1785 -0.0316 -0.0939
 8836W        W24305  11.555  10.020   0.764  0.0625  0.2328  0.1935
 8837W        W24306   8.805  14.013  13.099  0.2195 -0.1012 -0.1590
 8838W        W24307   9.389   2.124  12.689 -0.0163 -0.0282  0.0162
 8839W        W24308  11.333   7.703  15.287  0.1769  0.2212 -0.0336
 8840W        W24309   4.510  14.748   4.617 -0.3627 -0.0533  0.1703
 8841W        W24310   2.537  18.033   2.230 -0.1839  0.0164 -0.1666
 8842W        W24311   6.133  10.918  12.982  0.0716  0.1504 -0.0598
 8843W        W24312  12.392   6.332   1.386 -0.0283 -0.1937 -0.1412
 8844W        W24313  17.573  17.780   4.512 -0.4099 -0.0532 -0.2748
 8845W        W24314   7.144  14.367   5.257  0.1370  0.0615 -0.3164
 8846W        W24315   2.528   4.951   1.062 -0.2782  0.2159  0.3244
 8847W        W24316  15.182  18.141   6.476  0.0384 -0.0048  0.1988
 8848W        W24317   7.665  10.817  12.522  0.1945  0.3115 -0.0535
 8849W        W24318   1.860   1.098   3.382  0.0882  0.3846 -0.0609
 8850W        W24319   9.651   3.483   3.569 -0.0205 -0.0618  0.0319
 8851W        W24320   5.883   0.508   1.346 -0.2145 -0.0800  0.0479
 8852W        W24321   8.691  10.072   2.619 -0.2246 -0.1266  0.2491
 8853W        W24322   1.683  16.506  13.144 -0.0246  0.1007  0.0711
 8854W        W24323  15.178  14.111  13.904  0.2571 -0.0071  0.0870
 8855W        W24324  14.291   6.890  11.061 -0.1316 -0.0711  0.0496
 8856W        W24325  13.952   1.974   3.255  0.1589  0.0965 -0.3478
 8857W        W24326   8.317   5.596  15.545 -0.1059  0.0108  0.1563
 8858W        W24327  10.509  15.864   0.224 -0.5199  0.1976  0.0610
 8859W        W24328   5.939   8.153  12.604  0.0821 -0.2578  0.0079
 8860W        W24329   6.788  16.650  15.069 -0.4749 -0.1812 -0.0343
 8861W        W24330  13.297   7.455   2.181  0.0068 -0.1395 -0.1796
 8862W        W24331   7.650   4.604   3.093  0.1141  0.0106 -0.0152
 8863W        W24332  11.571   1.948  15.979  0.0295 -0.1455 -0.0670
 8864W        W24333   1.445  16.940   4.237  0.3122 -0.0633  0.1523
 8865W        W24334   8.003  15.167   3.433  0.1064 -0.0273  0.0951
 8866W        W24335  17.698  13.242   0.321 -0.0915  0.0480  0.3116
 8867W        W24336  13.374  13.024  11.628 -0.2041  0.2260  0.0315
 8868W        W24337   9.587  10.080  13.557  0.0972 -0.3968  0.0108
 8869W        W24338  15.949  15.659  13.717  0.0946 -0.2946 -0.0883
 8870W        W24339  11.014   7.922   1.463  0.0870 -0.1229 -0.0286
 8871W        W24340  15.361   3.958   5.385 -0.0436 -0.0602 -0.1614
 8872W        W24341   6.713  10.886  15.331 -0.0172 -0.0904  0.1078
 8873W        W24342  13.580   4.560  13.872 -0.1415  0.0473 -0.1738
 8874W        W24343  17.100   4.356  13.607  0.0084  0.3267 -0.3336
 8875W        W24344  13.184  10.727   6.053 -0.0978 -0.0023 -0.1231
 8876W        W24345   9.875   1.577   0.647 -0.2243 -0.1316  0.1705
 8877W        W24346   5.170  17.360   3.308  0.2170  0.0230  0.0312
 8878W        W24347   5.632  13.441  11.791  0.0150 -0.1135  0.0325
 8879W        W24348   6.466   0.230  13.289 -0.1607  0.3622 -0.0772
 8880W        W24349  13.016   9.676   1.352 -0.2693  0.0922  0.0559
 8881W        W24350   4.235   1.627  14.729 -0.3602  0.0208  0.1208
 8882W        W24351  10.195   6.818   2.638  0.0767 -0.0246  0.1530
 8883W        W24352   4.610  14.277  10.985 -0.1146  0.0938  0.0287
 8884W        W24353   4.426  15.404  14.492  0.2548  0.0907  0.0707
 8885W        W24354  10.684   8.464  11.814 -0.0501 -0.1540  0.4196
 8886W        W24355   6.451   2.609  12.820 -0.0863 -0.2778  0.1106
 8887W        W24356   0.450   2.987   5.810  0.2349  0.1801  0.0552
 8888W        W24357  13.796   0.702  12.975 -0.1540 -0.0958 -0.0709
 8889W        W24358   4.942   8.925  11.693  0.4027  0.0084 -0.0707
 8890W        W24359   6.174  13.237   0.586  0.4190 -0.1915  0.1005
 8891W        W24360  16.864  16.852   1.678  0.1310  0.2798  0.0467
 8892W        W24361   5.193  15.390  15.043  0.0371  0.0498 -0.2589
 8893W        W24362   5.379   0.574   1.806 -0.4203 -0.0725 -0.1757
 8894W        W24363   4.054   1.279   2.699 -0.4231  0.1588 -0.2374
 8895W        W24364  11.284   0.382  15.559  0.0153 -0.1803 -0.0833
 8896W        W24365   1.346   4.891   2.206  0.1513 -0.2679  0.1512
 8897W        W24366  15.224   5.318   0.686  0.1508  0.0664 -0.1926
 8898W        W24367   2.256  15.412  12.257  0.1010 -0.1368  0.1678
 8899W        W24368   3.282   9.945  13.346  0.1548  0.1780  0.1174
 8900W        W24369   8.571  11.181   1.459 -0.0176 -0.2789  0.0748
 8901W        W24370   2.104   1.628   1.232  0.3049  0.1857  0.2425
 8902W        W24371   6.458   0.133  15.492  0.0697  0.2218 -0.4125
 8903W        W24372  16.126  14.377   2.232 -0.0231 -0.0813 -0.0957
 8904W        W24373   9.184  16.139   0.165  0.3475  0.2669 -0.0950
 8905W        W24374   4.171  14.562  11.021  0.3409 -0.1230  0.1469
 8906W        W24375   2.497   0.161   4.205 -0.0366 -0.0455  0.7396
 8907W        W24376   2.997  11.189   2.067  0.2455  0.0376 -0.1096
 8908W        W24377  13.362  12.919   4.774 -0.3233 -0.0246  0.0417
 8909W        W24378   1.208  10.307   4.972 -0.1181  0.2313 -0.2501
 8910W        W24379  17.748  16.294   4.840  0.2675  0.0251 -0.0574
 8911W        W24380   0.182   3.577  11.053 -0.1180  0.0309 -0.0265
 8912W        W24381   7.505   9.989   1.764 -0.0735  0.1964  0.0002
 8913W        W24382   8.539  10.514  14.913  0.0870  0.0208  0.0694
 8914W        W24383  10.622  15.648   1.294  0.3642  0.0088  0.1720
 8915W        W24384  13.869   8.399  10.314 -0.2555 -0.2925 -0.0626
 8916W        W24385  17.799  14.015   4.935  0.1014 -0.2991  0.0658
 8917W        W24386  14.688   4.692   4.558  0.1529  0.1581  0.0874
 8918W        W24387  15.728  17.445   3.116  0.0578 -0.1827  0.2171
 8919W        W24388   1.343  17.282  14.727  0.0002  0.2807 -0.1758
 8920W        W24389  14.091  17.654   4.434 -0.2442  0.2319 -0.1088
 8921W        W24390   5.883  12.342   3.802  0.1447  0.0071 -0.1586
 8922W        W24391   3.619   6.831  13.057 -0.0516 -0.0283  0.0654
 8923W        W24392   1.430   9.088  13.455  0.0490  0.0774 -0.3139
 8924W        W24393   4.032  13.110   1.925  0.0590 -0.0524 -0.0623
 8925W        W24394   5.045  11.876   2.515  0.2112 -0.0341  0.3679
 8926W        W24395  16.082  13.632  11.492 -0.0054 -0.1485  0.4767
 8927W        W24396  15.495  17.261  15.270 -0.0561  0.1746 -0.1030
 8928W        W24397   4.789   6.604  12.582  0.0658 -0.1318 -0.1661
 8929W        W24398  13.245   6.629  15.689 -0.0560 -0.1723 -0.1041
 8930W        W24399   5.266  16.240   2.840 -0.2358 -0.3588 -0.0344
 8931W        W24400   9.535   2.575   0.904 -0.1441 -0.2021  0.0708
 8932W        W24401   0.580   7.663   3.796  0.0916 -0.1573 -0.0169
 8933W        W24402   2.608  14.222  16.097  0.0445 -0.0546  0.1648
 8934W        W24403   6.550  14.870  14.595  0.0304  0.0699 -0.2332
 8935W        W24404  13.613  16.192   6.196 -0.0539 -0.4195  0.0040
 8936W        W24405   2.597   1.091   3.763 -0.2795  0.0703  0.0561
 8937W        W24406   1.891   6.185   1.129  0.1293  0.0751  0.2671
 8938W        W24407  16.973   4.747   0.689  0.2617 -0.1702  0.0417
 8939W        W24408  17.625   2.185   5.337 -0.4066 -0.2469  0.3457
 8940W        W24409   3.214  17.233  11.958  0.1596 -0.1440  0.1320
 8941W        W24410   2.009  11.950  12.873  0.4139  0.0414 -0.0162
 8942W        W24411  16.480   8.923   4.440  0.0592 -0.0159 -0.3590
 8943W        W24412   2.240   7.815  15.622 -0.1079  0.1041 -0.0123
 8944W        W24413   9.944   1.313   1.548 -0.0700 -0.1872  0.1008
 8945W        W24414   9.353  18.050  12.806  0.1741 -0.0447 -0.0103
 8946W        W24415  17.853   1.287  15.431  0.1431  0.1017 -0.1655
 8947W        W24416  17.559  17.816   2.753 -0.2557 -0.0972 -0.2556
 8948W        W24417  12.544  13.974   0.121 -0.2296  0.3166 -0.2656
 8949W        W24418   4.371  17.866   0.160  0.4020  0.3047  0.1678
 8950W        W24419  11.416  10.048  15.395  0.1772 -0.0987  0.3020
 8951W        W24420   5.882   9.774  13.800  0.5417  0.1199  0.5092
 8952W        W24421   3.139  10.596  12.266 -0.0385  0.0562  0.0662
 8953W        W24422  13.232   5.366   5.103 -0.0057 -0.1713 -0.0743
 8954W        W24423   6.403   0.441   0.668  0.2156 -0.2058 -0.1424
 8955W        W24424   8.487   8.550   1.580 -0.4607  0.0139  0.1919
 8956W        W24425  12.384   8.724  10.358  0.1759  0.0937 -0.0371
 8957W        W24426   9.817  10.680  16.173 -0.0408 -0.3426  0.0248
 8958W        W24427  12.627   0.460   2.140 -0.2022 -0.3660 -0.1299
 8959W        W24428  10.440   2.125   2.239  0.4364  0.0677 -0.2316
 8960W        W24429  15.069  15.543  15.842 -0.2600 -0.1493  0.2774
 8961W        W24430  15.987   0.010   2.136  0.1181 -0.0785  0.0436
 8962W        W24431  15.700   0.736  15.362 -0.1519 -0.2121  0.0504
 8963W        W24432  12.453   1.103   4.446 -0.0707 -0.1922 -0.2251
 8964W        W24433   3.150  10.659   4.991  0.0855 -0.1165 -0.0676
 8965W        W24434   0.324   0.479  15.873  0.1012  0.0906  0.2534
 8966W        W24435  17.120  17.144   2.702  0.2024  0.1450 -0.0012
 8967W        W24436   3.709   9.102  13.732 -0.2421 -0.0790  0.1751
 8968W        W24437  10.061   4.836  12.015 -0.1529  0.2411 -0.1334
 8969W        W24438   5.969   4.297   0.599 -0.2497  0.3709  0.0725
 8970W        W24439  15.577   6.169  10.894  0.2291 -0.0899  0.2762
 8971W        W24440  13.593   9.845  10.899  0.0605  0.0064 -0.1428
 8972W        W24441   6.005   3.953  14.493 -0.1494 -0.1231 -0.1912
 8973W        W24442  10.926   6.989  16.112  0.0905  0.1894  0.1491
 8974W        W24443  10.216  14.549   4.489 -0.0949  0.0415 -0.0089
 8975W        W24444   1.693   7.393  14.677  0.0567  0.0978  0.1814
 8976W        W24445   2.024   6.360   2.915 -0.0747  0.1159  0.0548
 8977W        W24446  12.874  16.899   3.284 -0.0786  0.0306  0.0477
 8978W        W24447   1.881  12.453  11.617  0.2856 -0.2608 -0.1697
 8979W        W24448   9.733  10.848  12.490  0.2162 -0.4792 -0.1150
 8980W        W24449   5.124  13.556  11.729 -0.1166 -0.0282 -0.6251
 8981W        W24450  14.963   5.555  15.895 -0.2278 -0.1230 -0.0252
 8982W        W24451   6.602  16.085  11.471 -0.0477  0.0347  0.1159
 8983W        W24452   6.892   5.621   2.550 -0.1183  0.0518 -0.4507
 8984W        W24453   3.880  12.724   0.707  0.0648 -0.0696  0.1429
 8985W        W24454   0.389  15.272   3.142 -0.0291 -0.1384 -0.1147
 8986W        W24455   6.954   2.131   4.097 -0.0222  0.0047 -0.2115
 8987W        W24456   9.014   6.720  12.713  0.0008  0.2155 -0.2812
 8988W        W24457  15.901   8.158   3.802 -0.1024 -0.3816  0.2035
 8989W        W24458   5.697   5.538  13.689 -0.0794 -0.1570  0.1914
 8990W        W24459   4.851   8.281  13.976  0.2855  0.1152 -0.0442
 8991W        W24460   2.731  12.583  13.216  0.1623 -0.0743  0.1307
 8992W        W24461   4.053   6.535  15.632 -0.0313 -0.2373 -0.3529
 8993W        W24462  12.162   0.103   5.337 -0.0245  0.2436 -0.1184
 8994W        W24463  17.056   6.064   4.672  0.1671 -0.0701 -0.0701
 8995W        W24464   7.811   9.156  14.712  0.3024 -0.0176  0.1377
 8996W        W24465   5.842  12.902   1.423  0.1359 -0.1605  0.2604
 8997W        W24466  17.531  11.791   5.076 -0.0885 -0.0278  0.1336
 8998W        W24467   9.984   8.148  13.382 -0.2300 -0.0211  0.0130
 8999W        W24468  11.554   3.110  13.259 -0.0203  0.3196  0.3326
 9000W        W24469   8.737  15.625   5.548  0.0188 -0.0599 -0.4776
 9001W        W24470   4.244  12.339  12.411 -0.0458  0.0734  0.0383
 9002W        W24471   1.722  12.517  12.445  0.1310  0.0454 -0.0275
 9003W        W24472   2.994  11.656   2.228 -0.1509 -0.0922 -0.0283
 9004W        W24473  13.499   8.710   3.762 -0.2057  0.2275 -0.4699
 9005W        W24474   8.350   5.025  13.234 -0.0433 -0.0961  0.1425
 9006W        W24475   2.825   2.053   2.818 -0.3608 -0.2533  0.3244
 9007W        W24476  14.810   9.586   0.511  0.2271 -0.0933 -0.3753
 9008W        W24477  17.643  11.513  14.816  0.3312 -0.0371 -0.0644
 9009W        W24478  17.205   7.318  11.696 -0.2751 -0.0428 -0.1500
 9010W        W24479  16.957  13.689   0.320  0.1367  0.0138 -0.1845
 9011W        W24480   1.210  17.489  14.243 -0.3161 -0.3082  0.0300
 9012W        W24481   8.605   3.847  12.662 -0.2110  0.0458 -0.1326
 9013W        W24482   6.145   2.451  13.298 -0.2468  0.1704  0.1845
 9014W        W24483   8.887   8.099  11.516 -0.2016  0.0696  0.0904
 9015W        W24484  17.570   0.228   0.664  0.2762  0.3120  0.1621
 9016W        W24485   9.042   1.095  14.889  0.2871  0.0790 -0.0217
 9017W        W24486   9.945  14.345   1.796  0.0142 -0.3429 -0.0808
 9018W        W24487  18.164   1.672  11.712  0.0467 -0.0704 -0.0785
 9019W        W24488   8.996   9.076  14.576 -0.1101  0.0483 -0.1516
 9020W        W24489  16.896  18.049  15.801 -0.1334 -0.0607  0.1054
 9021W        W24490   7.689   6.616   3.330 -0.1181  0.1610  0.0040
 9022W        W24491   5.506   7.164  11.812 -0.0352  0.0383 -0.5335
 9023W        W24492   6.815   6.604   5.324  0.2961  0.2168 -0.3259
 9024W        W24493  10.500  16.811  12.638 -0.0540 -0.0606 -0.0237
 9025W        W24494  13.857  11.180  10.959 -0.1628  0.1746 -0.3593
 9026W        W24495   2.574  13.879   0.629  0.2335 -0.1356 -0.2288
 9027W        W24496  16.097  10.687  12.552  0.2817 -0.0529  0.1862
 9028W        W24497   7.221   9.201   2.971  0.2205  0.2683 -0.0183
 9029W        W24498   4.606   6.561  14.056  0.2267 -0.0582  0.2019
 9030W        W24499  11.287   9.987  14.845  0.2386 -0.0902 -0.2071
 9031W        W24500   5.840  18.234   4.542 -0.0355  0.2363  0.0969
 9032W        W24501  14.204   8.814  12.943  0.2718  0.2644 -0.2239
 9033W        W24502   7.323   4.971   3.296  0.2098  0.3786 -0.1013
 9034W        W24503  14.641  10.725  11.166 -0.5266 -0.2159  0.0213
 9035W        W24504  15.894  14.292   4.988 -0.1323 -0.2217 -0.1639
 9036W        W24505   3.809   9.782  11.426  0.0574  0.1214 -0.2128
 9037W        W24506   4.286  13.480   5.462 -0.0340  0.0012  0.1268
 9038W        W24507   2.686  12.658  11.522 -0.2581  0.0716 -0.0336
 9039W        W24508   6.071   2.264   3.510  0.1167 -0.0491 -0.0603
 9040W        W24509  16.964   7.113  12.603 -0.1991 -0.2524  0.3373
 9041W        W24510   5.543  17.004  12.519  0.0272  0.4011  0.2496
 9042W        W24511  15.148  15.872   2.371  0.1142 -0.0020 -0.1061
 9043W        W24512   0.402   7.918  12.356 -0.0291  0.2067 -0.3266
 9044W        W24513  13.216   7.964  12.127  0.2731  0.4721  0.2280
 9045W        W24514   1.630   3.387  12.700  0.1050  0.0072  0.0653
 9046W        W24515   1.651   5.608   0.287  0.1915 -0.1059 -0.0484
 9047W        W24516   3.198   0.342   3.353 -0.0740  0.2839 -0.3311
 9048W        W24517  15.367   9.540  10.866 -0.0285 -0.1675 -0.0439
 9049W        W24518  12.552   9.199   6.236  0.3998 -0.0846 -0.2150
 9050W        W24519   2.488   2.718   0.578  0.0288 -0.1106 -0.0445
 9051W        W24520   9.265  12.416  12.007 -0.1263  0.3009  0.1638
 9052W        W24521  18.278   3.923  14.404  0.1865 -0.1256  0.2057
 9053W        W24522   4.518   4.308  13.648 -0.1935 -0.0307 -0.0781
 9054W        W24523   8.819  13.208  11.996  0.1456  0.1299  0.2939
 9055W        W24524  17.078   6.098   1.167  0.3232 -0.2531 -0.0551
 9056W        W24525  16.375  14.153  11.345 -0.0189 -0.2093 -0.0068
 9057W        W24526   9.793   7.046   5.276  0.1589 -0.0554  0.1042
 9058W        W24527  13.562   1.010  15.310  0.3025 -0.0389  0.0274
 9059W        W24528  14.666   8.794  12.671  0.2448 -0.1162 -0.3449
 9060W        W24529   9.137  14.293   1.478 -0.2324 -0.0705  0.1271
 9061W        W24530  15.631   5.035   3.408 -0.1242 -0.0612  0.0465
 9062W        W24531   2.140   4.981  10.285  0.0658 -0.2333  0.2650
 9063W        W24532   9.523   5.425   5.465  0.1277 -0.1269 -0.0402
 9064W        W24533   7.149  17.386  16.158  0.2481 -0.0176 -0.2871
 9065W        W24534  12.168   2.857   4.887  0.1191 -0.2345 -0.0412
 9066W        W24535  18.290  12.800  15.230 -0.2303 -0.1297  0.2999
 9067W        W24536  15.336   3.308  10.422 -0.3374  0.1947 -0.0495
 9068W        W24537  14.036  14.970  12.865  0.0397 -0.0560 -0.0860
 9069W        W24538  12.509   3.413  11.754  0.0036 -0.4890  0.0724
 9070W        W24539   6.699   1.397   4.534  0.1085  0.0069  0.1653
 9071W        W24540   4.284  12.074  14.281  0.1756 -0.1890 -0.2650
 9072W        W24541   9.235   2.162   3.412 -0.1020 -0.2300  0.2108
 9073W        W24542  15.388  12.790  13.640  0.0216  0.3969  0.0759
 9074W        W24543  12.457   6.435   2.505  0.1872 -0.2677 -0.0314
 9075W        W24544  13.203  11.154  12.892 -0.0820 -0.1805 -0.0567
 9076W        W24545  12.675  13.236   0.655  0.1441  0.2165  0.0796
 9077W        W24546   6.394   2.884  14.626  0.0088  0.0447  0.0230
 9078W        W24547  16.939   5.208  12.589  0.0680 -0.1322 -0.2216
 9079W        W24548   0.565  12.108   1.499  0.0450  0.2530  0.1492
 9080W        W24549   9.315  15.563   1.851  0.0586 -0.1288 -0.2057
 9081W        W24550   1.208   5.255   1.910  0.1847  0.1201  0.1054
 9082W        W24551  17.363   3.514   4.027  0.0646 -0.3528 -0.1689
 9083W        W24552  15.933  10.596  12.052  0.2417 -0.2251  0.0103
 9084W        W24553   5.664  16.924   3.890 -0.2253 -0.0603 -0.0293
 9085W        W24554   0.338   7.075   0.413  0.0766 -0.1686 -0.1080
 9086W        W24555  18.065  10.622  15.702 -0.0544 -0.1216 -0.1446
 9087W        W24556   2.329   2.959   1.952  0.0388  0.0940  0.0500
 9088W        W24557  16.939  10.111  12.266 -0.1924  0.1006  0.1448
 9089W        W24558  16.613   6.414  11.774 -0.1913  0.2894 -0.2581
 9090W        W24559   5.268  11.015   4.437  0.2329  0.0975  0.2744
 9091W        W24560   9.780   0.681  14.690  0.2598 -0.0691 -0.0428
 9092W        W24561  16.246  11.433   1.576  0.0259 -0.0391  0.1598
 9093W        W24562   3.347   9.340   4.415 -0.2031  0.0620  0.2883
 9094W        W24563  14.566   8.083  13.941  0.0157  0.0100 -0.1334
 9095W        W24564  15.589   2.761  14.281 -0.2923  0.1939  0.0325
 9096W        W24565   7.043  14.261   2.361  0.3565 -0.3705  0.2054
 9097W        W24566   5.825  17.533  12.874 -0.2772 -0.1906  0.0876
 9098W        W24567  12.178   1.824   3.189  0.4203  0.4215 -0.0377
 9099W        W24568  17.311   9.709  15.196  0.1634 -0.1930  0.2103
 9100W        W24569   9.753  11.559   2.311  0.0307  0.3061  0.0486
 9101W        W24570   1.834   7.007   3.495  0.1186  0.0440 -0.1028
 9102W        W24571   0.540   9.815   1.961  0.3877  0.4488  0.0985
 9103W        W24572   8.795  11.673  15.881 -0.3292 -0.0927 -0.2835
 9104W        W24573   2.316  12.411   2.210 -0.0858  0.2181  0.2302
 9105W        W24574   1.311   2.542  13.158  0.0941  0.2099 -0.0991
 9106W        W24575   2.238  16.916  11.861 -0.2906 -0.0148 -0.3277
 9107W        W24576  17.717  10.652  15.369 -0.1829  0.0681  0.0169
 9108W        W24577   7.514   0.137  10.642  0.0041 -0.0926  0.0610
 9109W        W24578  14.607   6.091  13.806 -0.0387  0.0531 -0.1759
 9110W        W24579  14.625   2.416   1.593 -0.4747  0.1816  0.0548
 9111W        W24580  17.273   7.379   2.607  0.2780  0.3987  0.0317
 9112W        W24581   3.017  11.664  12.265  0.2588  0.0002 -0.1206
 9113W        W24582   2.098   2.683  11.202  0.1122 -0.1373 -0.1433
 9114W        W24583  12.621  14.462   0.892 -0.3033 -0.0920 -0.0861
 9115W        W24584   4.663   3.071  15.459  0.1526 -0.1140  0.0804
 9116W        W24585  15.749  13.209   0.954 -0.2706  0.0785  0.0024
 9117W        W24586   3.100  18.266   2.991 -0.1314 -0.0917  0.1179
 9118W        W24587  13.489  11.787  15.010 -0.0514 -0.2910 -0.1262
 9119W        W24588  13.044  17.604  15.165  0.0701  0.4256  0.1788
 9120W        W24589   1.734   7.973   3.545  0.2991 -0.1410  0.2254
 9121W        W24590   0.426   5.350  14.917 -0.2322 -0.0220  0.1347
 9122W        W24591  10.218   2.060   0.830  0.1476  0.0559 -0.0430
 9123W        W24592  13.791  17.922  13.782 -0.1639 -0.2577  0.2818
 9124W        W24593   6.325   8.578  13.359 -0.0910 -0.0323 -0.1451
 9125W        W24594  14.455  16.655   0.519  0.2168 -0.0272  0.0089
 9126W        W24595   2.701   5.145   4.957 -0.1602  0.0435 -0.0154
 9127W        W24596   8.383   9.001  14.526  0.4005  0.0644  0.1167
 9128W        W24597  14.898   8.096   5.163 -0.2136  0.1158  0.1401
 9129W        W24598  13.000   2.716   1.613  0.3905 -0.1437  0.0270
 9130W        W24599   8.954   8.420  11.899 -0.1145  0.0022  0.0622
 9131W        W24600  13.633  15.094  11.851 -0.4990 -0.0239 -0.0748
 9132W        W24601  11.780  11.699   4.865  0.3892  0.1884  0.1280
 9133W        W24602  12.959   3.268   1.625 -0.0971  0.0479 -0.0647
 9134W        W24603   4.521  11.416  15.315  0.1110  0.0461  0.1169
 9135W        W24604   7.776  18.074  12.283 -0.0373  0.0130  0.0890
 9136W        W24605   3.602  10.360   1.884  0.0904 -0.1231 -0.0110
 9137W        W24606  17.316  10.514   4.690 -0.0795 -0.0489  0.0363
 9138W        W24607  14.833  11.468  11.185 -0.0414 -0.0458 -0.1716
 9139W        W24608  12.415  16.697   1.378 -0.0989  0.0935  0.0246
 9140W        W24609   1.324  10.391  14.077 -0.1264 -0.3674  0.1412
 9141W        W24610   8.987  10.791   3.792 -0.0546 -0.1739  0.2844
 9142W        W24611  11.767   1.033   3.011  0.0294 -0.2711  0.3353
 9143W        W24612   6.591   5.604  13.683  0.0476 -0.1599  0.1268
 9144W        W24613   2.423   9.261  11.431 -0.0913  0.1497  0.0055
 9145W        W24614  17.249  16.508   3.985 -0.3183  0.1094  0.0509
 9146W        W24615   4.884   4.102  10.530  0.2634 -0.0485 -0.0727
 9147W        W24616   5.002  11.955  12.164 -0.2242  0.1611  0.0608
 9148W        W24617   0.164   2.325   2.501  0.1389  0.0065 -0.0468
 9149W        W24618  16.358   5.553  14.087 -0.2968 -0.1458  0.1762
 9150W        W24619  11.067   3.867  11.499 -0.0744 -0.1740  0.0489
 9151W        W24620   5.324  13.154  14.586 -0.0005  0.0335 -0.0324
 9152W        W24621   1.071  10.688  14.432  0.2616  0.3220  0.1613
 9153W        W24622  17.875   2.441  11.733 -0.2025  0.0298  0.2151
 9154W        W24623  15.295  11.934  13.208  0.0969  0.0337 -0.0525
 9155W        W24624  17.138   8.870   1.478  0.1278 -0.2309 -0.0160
 9156W        W24625   5.076   9.606  15.426 -0.0287  0.0916  0.2666
 9157W        W24626  11.008  17.736   1.990  0.1078  0.1035  0.0325
 9158W        W24627  16.206  17.182   3.324 -0.1591  0.1596 -0.0726
 9159W        W24628   2.947   9.580   5.305  0.3877  0.0793 -0.0502
 9160W        W24629   2.793   2.812  12.876  0.1056 -0.2810 -0.0826
 9161W        W24630  11.487  13.183   1.593 -0.1511  0.1737  0.0665
 9162W        W24631  18.009  15.330  12.645  0.2895  0.0807  0.0046
 9163W        W24632   4.975   8.433  11.685 -0.2807 -0.1118  0.0089
 9164W        W24633   2.592   9.646  11.179  0.1400 -0.1335  0.3966
 9165W        W24634  15.549  10.109   2.363 -0.3581  0.0753 -0.0448
 9166W        W24635   9.039  15.581   0.895  0.1429  0.2617 -0.5034
 9167W        W24636   3.729  14.286  11.331 -0.4897  0.0513 -0.1866
 9168W        W24637   2.866   9.634   3.808  0.0308  0.1235  0.3032
 9169W        W24638   4.034   8.943   5.112 -0.0117  0.0925 -0.0158
 9170W        W24639   2.228   9.140   0.989  0.1505 -0.1172  0.2741
 9171W        W24640   5.418   4.523   5.206 -0.0510 -0.0343 -0.0473
 9172W        W24641  12.816   9.449  15.703 -0.1029  0.1386 -0.3628
 9173W        W24642   9.246   5.198   2.627  0.1093  0.0915  0.1089
 9174W        W24643   5.365  15.801  12.646  0.2285  0.0749 -0.0590
 9175W        W24644  17.048  14.974  15.753  0.1009 -0.0775 -0.0218
 9176W        W24645   5.317  10.199   1.572 -0.3103  0.1404 -0.3917
 9177W        W24646  18.009  12.702   0.888  0.0676 -0.1492  0.0729
 9178W        W24647   0.591   7.605  14.872  0.0214  0.1906  0.0455
 9179W        W24648  16.696   5.889  12.003  0.0432 -0.0714  0.1152
 9180W        W24649  13.385   1.113  15.818  0.1337 -0.0443 -0.2226
 9181W        W24650   9.166   0.182   1.749 -0.3325  0.0685 -0.0358
 9182W        W24651  16.352   3.686   2.980 -0.1110 -0.2920 -0.1021
 9183W        W24652   4.935   1.783  11.481 -0.0479 -0.1678  0.1111
 9184W        W24653   8.596  10.572   2.246 -0.0708 -0.4387 -0.0798
 9185W        W24654   0.411   2.001  15.880 -0.0851 -0.0503  0.0023
 9186W        W24655  10.611   1.397   2.665  0.1877  0.1676  0.1395
 9187W        W24656   5.669  15.021  11.873 -0.0198 -0.0610  0.0641
 9188W        W24657  12.926  11.278  15.750 -0.2545  0.1986  0.0490
 9189W        W24658   5.065   3.718   5.658 -0.1901  0.0213 -0.3185
 9190W        W24659   5.456   0.012   4.244 -0.0191 -0.1622 -0.0340
 9191W        W24660   6.377   7.816   0.799  0.0450  0.1076 -0.1452
 9192W        W24661  15.400  10.704   3.730 -0.0147  0.1073 -0.3648
 9193W        W24662  11.812  16.997  12.201 -0.1748  0.0292 -0.0332
 9194W        W24663  13.830   1.746  11.725  0.0143  0.1211 -0.0471
 9195W        W24664  14.275   0.257   2.815 -0.1162  0.2830  0.1232
 9196W        W24665   0.274   8.224   0.741 -0.1915  0.0550  0.2010
 9197W        W24666   4.769  12.458  12.915  0.2548 -0.2671 -0.0666
 9198W        W24667   8.519  11.303  12.298  0.0814  0.0268 -0.1624
 9199W        W24668  16.283   9.845   2.862  0.0665  0.0296  0.3109
 9200W        W24669  11.990  14.272  14.126 -0.0797  0.1760  0.3195
 9201W        W24670  13.836   1.009   3.241  0.1381  0.0347  0.5115
 9202W        W24671   1.023   6.601   2.031 -0.0675  0.3494 -0.0461
 9203W        W24672   8.299  18.133   0.870  0.0396  0.0983 -0.0621
 9204W        W24673  14.373  12.747  14.749  0.1921 -0.0983  0.1077
 9205W        W24674  16.236  12.795   5.330  0.5397 -0.1157 -0.0467
 9206W        W24675  16.335   8.239   2.827  0.1635  0.3101  0.2541
 9207W        W24676  14.214  15.917   0.700 -0.3145 -0.0678 -0.0099
 9208W        W24677  11.729  11.165  11.143  0.1782  0.0239 -0.0353
 9209W        W24678   4.707   9.944  15.994 -0.2228  0.3964  0.1630
 9210W        W24679  11.517   9.996  15.951 -0.2569  0.2199  0.2149
 9211W        W24680   5.417   4.744   2.332 -0.1287 -0.1327  0.2915
 9212W        W24681  17.543  14.202  11.238  0.2923  0.3018 -0.1044
 9213W        W24682   4.276  11.587  14.087 -0.2028 -0.0115  0.1701
 9214W        W24683  10.034  17.272  13.975  0.4258 -0.0587 -0.4909
 9215W        W24684  10.556  18.040  15.490  0.1855  0.0362  0.1302
 9216W        W24685   2.336   0.037  11.277 -0.1244  0.2741  0.3116
 9217W        W24686   7.271   9.677  11.731 -0.0679 -0.1896 -0.0372
 9218W        W24687   7.641  16.097  16.094  0.0618 -0.1359 -0.0205
 9219W        W24688  17.093   7.897  11.125 -0.2926  0.2251 -0.0510
 9220W        W24689  16.133  11.176   3.192 -0.1196 -0.0650  0.1026
 9221W        W24690   9.764  11.243   3.107 -0.0212 -0.0404 -0.2895
 9222W        W24691   9.927  12.535   2.571  0.0220 -0.2401  0.1752
 9223W        W24692  17.899   7.022   3.027  0.0049 -0.3629  0.0136
 9224W        W24693  11.845   3.179   0.866  0.0638 -0.2314  0.5922
 9225W        W24694  10.455   6.507   3.767  0.1107  0.2541 -0.2356
 9226W        W24695  13.078  12.112  12.273 -0.0876  0.3601  0.0266
 9227W        W24696   3.414  16.737   4.667  0.0254 -0.1851 -0.2795
 9228W        W24697  12.613  10.732  14.636 -0.2333  0.0683 -0.3900
 9229W        W24698   8.105   8.675  12.945  0.0788  0.3000  0.0961
 9230W        W24699   9.325   7.489   1.644  0.0772  0.2573 -0.1350
 9231W        W24700   1.369  12.393   1.258  0.1287  0.0498 -0.0122
 9232W        W24701   0.354  18.271   1.189  0.0881  0.1762 -0.1226
 9233W        W24702   1.503   2.115   1.770 -0.0251  0.0934  0.1131
 9234W        W24703   0.635   3.739   0.708 -0.0150  0.1141  0.1677
 9235W        W24704   2.810  15.044   1.004  0.0167 -0.1073  0.2266
 9236W        W24705   2.089   8.498   4.922  0.0737  0.0332  0.0338
 9237W        W24706   1.730  17.351  15.916  0.0952 -0.0980  0.0656
 9238W        W24707  12.738   1.148  12.482  0.0425 -0.0037 -0.1240
 9239W        W24708   9.614   0.583   0.301 -0.0883  0.1930 -0.0515
 9240W        W24709   1.471   5.687  15.961 -0.1800 -0.1506 -0.2805
 9241W        W24710  15.649  16.874  13.202  0.0828 -0.1391 -0.1101
 9242W        W24711  14.638  17.721  11.310  0.0219 -0.1319 -0.1860
 9243W        W24712  18.038   5.650   4.442 -0.0121  0.3284  0.0448
 9244W        W24713   2.661  16.269  14.232  0.0057  0.0930  0.1297
 9245W        W24714   0.609   7.451  13.947 -0.1878 -0.3579  0.1495
 9246W        W24715  13.522  12.296  13.486  0.0739  0.1948  0.1194
 9247W        W24716   6.959  13.918  11.362 -0.0588  0.2779 -0.1112
 9248W        W24717  12.990   1.003  13.674 -0.1324  0.0598  0.0858
 9249W        W24718   6.463   7.015  15.698  0.0939  0.0340 -0.1877
 9250W        W24719   3.451   4.750   4.793 -0.0079  0.2032 -0.0142
 9251W        W24720   3.509   0.617   4.123  0.1866  0.2560  0.2258
 9252W        W24721   6.381  14.923   3.654 -0.0076  0.0340 -0.0669
 9253W        W24722  11.566  14.151   1.229 -0.2531  0.1254  0.1386
 9254W        W24723  13.414   3.581   4.394 -0.1106  0.1030  0.1801
 9255W        W24724   4.693  10.861  11.018  0.1310 -0.1167  0.2385
 9256W        W24725  17.637   3.420   4.410 -0.0566  0.0751 -0.0047
 9257W        W24726  17.635  11.516   1.251  0.1459 -0.0758  0.0503
 9258W        W24727   0.801  11.645  10.948  0.0655 -0.0728  0.1015
 9259W        W24728  10.448   1.855  13.843 -0.0719  0.0573  0.2759
 9260W        W24729  16.190   2.090   5.721  0.0556  0.0464  0.2878
 9261W        W24730   6.658   0.716  13.319 -0.0540 -0.0319  0.2573
 9262W        W24731   8.773  13.554   3.287  0.3094  0.1149  0.4170
 9263W        W24732  16.895  14.334   3.648 -0.2528 -0.1189  0.3072
 9264W        W24733  11.279   2.428   1.976 -0.0925  0.0175  0.0357
 9265W        W24734   5.056  11.167  11.939  0.0264  0.4241  0.2397
 9266W        W24735   1.826   7.792  15.317  0.0347 -0.1603 -0.3226
 9267W        W24736  12.358   0.762  11.355  0.0635 -0.0324 -0.1303
 9268W        W24737   8.733   5.113   5.395  0.2094  0.2614  0.2382
 9269W        W24738   6.353  12.183  13.273 -0.2596 -0.2446  0.0516
 9270W        W24739   9.063  11.432   5.255 -0.1431  0.3296  0.1273
 9271W        W24740  13.950  15.684   1.109  0.0588 -0.2569 -0.1332
 9272W        W24741  12.412  14.332   2.054  0.2576 -0.2745  0.0977
 9273W        W24742   7.283   8.619   4.714 -0.0459 -0.2152 -0.1145
 9274W        W24743  16.110   1.181  12.444 -0.0285  0.0411  0.0464
 9275W        W24744  13.469   8.606  13.441 -0.0085 -0.1604 -0.0430
 9276W        W24745  10.881  14.574   4.934 -0.0651  0.0366  0.0509
 9277W        W24746  13.834   0.131  10.433  0.0506  0.0542 -0.1167
 9278W        W24747  16.714  12.191  12.693  0.3047 -0.2119 -0.2599
 9279W        W24748  15.227  13.865   2.934 -0.0047  0.2346  0.1055
 9280W        W24749   7.980   1.111  14.385  0.2826  0.0642  0.0553
 9281W        W24750  10.527  16.655  15.160  0.0030 -0.2580  0.0892
 9282W        W24751   4.994  11.811   3.522 -0.0637 -0.1272  0.0826
 9283W        W24752  15.009   6.319   3.387 -0.1182  0.2529  0.0799
 9284W        W24753  15.297   4.072  14.001  0.2997  0.2482  0.0198
 9285W        W24754  15.385   3.005   4.936 -0.1338 -0.1066 -0.2331
 9286W        W24755   4.590  15.997  15.985 -0.0857 -0.2257 -0.2512
 9287W        W24756  12.241  11.349   0.795 -0.1064  0.1161 -0.1356
 9288W        W24757   8.430   9.641  10.413 -0.1527 -0.2099  0.0883
 9289W        W24758   5.674   4.324   2.152  0.4417  0.2295  0.3080
 9290W        W24759   9.417   6.126   0.933 -0.0864  0.2654 -0.1373
 9291W        W24760   0.033  11.823   5.415 -0.3845 -0.0457 -0.0237
 9292W        W24761  10.494  10.935  15.734 -0.1770  0.0175 -0.1047
 9293W        W24762  18.204   4.934   4.713 -0.0708 -0.1388 -0.0430
 9294W        W24763   7.506   1.355  11.508  0.0698  0.1219 -0.1991
 9295W        W24764   3.932  16.768   3.029 -0.1347 -0.0384 -0.1704
 9296W        W24765  10.730  17.954   2.687 -0.1271  0.1542 -0.1675
 9297W        W24766   3.427   4.262  16.071  0.0935  0.0642 -0.1325
 9298W        W24767   2.991   9.481  15.430 -0.0172 -0.0294 -0.2344
 9299W        W24768   3.241   7.730  15.224 -0.1642 -0.3560  0.2381
 9300W        W24769   2.234  15.967  14.494 -0.0692  0.0080  0.2909
 9301W        W24770  12.913   7.732  15.376 -0.0248 -0.0865  0.1420
 9302W        W24771   1.023   9.650  15.424  0.1553 -0.0385  0.0404
 9303W        W24772   8.284   8.497   5.318  0.0198 -0.0996  0.1810
 9304W        W24773   4.135   7.432   4.073 -0.1180 -0.2361  0.0185
 9305W        W24774  10.658   8.907   1.091  0.2428 -0.1815 -0.0521
 9306W        W24775   8.157   0.121   3.605 -0.0779  0.0858 -0.0517
 9307W        W24776  13.736  11.303   3.197  0.1154  0.0922 -0.0267
 9308W        W24777  14.871   9.188   0.196  0.0870 -0.1706 -0.0307
 9309W        W24778   9.096   3.302   5.868 -0.1155  0.3682 -0.2409
 9310W        W24779  13.755   7.467  13.785  0.1772 -0.0530  0.0850
 9311W        W24780   3.615   6.659  14.332  0.1586  0.1824  0.0435
 9312W        W24781   7.177  17.265   0.487 -0.0109  0.0641  0.1341
 9313W        W24782  17.408  16.975   4.075 -0.3282 -0.2564 -0.2966
 9314W        W24783  16.741  10.926  11.842  0.3474 -0.0474 -0.3579
 9315W        W24784   8.638   8.297  12.267 -0.0826  0.1262 -0.0606
 9316W        W24785   4.996   1.410   3.140 -0.1467  0.3468  0.1073
 9317W        W24786  14.481   3.918  15.400  0.0538 -0.0490 -0.3009
 9318W        W24787   6.512   6.596  15.244 -0.0048 -0.0077 -0.0280
 9319W        W24788  11.089  14.769  14.189 -0.3184  0.5195  0.1912
 9320W        W24789  11.371   2.036   0.431  0.0416 -0.0355  0.2720
 9321W        W24790   9.795   2.726  11.949  0.0995 -0.1049  0.1127
 9322W        W24791  10.757  12.333   4.204 -0.2265 -0.0798  0.0686
 9323W        W24792   5.875   2.927   0.691 -0.1950  0.2071 -0.2293
 9324W        W24793   5.008  18.130   1.489 -0.2267 -0.0852  0.0272
 9325W        W24794   5.492  17.640  13.239  0.0754 -0.0361  0.2657
 9326W        W24795  10.418   3.117  12.864  0.2095  0.2296  0.0307
 9327W        W24796  15.297  11.789   2.472  0.1348  0.0384 -0.0706
 9328W        W24797   5.014  12.330   3.227  0.3185 -0.2713 -0.0528
 9329W        W24798  10.861  15.576  11.164  0.0369  0.2108 -0.1779
 9330W        W24799   6.593  17.945  12.512  0.1029 -0.0778  0.2126
 9331W        W24800   3.643   2.025  12.017 -0.1894  0.2365 -0.1452
 9332W        W24801  15.563   2.720  12.171  0.0050 -0.0387  0.1818
 9333W        W24802  14.095   6.925  11.922 -0.0823  0.2188 -0.0841
 9334W        W24803  12.295  16.149  11.296 -0.4220 -0.0460 -0.0282
 9335W        W24804  10.345   8.949  11.132  0.0912 -0.3227 -0.0713
 9336W        W24805   7.474   4.156   5.802  0.3677  0.0194 -0.2266
 9337W        W24806  15.214  16.210  12.786  0.0188 -0.2891  0.0296
 9338W        W24807  16.376  11.063   3.577 -0.4048  0.0438  0.0275
 9339W        W24808   4.156  16.249  13.814  0.0079  0.3441  0.0926
 9340W        W24809  14.480  10.122   1.190 -0.1193 -0.1392  0.1661
 9341W        W24810  12.687   3.061  15.835  0.2156 -0.0183 -0.0298
 9342W        W24811  17.875   4.877  11.767 -0.2400  0.0277 -0.0402
 9343W        W24812  10.545   2.358  13.309 -0.2318  0.0619 -0.3465
 9344W        W24813  13.557  14.243   0.649 -0.3456  0.0181  0.1117
 9345W        W24814  14.731  12.206  14.203  0.1893 -0.0755 -0.0799
 9346W        W24815   0.708   0.629  11.402 -0.0793  0.2059 -0.1082
 9347W        W24816   4.922   2.590   2.798 -0.1560 -0.0142 -0.0950
 9348W        W24817   3.764  10.013  15.935  0.0979  0.1182  0.3580
 9349W        W24818  18.028   0.140   1.779 -0.0555  0.2754 -0.1437
 9350W        W24819  10.611  10.521  12.941  0.0895  0.0763 -0.4201
 9351W        W24820  17.550   3.438  13.567 -0.0308  0.1432  0.0936
 9352W        W24821   3.924   4.842   4.826  0.1251 -0.4125  0.1506
 9353W        W24822  13.388   2.612   2.290  0.1230 -0.0031 -0.1105
 9354W        W24823   3.734  14.556  11.726 -0.2590 -0.2583 -0.1646
 9355W        W24824   0.700   4.742   3.355  0.3289  0.2836 -0.0506
 9356W        W24825  14.972   2.842   4.628  0.0991 -0.2876 -0.0317
 9357W        W24826  11.021   2.484   3.530 -0.4701 -0.0384  0.1342
 9358W        W24827  16.166  15.862  14.206 -0.0133 -0.0705 -0.0911
 9359W        W24828  15.284   0.716   5.208  0.4125  0.0486 -0.2309
 9360W        W24829   7.250   9.675   3.882 -0.0176 -0.0361  0.0930
 9361W        W24830  11.338   2.379   1.464  0.1768  0.0318 -0.1516
 9362W        W24831   1.766  17.196   1.241  0.0634 -0.0419 -0.0906
 9363W        W24832   0.411  13.562   6.177  0.1760  0.1422  0.0450
 9364W        W24833  15.266   6.418  15.553  0.2019  0.2361 -0.0070
 9365W        W24834   3.362   6.457   4.591 -0.2197 -0.1276 -0.0893
 9366W        W24835   9.825  11.542  13.913  0.1691  0.1996  0.0039
 9367W        W24836  11.496   0.773   4.625 -0.0174 -0.1625 -0.1110
 9368W        W24837   2.927   4.457   2.947 -0.1322 -0.1965  0.1722
 9369W        W24838  16.030  17.160   2.258  0.1851  0.0083  0.1793
 9370W        W24839   1.602  14.599   3.766  0.2132 -0.1090  0.2383
 9371W        W24840  17.086   0.827  12.266 -0.0418 -0.1157 -0.0560
 9372W        W24841  16.073  13.942   3.718 -0.2414  0.2063 -0.0071
 9373W        W24842  14.216  11.797   0.544  0.0843  0.0811 -0.0826
 9374W        W24843   8.764   2.435   0.901  0.0543 -0.2929 -0.0944
 9375W        W24844  11.443  14.458  14.319 -0.1553 -0.1019  0.0594
 9376W        W24845  10.681  13.625  15.856  0.5580 -0.3794  0.1627
 9377W        W24846   6.360  14.090   1.572  0.2901 -0.3114 -0.0064
 9378W        W24847  10.828  10.396  14.757  0.2659  0.1322 -0.0607
 9379W        W24848  10.234  13.480  13.591 -0.0709  0.1856  0.0896
 9380W        W24849   0.520   3.940  10.990 -0.0456  0.2833  0.1059
 9381W        W24850   4.234   7.026   1.346  0.3270 -0.0703 -0.0245
 9382W        W24851  14.882  17.625   0.629 -0.0965 -0.1916 -0.0093
 9383W        W24852   5.171  11.034   3.222 -0.1446  0.1530 -0.0688
 9384W        W24853   2.373   7.848   2.081  0.0955  0.1583  0.0972
 9385W        W24854   8.457   1.010   0.365 -0.2327 -0.0624 -0.2478
 9386W        W24855  12.106   9.372  11.836  0.0586  0.0356  0.0211
 9387W        W24856   6.784   1.816   3.785 -0.2181 -0.1709  0.1616
 9388W        W24857  17.976  13.598   3.226 -0.1204  0.0007  0.1546
 9389W        W24858   6.537   2.523   1.101  0.2047  0.0978  0.1556
 9390W        W24859  14.078   7.150   1.439 -0.3769 -0.4394  0.0239
 9391W        W24860  17.359  16.173  15.457  0.1005 -0.0078 -0.1427
 9392W        W24861  15.184   7.912   2.570  0.3918  0.1010  0.2659
 9393W        W24862  13.243   1.442   0.519 -0.0959  0.0483 -0.3034
 9394W        W24863  14.159   2.101   5.129  0.2025  0.0646  0.1579
 9395W        W24864   1.238   3.395   4.799 -0.3259  0.3619 -0.0011
 9396W        W24865  13.000  11.577   1.963 -0.1362 -0.1376 -0.1983
 9397W        W24866  14.033   1.737   1.392  0.1183  0.0105 -0.3182
 9398W        W24867  16.152   4.480   0.111 -0.0701 -0.4798 -0.4097
 9399W        W24868   8.216   6.020   1.867  0.0887 -0.2080 -0.0312
 9400W        W24869   2.025  15.770   0.512 -0.3151 -0.0695  0.0367
 9401W        W24870   8.945   1.271   3.941 -0.1147 -0.1168  0.0251
 9402W        W24871   5.065  15.737   0.532  0.3735 -0.3720  0.2401
 9403W        W24872   6.207   0.367   5.277  0.1661 -0.0030 -0.0073
 9404W        W24873  13.159   4.161   0.248  0.3054 -0.1817 -0.0886
 9405W        W24874  11.758   2.025  11.125 -0.1429 -0.1879 -0.1485
 9406W        W24875   9.405   0.217  13.724  0.3004  0.2140 -0.0935
 9407W        W24876  10.653   9.649   3.460 -0.0920  0.0211 -0.1170
 9408W        W24877  10.813  11.209  15.445 -0.1999 -0.2884 -0.1467
 9409W        W24878  11.122   3.567  12.947  0.0349 -0.3957 -0.1182
 9410W        W24879   0.332  16.232   4.220  0.1824 -0.2380  0.0485
 9411W        W24880   0.526   3.068   0.443  0.0122 -0.1545  0.0855
 9412W        W24881   1.885  15.305   0.681  0.0485  0.2970  0.1989
 9413W        W24882   2.070   5.953  12.726  0.2020  0.1103  0.0631
 9414W        W24883   0.382  10.779   1.781 -0.0083  0.0827 -0.2787
 9415W        W24884   5.313   7.206   2.748 -0.3765  0.1509 -0.0973
 9416W        W24885  10.590   3.541   2.165 -0.3782 -0.3479 -0.2785
 9417W        W24886   9.731   1.999  11.895 -0.0520 -0.1076 -0.2490
 9418W        W24887   2.013   4.982  13.095 -0.1973 -0.4165  0.1622
 9419W        W24888  16.674  16.683  16.171  0.0304  0.0242  0.2938
 9420W        W24889  13.612  10.334  13.903  0.1869  0.0124 -0.0794
 9421W        W24890  11.868  11.807  13.906 -0.0817  0.0060 -0.1681
 9422W        W24891   7.660   3.995  11.430  0.4093 -0.1234 -0.3714
 9423W        W24892  17.010   7.436   5.283 -0.0273  0.0747  0.1111
 9424W        W24893  13.893  10.645   4.764 -0.2231 -0.2201  0.0909
 9425W        W24894   9.296   7.737   5.523  0.1031  0.3301 -0.2375
 9426W        W24895   7.593   0.196  13.970 -0.1861  0.2505 -0.0679
 9427W        W24896   2.083  14.033   5.570  0.2503 -0.2239 -0.2869
 9428W        W24897  14.873   3.723   4.661 -0.2325  0.0490  0.1855
 9429W        W24898   3.514   0.645   1.757 -0.0396 -0.2563 -0.1196
 9430W        W24899  15.357   5.609   1.178 -0.0154 -0.0748 -0.1467
 9431W        W24900   6.141   9.417  13.105 -0.4545  0.0648  0.0657
 9432W        W24901  18.003   9.440  13.494 -0.1883 -0.2229 -0.0237
 9433W        W24902   1.011   6.895  11.682  0.1186 -0.1731 -0.0778
 9434W        W24903  17.485  12.475  12.338  0.1383  0.0592 -0.4255
 9435W        W24904   3.215   8.194   0.639 -0.0802 -0.0957 -0.0093
 9436W        W24905  16.749  12.864  10.904  0.1804  0.3398 -0.0077
 9437W        W24906  11.453  11.625  14.772  0.1273  0.3167  0.1615
 9438W        W24907  14.441   8.208  12.493  0.1816 -0.3341 -0.1430
 9439W        W24908  13.667  13.630   4.034 -0.1905 -0.2204  0.2483
 9440W        W24909  14.353   3.199   1.137 -0.1721 -0.1052  0.0426
 9441W        W24910  18.210   3.198   0.418  0.0825  0.1701  0.1369
 9442W        W24911   3.376  14.600   4.562  0.0820  0.1447 -0.3130
 9443W        W24912   2.455   4.627  13.866  0.1877  0.0551  0.2879
 9444W        W24913  13.414   3.104   5.212  0.2405  0.1200 -0.0534
 9445W        W24914   8.278   1.837   2.711  0.0505 -0.1568  0.3184
 9446W        W24915   5.924  12.879  15.850  0.1371  0.1884  0.0845
 9447W        W24916   8.413  10.681  12.756 -0.0602 -0.0980 -0.0879
 9448W        W24917  10.243  15.822   3.042  0.4105 -0.1777  0.0407
 9449W        W24918  12.941  17.319   2.457  0.0853  0.0551 -0.1754
 9450W        W24919   7.220   9.543   6.264 -0.1001  0.0437  0.0576
 9451W        W24920   6.090  15.989   0.699 -0.2436  0.0050 -0.3768
 9452W        W24921   1.042  17.131  13.710  0.0197  0.1829 -0.1848
 9453W        W24922  12.007   5.987   3.321 -0.0173 -0.1067  0.0426
 9454W        W24923   9.505   6.440  12.509 -0.1507  0.1043  0.2138
 9455W        W24924   1.760  12.152  12.053  0.2829 -0.0511  0.1371
 9456W        W24925  17.128   7.166   0.553 -0.1441 -0.2009 -0.1592
 9457W        W24926  10.254  10.911   3.078  0.1350 -0.0636  0.0585
 9458W        W24927   2.087   8.954   3.978  0.0640  0.2356 -0.2626
 9459W        W24928   1.731   1.680  12.066 -0.0006 -0.4502  0.0124
 9460W        W24929   9.215  12.845  15.309  0.0089  0.2152  0.0993
 9461W        W24930   0.029  16.639   3.137 -0.2519 -0.2440 -0.1203
 9462W        W24931   8.903   4.038   2.307 -0.0259 -0.0586 -0.1445
 9463W        W24932  16.229   7.559  14.064  0.0629  0.1801  0.0414
 9464W        W24933  10.511   1.030   3.902  0.3096 -0.1137  0.3338
 9465W        W24934   8.566   7.052   4.959 -0.1437  0.0269  0.2216
 9466W        W24935  12.365   6.240  11.609 -0.0240  0.0261  0.1777
 9467W        W24936  10.265  15.388   4.444  0.0819  0.0538  0.1214
 9468W        W24937   3.620  11.681  11.318 -0.1496  0.0126 -0.1249
 9469W        W24938  14.283  10.902   1.663  0.2837 -0.1078  0.0102
 9470W        W24939   2.490   4.813  11.437 -0.0677  0.0253 -0.0628
 9471W        W24940   5.639   1.598  10.905 -0.0670 -0.0695  0.1662
 9472W        W24941  14.282   5.111  13.828  0.1266 -0.0336 -0.0037
 9473W        W24942  16.378   5.046  13.370 -0.2632  0.2832  0.1364
 9474W        W24943  11.039  17.607   4.910  0.0626  0.1117  0.2009
 9475W        W24944  12.405  11.433   3.649  0.1956  0.0296 -0.0501
 9476W        W24945  13.304  17.216  14.698  0.1322 -0.4832  0.1704
 9477W        W24946   8.292  11.936  12.762  0.1688 -0.3678  0.0950
 9478W        W24947  12.775  15.110   2.826  0.2698 -0.0728  0.0019
 9479W        W24948   9.070   6.394  14.261 -0.1507 -0.3582  0.0869
 9480W        W24949   2.948  14.038  15.241 -0.0207 -0.3098  0.2476
 9481W        W24950   4.246  15.246   4.677 -0.1503 -0.0199  0.2727
 9482W        W24951   3.884   5.533  12.422 -0.0585 -0.2802 -0.0206
 9483W        W24952   2.077  13.024  10.071 -0.1200 -0.0914  0.2422
 9484W        W24953  14.470   7.023   5.229 -0.0380 -0.2447 -0.0298
 9485W        W24954   6.408   9.812  14.448 -0.1866  0.0911  0.3597
 9486W        W24955   9.301   5.893   5.708  0.0704 -0.0824  0.0962
 9487W        W24956  12.087  17.717  14.490 -0.0172 -0.1689 -0.2397
 9488W        W24957   6.864   6.466  11.449  0.3078  0.1269  0.0913
 9489W        W24958   7.956  18.167  14.097 -0.0274  0.1645 -0.0194
 9490W        W24959  14.388  10.975  12.605 -0.2382  0.1004  0.1487
 9491W        W24960   7.311   0.926  11.713 -0.1154  0.0557  0.2291
 9492W        W24961  12.004  17.059   3.795 -0.0007  0.0321 -0.0251
 9493W        W24962  15.843   3.139  12.203 -0.1902  0.2444 -0.1906
 9494W        W24963   0.651  10.587  15.655 -0.0061 -0.0062 -0.0266
 9495W        W24964   1.119   7.877  11.671 -0.0576 -0.0417 -0.1032
 9496W        W24965   9.709   4.654   2.574 -0.0844  0.2666  0.0409
 9497W        W24966  17.435   2.183  12.483 -0.0691 -0.0350 -0.1249
 9498W        W24967  12.351  17.325   2.506  0.1321 -0.0454 -0.1581
 9499W        W24968  11.851  14.609   5.539 -0.1547 -0.1662  0.0981
 9500W        W24969  14.897   1.714  12.665  0.2974  0.0858 -0.3111
 9501W        W24970   8.378  13.034   5.252 -0.2808  0.1830 -0.0535
 9502W        W24971   7.819   9.151   0.353 -0.0833 -0.2776  0.2918
 9503W        W24972  16.302   8.923  15.781  0.2140  0.3507  0.0526
 9504W        W24973  16.005   2.014  11.945 -0.1309 -0.0989  0.1790
 9505W        W24974   5.783   9.233   1.593  0.1831  0.0167 -0.0113
 9506W        W24975  13.490  17.271   2.371  0.1011 -0.0782 -0.0190
 9507W        W24976   4.779  11.541  12.165 -0.2047  0.3493 -0.1351
 9508W        W24977   5.864   4.965  14.546 -0.0647 -0.0749  0.0892
 9509W        W24978  10.317   7.321  12.144  0.2287 -0.2159  0.0174
 9510W        W24979   4.189   5.499  14.437 -0.0391 -0.3145  0.2134
 9511W        W24980  13.061  16.675  13.643 -0.1663 -0.0332 -0.0912
 9512W        W24981  16.510   1.699  13.124 -0.1167  0.5302 -0.0029
 9513W        W24982   8.471  13.201  15.564 -0.0717 -0.0118  0.2249
 9514W        W24983   8.859  14.912   1.149 -0.1069 -0.0473  0.0266
 9515W        W24984   3.267   4.830  14.739  0.1591  0.0107 -0.1138
 9516W        W24985   5.690  15.070  12.643  0.0167 -0.2730  0.1087
 9517W        W24986  11.383  15.852   5.013  0.0505 -0.1036  0.1502
 9518W        W24987  17.022   0.490  12.705  0.0933 -0.3130  0.1652
 9519W        W24988   0.688  12.290   2.684  0.2388 -0.3868 -0.2743
 9520W        W24989   4.345   4.995  15.475  0.2111 -0.1229 -0.2610
 9521W        W24990   8.910  11.994  15.308 -0.1125 -0.3139  0.1628
 9522W        W24991  17.491   8.089  12.605 -0.1669 -0.0789  0.0933
 9523W        W24992   9.533   4.814   0.766  0.1721 -0.1842  0.1517
 9524W        W24993  13.391  10.061   3.260  0.2947 -0.0893 -0.0433
 9525W        W24994  10.214   4.543  14.337  0.1031 -0.6143  0.1692
 9526W        W24995   8.483   0.215   1.090 -0.2363  0.2097 -0.0397
 9527W        W24996  12.307   3.892  13.801  0.1962 -0.1462  0.1757
 9528W        W24997   2.823  15.307  15.726  0.2350  0.0607  0.0587
 9529W        W24998  11.815   8.732  12.261  0.5071  0.0819  0.1087
 9530W        W24999   0.755   8.347  15.555 -0.0905  0.1751 -0.0398
 9531W        W25000   1.264   5.936   3.815 -0.0317 -0.2875  0.1592
 9532W        W25001  10.144  10.003   4.483 -0.1399  0.2974 -0.1756
 9533W        W25002   4.186  13.841   2.078  0.1559 -0.1229  0.0833
 9534W        W25003   2.882  11.125   0.009  0.0365  0.1434 -0.2428
 9535W        W25004  18.032  11.818   2.903 -0.2414  0.1678  0.0895
 9536W        W25005  12.513  15.449  13.335 -0.1069  0.2483 -0.1262
 9537W        W25006   4.164   6.825  14.362 -0.1046  0.0604 -0.1661
 9538W        W25007  15.128   9.390  14.762 -0.0166  0.2758  0.3390
 9539W        W25008  15.536   8.459   3.509 -0.1855  0.2065  0.1199
 9540W        W25009   0.390   7.474   4.609  0.3110 -0.0005  0.0906
 9541W        W25010  17.197  15.149   5.474 -0.1531 -0.1387 -0.3073
 9542W        W25011   6.242   0.065   1.590  0.0180 -0.1850 -0.0572
 9543W        W25012  14.842  10.290   2.783  0.2481 -0.0291  0.1712
 9544W        W25013   4.438  16.988  10.737 -0.1565 -0.1849  0.0114
 9545W        W25014  15.465  18.006   5.622 -0.0659  0.0526  0.1069
 9546W        W25015  13.937   9.258  12.018 -0.1195 -0.1486  0.0567
 9547W        W25016  13.195   0.837   6.125 -0.1346  0.4723  0.0007
 9548W        W25017   2.002  14.899  15.977  0.1188 -0.3266 -0.2211
 9549W        W25018  11.476  17.242  11.364  0.2672  0.1841 -0.1664
 9550W        W25019   2.781   8.949  13.959 -0.0965  0.2163  0.1163
 9551W        W25020  17.557  10.598   5.496  0.1206 -0.1228 -0.3284
 9552W        W25021   1.003   8.338   0.744 -0.0448 -0.1817 -0.1577
 9553W        W25022   5.187   5.887  12.986 -0.0230  0.1277 -0.0779
 9554W        W25023  11.392   5.290  11.409  0.2726  0.2497  0.1476
 9555W        W25024   1.054  17.415   0.475  0.0896 -0.1150  0.0116
 9556W        W25025  10.900   4.084   3.945 -0.0881  0.0169 -0.0276
 9557W        W25026   4.253   6.846   3.468  0.0521 -0.0522 -0.1283
 9558W        W25027   5.423  11.825  13.406 -0.0414  0.1332 -0.1493
 9559W        W25028   2.627   9.449  15.813 -0.1542 -0.0002 -0.1085
 9560W        W25029   5.873  10.384  12.767  0.0328  0.0568  0.0736
 9561W        W25030   9.912   3.291  13.601 -0.0939 -0.0351 -0.0686
 9562W        W25031   8.777   4.116   4.424  0.2449 -0.0693 -0.3190
 9563W        W25032  12.412   8.085  15.112  0.2099  0.2407 -0.0120
 9564W        W25033  12.674   4.610  13.471 -0.0974 -0.1490  0.0542
 9565W        W25034  13.734   1.256  12.349  0.1585  0.1518  0.0529
 9566W        W25035  12.445  11.153   4.107 -0.1856  0.1103  0.0219
 9567W        W25036  14.692   9.928   3.957 -0.0602 -0.2858  0.2166
 9568W        W25037   0.188   5.890  11.671 -0.1624 -0.0900 -0.2255
 9569W        W25038   6.525   8.802  14.226 -0.0646 -0.0949  0.3869
 9570W        W25039  11.517   8.948   2.918  0.0791  0.2236  0.1160
 9571W        W25040  15.449   8.239   0.792  0.0153  0.1053  0.2245
 9572W        W25041   9.772  14.711  16.128  0.0349  0.2010  0.0711
 9573W        W25042   2.278   2.963  12.829 -0.1840 -0.0868  0.1454
 9574W        W25043  12.785  16.462   5.177 -0.0872 -0.1069  0.0411
 9575W        W25044  10.549   8.029  10.953 -0.4560 -0.2694  0.2063
 9576W        W25045  16.400   6.110  10.778  0.0363  0.1754  0.0989
 9577W        W25046   0.561   9.488   2.852  0.2069  0.2608  0.4427
 9578W        W25047   0.187   3.002  12.127 -0.0459  0.0741 -0.0377
 9579W        W25048   4.045  16.936  15.029 -0.0383 -0.1887  0.0335
 9580W        W25049   7.568   5.496  12.564  0.0825 -0.0473 -0.0738
 9581W        W25050  13.558   3.473   3.937 -0.1717  0.3368 -0.0276
 9582W        W25051   7.159  16.079   2.515  0.0448 -0.2978 -0.2843
 9583W        W25052  15.664   7.593  15.301 -0.2546 -0.1866  0.0417
 9584W        W25053   9.546   9.975  13.012 -0.0271  0.0678 -0.1668
 9585W        W25054  16.329   5.511  11.663 -0.0733  0.1001  0.0937
 9586W        W25055  12.289   9.472   4.120  0.1226 -0.1763 -0.1186
 9587W        W25056   7.350  10.415   2.696 -0.0871 -0.1570  0.1208
 9588W        W25057   8.779   7.022  15.939  0.2747  0.0054 -0.0314
 9589W        W25058   4.337   3.999   3.153 -0.4428  0.3133 -0.1458
 9590W        W25059   1.436  13.545   1.261 -0.2458 -0.0970 -0.0516
 9591W        W25060  18.075   4.221   2.151 -0.0269 -0.2800  0.2518
 9592W        W25061  18.020   6.005  12.599  0.0774 -0.0490  0.0504
 9593W        W25062   9.823  10.394  11.381  0.2567  0.2681 -0.4338
 9594W        W25063   2.180   6.859  16.011  0.4704 -0.1019  0.0639
 9595W        W25064   9.790   3.921   3.757  0.1077 -0.1262 -0.1703
 9596W        W25065  13.929   3.814   4.943  0.2129 -0.0414 -0.1489
 9597W        W25066  16.892  17.443   5.208  0.4469  0.0727 -0.0365
 9598W        W25067   6.575  14.405  15.549 -0.1459  0.1082  0.1048
 9599W        W25068  10.628   5.293   6.021  0.0340 -0.3888  0.0556
 9600W        W25069  14.898   9.335   5.272 -0.1316  0.0089 -0.1862
 9601W        W25070  11.798   9.924  10.525  0.0166  0.3566  0.2285
 9602W        W25071   9.088  12.204  13.617 -0.0406  0.1057  0.2227
 9603W        W25072   5.308   1.220   5.613 -0.1430 -0.2217  0.3219
 9604W        W25073  11.242   2.412   0.091  0.0015  0.0223  0.0209
 9605W        W25074  15.281  16.978  13.572 -0.0448  0.2205 -0.0737
 9606W        W25075  17.948   5.183   2.960 -0.3734 -0.0069 -0.0931
 9607W        W25076   0.401   0.509  12.774  0.2591  0.2127  0.0616
 9608W        W25077   4.349   7.032  13.849 -0.0171 -0.1842 -0.1483
 9609W        W25078  10.690   4.862  13.671 -0.2114 -0.1521 -0.0389
 9610W        W25079  16.990  15.929  14.071  0.1198 -0.1100  0.1550
 9611W        W25080   0.457   3.541  11.469 -0.2519  0.2621  0.0642
 9612W        W25081   2.434   1.372   5.710 -0.0412 -0.2140 -0.2450
 9613W        W25082   3.744   4.413   2.429 -0.0787  0.3123  0.0637
 9614W        W25083  15.810   1.234  12.055 -0.1498 -0.0917 -0.0019
 9615W        W25084  10.900   5.100  14.754 -0.3384 -0.1359 -0.1218
 9616W        W25085  12.928  16.126  12.287  0.0676 -0.0063  0.0344
 9617W        W25086   7.403  12.523  15.855  0.2291  0.3328 -0.0266
 9618W        W25087   5.120  18.234  12.266  0.0025  0.0615 -0.0781
 9619W        W25088  16.048  11.154   4.023 -0.2677  0.0142 -0.0112
 9620W        W25089   1.825   2.992   2.011 -0.0741  0.1465 -0.1068
 9621W        W25090   5.856  11.852   0.610 -0.3568 -0.1471  0.0252
 9622W        W25091   8.544   7.588   0.684  0.0036 -0.0145 -0.1000
 9623W        W25092  12.140  16.867  14.353  0.2077 -0.0020 -0.2766
 9624W        W25093   7.469   1.110  12.233 -0.3899 -0.1563 -0.0042
 9625W        W25094   0.592   0.022   0.464 -0.2152 -0.3280  0.0863
 9626W        W25095   9.094   3.551  14.843  0.0431 -0.1698  0.1980
 9627W        W25096   8.054  15.272   3.954 -0.0547 -0.0351 -0.0630
 9628W        W25097  12.947   1.883   0.338  0.1156  0.1300 -0.1011
 9629W        W25098   2.064  15.723  10.876 -0.0658 -0.0582 -0.1846
 9630W        W25099  17.835   6.418  15.911 -0.3035  0.1854  0.2003
 9631W        W25100  16.296   4.106  13.948 -0.0284  0.1684  0.0010
 9632W        W25101  13.025  12.250   6.092 -0.1622 -0.1457  0.0925
 9633W        W25102   8.704   7.917  11.892  0.0673 -0.0830  0.0421
 9634W        W25103   2.380  12.310  12.826 -0.2196 -0.1583 -0.0062
 9635W        W25104  16.656  13.401  12.640  0.1888 -0.1664 -0.0041
 9636W        W25105   1.134   0.318   4.913  0.3826  0.0431 -0.0011
 9637W        W25106  12.846  15.652   0.228  0.1592  0.1471  0.0160
 9638W        W25107  17.695   2.829   3.661  0.2866  0.0986 -0.1692
 9639W        W25108   2.881   2.401  11.183  0.1538  0.1918 -0.2913
 9640W        W25109   1.251  10.553  15.380 -0.0838  0.0595 -0.0078
 9641W        W25110   4.522  11.349  12.573 -0.0362  0.0764  0.0662
 9642W        W25111   3.810  13.794   4.292 -0.2596  0.1114 -0.1305
 9643W        W25112   5.849  17.794  11.969 -0.0960 -0.0426  0.2658
 9644W        W25113   6.390   1.476   2.247  0.1397 -0.1712  0.3086
 9645W        W25114  12.838  12.846  14.050  0.2750  0.2769  0.1085
 9646W        W25115  17.205   1.778  14.043  0.3139  0.1372  0.1458
 9647W        W25116  11.965   0.105   1.295  0.1963 -0.0342 -0.0078
 9648W        W25117   0.927   2.542  14.861 -0.1301  0.0975  0.1320
 9649W        W25118  16.253  14.839  14.897  0.0421 -0.0085  0.0148
 9650W        W25119  14.729  10.549   0.931 -0.1569 -0.2277 -0.0820
 9651W        W25120   5.944   0.840  12.610 -0.1663  0.0718 -0.0224
 9652W        W25121  15.447   0.968   2.545  0.0855 -0.0209  0.2254
 9653W        W25122   2.296  15.054  15.584  0.2088 -0.0947 -0.2821
 9654W        W25123   6.326  10.226   0.226 -0.0733 -0.0073 -0.3141
 9655W        W25124   3.551  13.834   4.858 -0.2247  0.0868  0.0962
 9656W        W25125   5.214   9.408   2.740 -0.1894  0.3182  0.0628
 9657W        W25126  14.911   2.699  14.913 -0.1385  0.5654 -0.0787
 9658W        W25127   0.344  17.418   2.667 -0.3635  0.1014  0.3766
 9659W        W25128  11.471  10.416  11.664  0.4228  0.0789  0.0305
 9660W        W25129  11.402   7.768  11.888 -0.0861 -0.1969 -0.1225
 9661W        W25130   4.611  16.467   4.327 -0.0000  0.0034  0.0580
 9662W        W25131   0.105  10.442  14.867 -0.3221 -0.0222 -0.1955
 9663W        W25132   5.070  16.993  13.782 -0.1704  0.1831 -0.1099
 9664W        W25133   9.090   8.143   2.126 -0.1246 -0.1698  0.0925
 9665W        W25134   0.872   1.975  14.153  0.1136 -0.0908  0.0195
 9666W        W25135   8.544   5.395   4.256  0.0483  0.0547  0.2566
 9667W        W25136   1.287   1.167  13.617 -0.1024 -0.2160  0.0366
 9668W        W25137  17.552  17.045  15.452  0.0432  0.2804 -0.2641
 9669W        W25138   8.958   5.026   2.279  0.4103 -0.0240 -0.0979
 9670W        W25139   6.619  16.327   1.234 -0.0808 -0.0600  0.1702
 9671W        W25140  14.421  16.262   5.608 -0.1819  0.0197  0.1398
 9672W        W25141  16.102   3.088  14.213  0.0736  0.2353  0.2191
 9673W        W25142  14.282   9.848  12.825 -0.0059  0.1676  0.2210
 9674W        W25143   9.561   6.270  13.419  0.3981 -0.1205 -0.3012
 9675W        W25144   2.284   1.836   3.944 -0.0432  0.0828 -0.1014
 9676W        W25145   0.003   4.923   0.057 -0.2095  0.1410  0.1458
 9677W        W25146   9.717   7.617  11.160  0.3144  0.2508 -0.2659
 9678W        W25147   1.414  12.565  15.163 -0.1460 -0.0278  0.1388
 9679W        W25148  14.205   5.956   2.515 -0.0160  0.1619  0.0999
 9680W        W25149   2.311   5.352  15.881 -0.1004 -0.1118 -0.1200
 9681W        W25150   4.070   8.252  12.230  0.0037 -0.0866 -0.2106
 9682W        W25151   3.605  10.688   5.807 -0.0360 -0.0801 -0.2717
 9683W        W25152  10.050   2.588   4.846  0.2456 -0.0822 -0.0516
 9684W        W25153   1.326  14.385  14.989 -0.2983 -0.2623 -0.2292
 9685W        W25154  14.685   1.958   0.259 -0.2454 -0.3639  0.1262
 9686W        W25155  16.590  12.324  14.142 -0.0996 -0.0025 -0.4983
 9687W        W25156   7.845   7.751   0.109  0.1346 -0.1722  0.2306
 9688W        W25157  11.940   5.271   4.966  0.0539  0.1992  0.0633
 9689W        W25158  15.957   6.321  16.075 -0.1367 -0.0248 -0.0536
 9690W        W25159  10.983  15.424   5.838  0.1193 -0.4107  0.0207
 9691W        W25160   2.331  17.700   1.893 -0.0156 -0.1818 -0.2520
 9692W        W25161   2.363   9.161  14.178  0.3823 -0.0416 -0.1916
 9693W        W25162   8.039   9.217   4.980  0.2056  0.1833 -0.0287
 9694W        W25163  12.412   0.387  15.883  0.0477  0.1133  0.0778
 9695W        W25164  17.519   5.814   1.931  0.0723  0.0323 -0.0361
 9696W        W25165  17.623  12.408   5.160  0.2634 -0.1841 -0.1298
 9697W        W25166   2.956  13.480   2.256  0.2534 -0.0476  0.0189
 9698W        W25167   7.998  11.256  12.108 -0.0888 -0.0020  0.1056
 9699W        W25168   1.236  14.767   0.971 -0.0087  0.2151 -0.1570
 9700W        W25169  11.091   9.357   5.057  0.0242 -0.0987  0.2922
 9701W        W25170  11.498  12.971   1.152 -0.2757 -0.0083 -0.2519
 9702W        W25171   0.624   3.971   3.012  0.1490 -0.0212  0.2554
 9703W        W25172  16.919   2.867   4.079 -0.2435  0.2012 -0.1886
 9704W        W25173   9.858   0.955   3.040 -0.1080 -0.3923  0.1111
 9705W        W25174   4.069  15.446   2.335 -0.2452 -0.0945 -0.0365
 9706W        W25175   5.215  17.872   3.530 -0.2041  0.2474  0.3995
 9707W        W25176  14.988   1.090  15.757  0.0160 -0.2319  0.1999
 9708W        W25177  16.260  15.810  14.675  0.1282  0.0635  0.2752
 9709W        W25178   1.217   6.411   4.243 -0.1378  0.0562 -0.1801
 9710W        W25179   5.293   2.002   0.702  0.1340  0.0342 -0.4308
 9711W        W25180  10.112   7.354  15.077 -0.1229 -0.0340 -0.1193
 9712W        W25181  14.479  16.436  15.015 -0.1437  0.0391 -0.1355
 9713W        W25182   9.016  10.297   3.091  0.1433 -0.2076 -0.0830
 9714W        W25183  12.937   4.254  14.913 -0.0823  0.2721 -0.1928
 9715W        W25184   5.071   8.095   0.690  0.3964  0.1249 -0.1472
 9716W        W25185  11.108  15.426   1.112 -0.0479  0.1401 -0.0563
 9717W        W25186  13.696   0.559   5.056 -0.0741 -0.2331  0.0058
 9718W        W25187   8.971  16.435  12.417  0.1236  0.3448 -0.0055
 9719W        W25188  16.598  10.902   3.132 -0.0501 -0.1677 -0.1700
 9720W        W25189   8.910   0.762   4.131 -0.0074 -0.0671  0.0818
 9721W        W25190  12.444   6.487   4.246  0.1703 -0.2426  0.0001
 9722W        W25191   6.099  12.261  11.214 -0.3478  0.0707  0.0307
 9723W        W25192   7.360   7.687  13.497  0.0429  0.0720 -0.0211
 9724W        W25193   5.733   7.563  14.159 -0.3674 -0.1308 -0.1974
 9725W        W25194  16.337   2.326  11.682  0.0098  0.1291 -0.0784
 9726W        W25195   2.424  13.101  16.110 -0.1467  0.0098 -0.0995
 9727W        W25196  17.896  15.022   1.026 -0.0555  0.1102 -0.2175
 9728W        W25197   5.777   6.158  15.923  0.1799 -0.2602 -0.0515
 9729W        W25198  11.332  16.971   4.289 -0.1325 -0.2635  0.1108
 9730W        W25199   2.854   3.593   2.823 -0.0208 -0.0292  0.1490
 9731W        W25200   9.832  14.218   4.581  0.0384  0.0157  0.0027
 9732W        W25201   2.168  11.031   1.111 -0.2366 -0.0717  0.1578
 9733W        W25202   3.002  12.093   2.481 -0.0497 -0.2780  0.2063
 9734W        W25203   9.510  17.753   4.137 -0.3192  0.1549  0.1298
 9735W        W25204   8.758   0.218   5.371 -0.0477  0.3609  0.1104
 9736W        W25205  18.281  13.747  13.757 -0.0093  0.0912  0.2008
 9737W        W25206  11.285   0.448   0.742 -0.2313 -0.1495  0.2102
 9738W        W25207   2.514  15.953  13.909  0.1135 -0.1018 -0.0858
 9739W        W25208   0.481  11.456  12.933  0.0723  0.1075  0.1334
 9740W        W25209   6.232   3.215   1.971  0.1464 -0.0349  0.0361
 9741W        W25210  15.846   9.390  13.548 -0.2052 -0.2321  0.0951
 9742W        W25211  14.611  11.296   2.783 -0.0655 -0.1995  0.2838
 9743W        W25212  15.048   7.848  11.550  0.1086 -0.0719 -0.1548
 9744W        W25213   6.507   7.393   5.007  0.1374  0.0830  0.0462
 9745W        W25214  17.326   8.833  13.461 -0.1041  0.0919  0.2233
 9746W        W25215  17.070   7.911  15.280 -0.1211  0.3000 -0.1029
 9747W        W25216  14.634   7.771  12.756  0.0338 -0.1302 -0.1620
 9748W        W25217   2.100   7.157   1.258  0.0340  0.1178  0.2260
 9749W        W25218  18.236   4.597  13.049  0.0355  0.2157 -0.3124
 9750W        W25219  10.636   7.143  13.152  0.1729  0.1640 -0.2328
 9751W        W25220  14.432  16.596   0.044 -0.0477  0.1363  0.1835
 9752W        W25221   7.479   3.574  15.816 -0.1664  0.1356  0.0022
 9753W        W25222  10.173   3.911   2.861  0.1159 -0.1343  0.1317
 9754W        W25223   4.145  13.119   1.028 -0.0624  0.3316 -0.1028
 9755W        W25224  14.608  15.230   2.574  0.2514 -0.3577  0.1679
 9756W        W25225   0.971  10.306  13.191 -0.3399  0.0447  0.1556
 9757W        W25226   7.957  12.075   4.179 -0.2242 -0.0279  0.0199
 9758W        W25227   0.548   9.281  16.125 -0.1166  0.1678  0.1628
 9759W        W25228   1.329   8.029   2.142  0.1110 -0.1369 -0.4472
 9760W        W25229  10.658   2.325   5.742 -0.1628 -0.2210 -0.0853
 9761W        W25230   0.895   7.684   1.370  0.2827  0.0350 -0.1688
 9762W        W25231   2.471   9.999   3.807 -0.3422  0.1622 -0.1567
 9763W        W25232  15.879   3.446  10.501  0.0199 -0.0174 -0.0152
 9764W        W25233  14.890  10.898   3.985  0.0857 -0.0092  0.0163
 9765W        W25234   7.309   3.260   6.120  0.0207 -0.1088  0.0525
 9766W        W25235  13.279  12.890   4.317  0.2225 -0.1863  0.0598
 9767W        W25236  17.370  15.410  11.758 -0.4509  0.1796 -0.3734
 9768W        W25237  15.592   2.759   3.804  0.0515  0.0211  0.1623
 9769W        W25238  10.249  14.019  13.694  0.1139  0.1222  0.1201
 9770W        W25239   5.545   3.851   1.379 -0.3232 -0.0785  0.2141
 9771W        W25240  10.517   1.951   2.757  0.0610  0.1556  0.1228
 9772W        W25241   6.099  11.479  14.959  0.0057  0.0797  0.1090
 9773W        W25242  14.545   1.175  14.830  0.0277  0.0452  0.4043
 9774W        W25243  10.449  12.764   4.149  0.1290  0.1603  0.2603
 9775W        W25244  11.739  14.630  15.176 -0.1402 -0.1194 -0.0336
 9776W        W25245   8.945   7.791   1.806  0.2334  0.1657 -0.0801
 9777W        W25246   1.072  11.921  11.447  0.0106 -0.0516 -0.1460
 9778W        W25247   9.575   9.140   0.441 -0.2804 -0.0287  0.2962
 9779W        W25248   1.565   6.800  14.707 -0.1086 -0.0159 -0.1634
 9780W        W25249  14.605  10.245   4.395  0.1295 -0.3125  0.4807
 9781W        W25250  12.981   4.443  11.576 -0.3185  0.2587 -0.0633
 9782W        W25251   8.307   8.675   0.127  0.0755  0.1341  0.1067
 9783W        W25252   9.334  11.744   3.506  0.2349 -0.0347  0.0344
 9784W        W25253  17.867   3.103  13.361  0.0758  0.0594  0.1655
 9785W        W25254  10.357  16.454  13.002 -0.0742  0.1931  0.0751
 9786W        W25255  13.497  10.757   2.705 -0.2641  0.3385 -0.1210
 9787W        W25256   5.233  12.732  13.849 -0.3080  0.3202  0.2494
 9788W        W25257  13.598  14.756   0.643 -0.1045 -0.1662  0.1675
 9789W        W25258   1.778   9.293  15.969  0.0040 -0.0002  0.0835
 9790W        W25259   3.079   7.994  11.400 -0.3130 -0.1422 -0.1137
 9791W        W25260  11.318  14.171   0.801 -0.2024  0.0542 -0.0836
 9792W        W25261   8.400   3.362   0.694  0.0153  0.1154 -0.3588
 9793W        W25262  16.066   3.172   0.735  0.0077  0.0507  0.0737
 9794W        W25263   6.576  11.530  10.936  0.2512  0.2203  0.2988
 9795W        W25264   9.364  14.737   1.310 -0.1667 -0.0770 -0.1848
 9796W        W25265   8.323  10.877  12.029  0.0035 -0.1597 -0.3282
 9797W        W25266   6.742  10.345   2.524  0.0704 -0.1561  0.1451
 9798W        W25267   4.124   8.157   2.402 -0.1895  0.1479  0.0985
 9799W        W25268   6.144  11.699  11.619  0.2834 -0.0667  0.4650
 9800W        W25269   7.476   0.144  12.496  0.1051  0.0236 -0.2093
 9801W        W25270   1.759  14.456  14.728  0.1443 -0.0523 -0.1513
 9802W        W25271   2.119   6.206  14.036 -0.0057 -0.3051 -0.4092
 9803W        W25272   7.372  16.397   4.538  0.0732  0.2906  0.1956
 9804W        W25273  14.311   2.156  16.150 -0.1483  0.0039 -0.0489
 9805W        W25274   8.449  11.825  15.511  0.0796 -0.1649 -0.8174
 9806W        W25275   4.912  17.506   2.913 -0.0923 -0.0865  0.2845
 9807W        W25276  17.620  15.078  14.899  0.1270 -0.0240 -0.2534
 9808W        W25277  18.230   0.829  13.679 -0.3301 -0.2053  0.1032
 9809W        W25278   1.799   8.717  14.786  0.2169 -0.0696 -0.0436
 9810W        W25279  11.591  14.055   3.655  0.1856 -0.0082 -0.2002
 9811W        W25280   5.967   8.296   1.203  0.2334  0.0799 -0.3765
 9812W        W25281   7.698  16.761  11.170  0.0466  0.1724 -0.2700
 9813W        W25282   7.142  16.434   5.284  0.0435 -0.1666 -0.0350
 9814W        W25283  13.957  10.567  14.194  0.0227  0.1605  0.0455
 9815W        W25284   6.978   2.499   4.486  0.3274  0.1300  0.1876
 9816W        W25285  13.325  12.412  11.997  0.1180 -0.0219 -0.1870
 9817W        W25286  12.294   6.732  14.236 -0.1863 -0.2486  0.2201
 9818W        W25287   1.450   4.280   4.950  0.1428  0.1286  0.1467
 9819W        W25288  13.630  13.009  13.076 -0.0899  0.2069  0.0480
 9820W        W25289   3.957  18.148  12.630 -0.2414 -0.2817 -0.1330
 9821W        W25290  13.602   7.795   3.875  0.0463  0.0388 -0.1804
 9822W        W25291  13.985   2.742   3.000  0.0472 -0.1132  0.0047
 9823W        W25292  13.105   9.752  12.944 -0.0679  0.1992  0.2619
 9824W        W25293  10.416  12.170   1.793  0.1712  0.0626 -0.1106
 9825W        W25294  14.516   9.980  14.120  0.1552  0.0708  0.3213
 9826W        W25295  10.970   5.713  14.931 -0.1966  0.3200 -0.0377
 9827W        W25296   1.596   6.568   5.121  0.0973  0.1476  0.0550
 9828W        W25297  15.520   1.882   1.085 -0.1964  0.0571 -0.1270
 9829W        W25298  12.515   8.437   1.941  0.1082  0.1684  0.1581
 9830W        W25299  15.861   5.356   3.798  0.1278  0.1852 -0.0871
 9831W        W25300   4.465   5.852   3.495  0.0208 -0.1540  0.2103
 9832W        W25301  16.479   6.748  15.908 -0.1832 -0.0937 -0.1210
 9833W        W25302   8.439   0.204  11.149 -0.0032 -0.1640 -0.0379
 9834W        W25303   2.761  17.911  11.996  0.1475  0.2046 -0.3842
 9835W        W25304  10.141  11.909   0.832  0.2420 -0.1207  0.2250
 9836W        W25305   1.659   8.796   6.244 -0.1207 -0.0079 -0.0587
 9837W        W25306  12.901   9.935   2.867 -0.0475  0.0377  0.0863
 9838W        W25307   0.632  14.812  14.191 -0.0960  0.1451  0.2328
 9839W        W25308  13.074   3.079   5.766 -0.2007 -0.2322 -0.0283
 9840W        W25309   9.806   9.712  15.340 -0.1028 -0.0847  0.1716
 9841W        W25310  10.493   8.560  10.765 -0.1013 -0.1456  0.1587
 9842W        W25311  14.029   9.779   0.002  0.2466 -0.0292 -0.1191
 9843W        W25312   7.772   9.362   5.356 -0.0589  0.1281 -0.1728
 9844W        W25313  11.217  16.613   5.175  0.0949  0.1860 -0.2812
 9845W        W25314   8.739   2.469  10.620  0.2764  0.0260 -0.0662
 9846W        W25315  13.203  11.942  13.421 -0.1418 -0.0644  0.0040
 9847W        W25316  14.678   6.029  14.326  0.2729 -0.0690 -0.1193
 9848W        W25317   4.632   3.788  16.016 -0.0062 -0.1588 -0.1065
 9849W        W25318   2.113   4.557  15.474 -0.0705  0.3720  0.0148
 9850W        W25319   0.382   3.147  13.341 -0.2226 -0.0262 -0.0974
 9851W        W25320   6.141  11.020   3.067 -0.5482  0.4061 -0.2303
 9852W        W25321  18.275   4.877   4.048 -0.2951  0.1662 -0.3279
 9853W        W25322  16.742   8.841  14.517  0.2628 -0.1476 -0.1914
 9854W        W25323   0.738   9.770   2.457  0.2901  0.2819 -0.2202
 9855W        W25324   9.368  13.647   0.666 -0.0302  0.1232 -0.2598
 9856W        W25325  15.084   2.121   6.194  0.1623 -0.0506  0.1636
 9857W        W25326   0.573   2.352  11.633  0.0490 -0.2981 -0.0827
 9858W        W25327   1.875   0.495   2.249 -0.3662  0.0352  0.1473
 9859W        W25328   0.673  14.405  15.866 -0.0503  0.2141 -0.0294
 9860W        W25329   4.650   8.581   2.845  0.2436 -0.1370  0.0779
 9861W        W25330  16.377   0.915   4.760 -0.2324  0.2237  0.0818
 9862W        W25331   0.729  13.082  14.643  0.2762 -0.2728 -0.3307
 9863W        W25332  12.570   0.492   1.347  0.3283  0.1387 -0.3895
 9864W        W25333   9.236   1.416  11.618  0.4500  0.0805 -0.4401
 9865W        W25334   7.886   6.024   4.442  0.2961 -0.1352  0.4043
 9866W        W25335   3.860  15.643  11.849 -0.1442 -0.2344 -0.1462
 9867W        W25336   7.474  15.012  14.961 -0.0412  0.1878  0.2952
 9868W        W25337   1.994   8.260  15.599 -0.0707  0.1954  0.1343
 9869W        W25338  17.951   4.650  10.956 -0.2720 -0.2118  0.0262
 9870W        W25339  13.313   0.475   4.208  0.1975 -0.1511  0.1301
 9871W        W25340   3.164   1.723  13.939  0.0110 -0.0447  0.3374
 9872W        W25341   1.816  11.451  12.621  0.0698 -0.0711  0.2982
 9873W        W25342   4.931   8.463  15.350  0.3073 -0.2773  0.1500
 9874W        W25343  16.480   5.131   3.694 -0.1071  0.3057  0.2358
 9875W        W25344  10.667  10.865  12.427  0.1222 -0.2780  0.1481
 9876W        W25345  17.258   0.813   0.105  0.1010 -0.0936 -0.0665
 9877W        W25346   9.462  14.490  12.635 -0.1112  0.0348  0.1278
 9878W        W25347  10.055   6.056  11.398 -0.0827 -0.0550  0.0290
 9879W        W25348   0.857  15.124   3.176 -0.1464  0.4151 -0.2531
 9880W        W25349   9.639  10.998   0.529  0.0595 -0.2594 -0.3276
 9881W        W25350   0.710   1.575  11.790  0.1881 -0.2709 -0.1335
 9882W        W25351  11.821  15.680  13.829  0.2863  0.3385  0.0672
 9883W        W25352   6.471   1.623  12.538 -0.1856 -0.0127 -0.0154
 9884W        W25353  10.768   5.004  10.590  0.0827 -0.1184 -0.0897
 9885W        W25354   7.015  10.017   4.131  0.2496 -0.0364 -0.0080
 9886W        W25355   8.450   1.156  16.006 -0.2203 -0.1508 -0.2693
 9887W        W25356  11.557   7.824  10.038  0.0372  0.0933  0.0430
 9888W        W25357   6.812  15.457  15.497  0.1108  0.1563 -0.0189
 9889W        W25358   8.399   6.709   4.114  0.0299  0.1194 -0.1089
 9890W        W25359   4.898   0.858  11.935  0.0452 -0.0518  0.0583
 9891W        W25360  14.478  17.428   4.063 -0.0502  0.0012  0.2078
 9892W        W25361   1.712   4.573   0.227  0.2186  0.0343 -0.0114
 9893W        W25362   9.546  17.162  13.173  0.1164 -0.0487  0.0234
 9894W        W25363   0.568  12.626   1.364  0.0482  0.1348 -0.4336
 9895W        W25364  13.688  12.912   3.433  0.1192 -0.1822  0.0797
 9896W        W25365   8.329  13.994  16.096  0.2824  0.0574 -0.0561
 9897W        W25366   4.377  11.806  15.611 -0.0421 -0.1087  0.2520
 9898W        W25367   8.875   2.704  11.996  0.0438 -0.2998 -0.1734
 9899W        W25368  12.043   8.794   1.606 -0.4365  0.0530  0.0252
 9900W        W25369  13.545  17.321   5.249  0.2114 -0.2940  0.1327
 9901W        W25370   5.828   9.192  14.940 -0.0156 -0.0564  0.0996
 9902W        W25371   1.512   9.513   4.984  0.0055  0.2705  0.0907
 9903W        W25372   7.828   1.462  13.418 -0.1050  0.0061 -0.1803
 9904W        W25373   0.284  10.366  10.208  0.0609 -0.5131  0.0550
 9905W        W25374   4.381  16.450  12.949  0.0819  0.1957  0.0672
 9906W        W25375   0.889   3.499  11.697 -0.1168  0.0022 -0.0373
 9907W        W25376   2.558   6.774   2.699  0.3703 -0.1727 -0.0948
 9908W        W25377   0.408   0.572   3.523 -0.1767 -0.1806  0.0527
 9909W        W25378   2.838   9.116   4.508 -0.0184 -0.0662  0.0367
 9910W        W25379   8.085  17.389  11.855 -0.0871 -0.0313 -0.0001
 9911W        W25380   3.238  10.767   3.081  0.1506 -0.1009  0.1691
 9912W        W25381  10.867  12.367   1.146 -0.0383  0.1521  0.3215
 9913W        W25382  10.829   3.224   2.947 -0.0588 -0.0039  0.0870
 9914W        W25383   2.528   6.985  11.802 -0.0767 -0.5861  0.0911
 9915W        W25384   7.456  16.993   2.584 -0.2380 -0.2569 -0.1365
 9916W        W25385   4.231   1.495   3.547 -0.0047 -0.1233 -0.3135
 9917W        W25386  12.754  16.548  11.272 -0.1438 -0.1920  0.2794
 9918W        W25387  14.298   4.543   4.334 -0.0896 -0.0764  0.0670
 9919W        W25388   3.375   9.530  12.900 -0.2638  0.1798 -0.2262
 9920W        W25389  17.858  13.644   0.930  0.2981  0.2168 -0.1026
 9921W        W25390  10.850  13.540  14.955  0.0141 -0.1117 -0.2255
 9922W        W25391   8.107  13.749   1.490  0.1282  0.2213  0.0844
 9923W        W25392  12.314   0.442  10.340  0.2022  0.3291 -0.0990
 9924W        W25393  16.054   4.334  11.697 -0.1571 -0.1330 -0.0654
 9925W        W25394   5.042  18.203  12.775  0.2827 -0.0459 -0.1399
 9926W        W25395   6.435   2.575  13.796 -0.1769 -0.2759  0.1244
 9927W        W25396  14.336   8.153   2.855 -0.1432  0.1233  0.2474
 9928W        W25397  15.694  11.488  14.249 -0.1337  0.2681 -0.2437
 9929W        W25398  13.705   5.050  10.704  0.1830  0.0674 -0.0308
 9930W        W25399   7.089  16.916   5.346 -0.0931 -0.0544  0.0206
 9931W        W25400   9.809   7.924  12.890  0.0446 -0.0084 -0.0425
 9932W        W25401  10.055  17.051  14.827  0.1570 -0.0061  0.3502
 9933W        W25402   8.946  16.312  15.433  0.0783 -0.0499 -0.2440
 9934W        W25403  15.301  13.340  15.575 -0.1627  0.1233 -0.1824
 9935W        W25404   9.040   2.547   4.795  0.0901 -0.2453 -0.1554
 9936W        W25405  17.601  17.147  13.218 -0.0806 -0.0820 -0.0728
 9937W        W25406   5.091  15.839  14.000 -0.0083 -0.0100  0.0431
 9938W        W25407  12.395   5.320  11.618 -0.3712 -0.0396  0.1588
 9939W        W25408   9.009   7.455  13.977  0.0638  0.0295 -0.0312
 9940W        W25409   8.637   3.386  14.712  0.1771  0.1712 -0.1390
 9941W        W25410  16.246  16.221   0.610 -0.3525  0.1959  0.1985
 9942W        W25411   0.486   5.283  12.954  0.3216  0.0316 -0.0475
 9943W        W25412   5.443   4.541  12.718 -0.2859  0.2318 -0.2757
 9944W        W25413  15.393  16.169  14.935  0.0911 -0.1507 -0.1545
 9945W        W25414  16.973  15.336  15.319 -0.1537  0.1721  0.1908
 9946W        W25415   3.315  10.969  15.995 -0.0517 -0.1023  0.1443
 9947W        W25416  13.110  15.270  14.974 -0.0091  0.0036  0.0245
 9948W        W25417  13.536  12.877   0.504  0.1005  0.1977 -0.0214
 9949W        W25418  17.024   9.178   3.805 -0.3514 -0.0322 -0.0934
 9950W        W25419   0.317   0.510  13.652 -0.0242 -0.0471  0.1622
 9951W        W25420   3.254   9.749   4.223  0.0352 -0.0053  0.0998
 9952W        W25421   9.866   6.731   1.452 -0.1948 -0.1553 -0.0613
 9953W        W25422  13.340   1.736  11.913 -0.1645 -0.1062 -0.0030
 9954W        W25423   0.317  14.578  14.681  0.0047 -0.0863 -0.0301
 9955W        W25424   3.850  11.921  11.657 -0.3140 -0.1250 -0.2162
 9956W        W25425  12.902   2.788   0.355 -0.0431 -0.2100  0.2457
 9957W        W25426   9.150  12.767  13.252  0.0873  0.0464  0.0600
 9958W        W25427  16.486   6.460  14.857 -0.2039 -0.2351  0.0068
 9959W        W25428  12.031   6.455   5.422  0.0457  0.0723  0.1370
 9960W        W25429   9.292  16.894   4.086 -0.0123  0.0381 -0.1464
 9961W        W25430   3.882  17.404   1.004  0.1827 -0.2726  0.0682
 9962W        W25431  12.517  16.473  11.695  0.1760  0.1827  0.2814
 9963W        W25432  10.918   9.152   2.160 -0.0940 -0.2133 -0.0003
 9964W        W25433  10.546  11.697  15.200 -0.1788 -0.1681 -0.0229
 9965W        W25434  12.533   0.802   5.863  0.1421  0.1970 -0.0237
 9966W        W25435   0.305  10.890  11.535 -0.0338 -0.1520  0.1748
 9967W        W25436   8.746   4.612   3.707 -0.0710  0.1655  0.1919
 9968W        W25437  12.501  18.199  11.966  0.3776 -0.0120  0.2524
 9969W        W25438  11.155   9.665  11.338  0.2094 -0.0757  0.0233
 9970W        W25439   5.239   8.852   4.978 -0.1758  0.1154 -0.1808
 9971W        W25440   2.664   3.325   0.656  0.0862 -0.1402 -0.0437
 9972W        W25441   6.113  11.096   3.555 -0.2066  0.2181  0.3104
 9973W        W25442   4.481  13.398   3.422 -0.2871 -0.0864 -0.3269
 9974W        W25443  17.142  11.523   2.014  0.0279  0.0655  0.0562
 9975W        W25444   9.778  13.300  14.786  0.0477 -0.1571  0.1801
 9976W        W25445   1.114   2.898   6.016 -0.1397 -0.0216  0.2966
 9977W        W25446   4.831   8.682   4.214  0.0305  0.0306 -0.1255
 9978W        W25447   8.961   9.306  13.093 -0.1245 -0.0576 -0.1503
 9979W        W25448  15.434   4.028  12.292 -0.0200 -0.1194 -0.1078
 9980W        W25449  18.273  10.234   1.063 -0.0875  0.3247 -0.3172
 9981W        W25450  16.260   7.358  11.232  0.1506 -0.1465 -0.0621
 9982W        W25451   1.089  10.820   5.754  0.1866 -0.1130  0.3074
 9983W        W25452  12.075  10.807  16.039  0.2721  0.0041  0.0497
 9984W        W25453  18.279  12.470  12.969 -0.1672 -0.1395  0.0724
 9985W        W25454  15.380   9.090  13.290 -0.0807  0.3714  0.1928
 9986W        W25455   0.790   6.812   1.245  0.1701  0.0820 -0.0177
 9987W        W25456   3.849   1.065   4.405 -0.5912 -0.2614 -0.3104
 9988W        W25457   7.884   1.583   2.131  0.2024  0.0819 -0.1514
 9989W        W25458  11.605   0.318   1.715  0.3605  0.4491 -0.2589
 9990W        W25459   2.700   0.468   4.635 -0.3104 -0.1448  0.0109
 9991W        W25460  12.043  10.728   3.448  0.1893  0.2165  0.1762
 9992W        W25461   5.421  12.437  10.800 -0.1534 -0.0159 -0.0400
 9993W        W25462  14.189  17.199  10.710 -0.0999 -0.1764  0.1313
 9994W        W25463   8.885  16.709  10.995  0.2293  0.1463  0.3129
 9995W        W25464   5.615   6.070  12.275 -0.0168  0.0406 -0.0682
 9996W        W25465   9.790   8.010   3.320 -0.2472 -0.1733 -0.0791
 9997W        W25466   6.072  12.442  16.170 -0.0783 -0.1690 -0.2493
 9998W        W25467  17.438   0.248   1.759  0.3551 -0.1454  0.0614
 9999W        W25468  12.433   4.188   1.645  0.0723  0.0312  0.0622
10000W        W25469   1.780  13.638   5.484  0.0729 -0.0669 -0.0566
10001W        W25470   4.280   1.211   1.150  0.0980 -0.2910 -0.1144
10002W        W25471  14.956  15.033  14.384 -0.0181 -0.3467  0.1755
10003W        W25472   3.948   3.023   4.840  0.0167  0.2845 -0.1833
10004W        W25473  18.171  13.671   2.069  0.1154  0.1753  0.0840
10005W        W25474   2.949   0.741   2.382 -0.1324 -0.2572 -0.0433
10006W        W25475   7.261  13.196  15.708  0.0327  0.1302  0.3416
10007W        W25476   8.826   7.835  14.483  0.1587 -0.2447 -0.1118
10008W        W25477   1.919   8.976   3.363  0.0510  0.2534 -0.1055
10009W        W25478   0.307  14.754  13.625 -0.3800  0.0829  0.0353
10010W        W25479  14.975   5.890  13.478  0.1160  0.1285  0.0005
10011W        W25480  16.990  13.679  15.645 -0.0277 -0.1609 -0.1457
10012W        W25481   2.169   4.507   6.106 -0.0193  0.0565 -0.0218
10013W        W25482  11.583   1.062   5.980 -0.0510 -0.2614 -0.3455
10014W        W25483   4.562  15.274   0.343  0.0173 -0.0678  0.2169
10015W        W25484   7.740  13.870  11.440 -0.2846 -0.2142  0.0905
10016W        W25485  16.775  16.976  14.731 -0.0111  0.1314 -0.3647
10017W        W25486   4.981  10.600  15.288 -0.2443 -0.3989  0.1470
10018W        W25487   9.277   7.348   4.485  0.2096 -0.1012 -0.0987
10019W        W25488   3.142  15.539  10.955  0.1907 -0.0819 -0.0210
10020W        W25489   5.929   0.751   2.615  0.3450 -0.0274  0.1664
10021W        W25490   2.943  16.588   5.913  0.1691 -0.0158  0.1474
10022W        W25491   6.628  13.177   0.170  0.0177  0.0392 -0.0280
10023W        W25492   7.075   9.160   4.167 -0.1519 -0.3647 -0.0980
10024W        W25493   2.238  15.246  10.973  0.1142  0.0530 -0.0415
10025W        W25494   1.391  10.556  12.464  0.0837  0.3995  0.0178
10026W        W25495   4.076  10.105   1.118 -0.1051  0.3031 -0.3401
10027W        W25496   2.470  10.993   4.333 -0.2055  0.0330 -0.0046
10028W        W25497   7.910   4.544  15.971 -0.0441  0.0899  0.0643
10029W        W25498   6.022  10.446   0.754 -0.0876  0.2059  0.1296
10030W        W25499  13.901  12.466   5.034 -0.1900 -0.0691  0.3567
10031W        W25500   9.874   9.210  12.352  0.0398  0.2176 -0.4252
10032W        W25501   6.576  10.299   3.851  0.3800  0.3329 -0.1467
10033W        W25502   0.154   1.843   1.642 -0.3867 -0.3533  0.0638
10034W        W25503   2.176   9.518  15.631  0.0086  0.2513  0.2423
10035W        W25504   2.970  13.234  12.382 -0.0381  0.1024  0.0473
10036W        W25505   0.134  15.926  10.990 -0.2984  0.4119  0.0885
10037W        W25506   4.571  14.792  15.361 -0.0101 -0.2435  0.2038
10038W        W25507  12.463   5.708  11.955  0.0123 -0.1077  0.0749
10039W        W25508  13.730  11.102   4.856 -0.0537 -0.0769  0.1646
10040W        W25509   0.212   2.404   3.606  0.3651 -0.2476  0.1549
10041W        W25510   4.385   9.825   3.778 -0.0060  0.0519  0.1258
10042W        W25511   3.238   3.110  12.894  0.3569  0.2424 -0.2661
10043W        W25512  17.659  10.844   4.537  0.1373  0.2047  0.2023
10044W        W25513  16.740  11.102  15.053  0.1694  0.3275  0.1652
10045W        W25514  11.481   3.517   2.181  0.1254 -0.0763  0.1309
10046W        W25515   8.808  17.692  13.655 -0.2039 -0.0537  0.1246
10047W        W25516  13.315   3.435  12.804  0.1969  0.0247 -0.2111
10048W        W25517  12.864  11.702   4.691  0.0097 -0.2879  0.2621
10049W        W25518   5.593  15.625  15.409 -0.1126 -0.2222  0.0233
10050W        W25519  12.690   9.113   5.327 -0.1039  0.0478 -0.2665
10051W        W25520  14.823  12.071  13.215 -0.0127  0.0961  0.2942
10052W        W25521   4.966  10.576   1.466 -0.1515  0.0229 -0.1767
10053W        W25522  17.434   5.004  12.491  0.0857 -0.0362  0.0163
10054W        W25523  16.184   2.722  14.824 -0.1978 -0.0087  0.1004
10055W        W25524  14.240   2.631   3.856 -0.3057  0.0211 -0.1956
10056W        W25525  14.650   7.184   6.300  0.3277 -0.1153  0.0830
10057W        W25526   3.638  16.479   3.449 -0.0197  0.1844  0.1464
10058W        W25527   8.667  14.596   3.641 -0.0605  0.2076  0.3856
10059W        W25528  14.931  13.381   3.010 -0.1920 -0.2492  0.1495
10060W        W25529   7.806  13.882   1.118  0.0530  0.4325 -0.0981
10061W        W25530   9.341   4.947  12.212  0.0433  0.0374  0.1337
10062W        W25531   2.994   9.467   1.559 -0.0727 -0.1241  0.0446
10063W        W25532   5.243   2.345  15.232 -0.2393  0.0489  0.0745
10064W        W25533  17.961  12.506  15.565 -0.2329 -0.0606 -0.0925
10065W        W25534  12.745  16.420   0.509 -0.1896 -0.1556  0.1332
10066W        W25535   1.955  13.609  14.517 -0.1626  0.0530 -0.0989
10067W        W25536  13.591   6.677  11.991  0.3040  0.1602  0.3113
10068W        W25537  16.893   1.367   0.559 -0.4428 -0.3209 -0.0711
10069W        W25538  13.964   9.480  14.843  0.3180 -0.1800  0.2009
10070W        W25539  17.424   0.020  14.190 -0.0244 -0.0715  0.2014
10071W        W25540   0.207   3.056  12.631  0.2461 -0.0681 -0.2110
10072W        W25541  12.403  15.493  12.186 -0.0386 -0.0815  0.1886
10073W        W25542   2.311  16.981  14.581  0.2091 -0.1827 -0.1501
10074W        W25543  15.836  13.231  12.531 -0.1374 -0.1595  0.1081
10075W        W25544  12.521  14.991  13.121 -0.0522 -0.2352  0.3303
10076W        W25545  17.192   9.167   4.594 -0.1537 -0.1650  0.2468
10077W        W25546   3.436  17.745   2.246  0.1163 -0.0599  0.2957
10078W        W25547   1.553  12.828  14.313 -0.1637  0.2902 -0.1872
10079W        W25548  10.505   0.644   1.265 -0.0438 -0.0089  0.0625
10080W        W25549   5.751  16.793   2.164  0.0098  0.1277 -0.0214
10081W        W25550  10.317  18.305  13.121 -0.1795  0.0523 -0.2624
10082W        W25551   0.512  14.473   3.798 -0.1217  0.1539 -0.1443
10083W        W25552   1.331   8.728  15.204 -0.0628  0.1688 -0.1740
10084W        W25553   6.290   7.260   4.278 -0.2111 -0.0850  0.3616
10085W        W25554  10.425   5.543  10.371 -0.2235  0.0946 -0.2065
10086W        W25555   0.225   4.366   2.828  0.1707  0.0114 -0.0298
10087W        W25556   8.184  10.462  14.122 -0.0986 -0.2234  0.0773
10088W        W25557   3.352  13.052  16.101 -0.4878 -0.2340 -0.2334
10089W        W25558   6.192   1.170   2.638  0.4245 -0.1943 -0.0583
10090W        W25559   0.061   0.977   2.726 -0.1121 -0.1679  0.1029
10091W        W25560   6.575  16.382  15.488 -0.1450  0.2186  0.0794
10092W        W25561   5.430  14.967  14.173  0.1301 -0.4550  0.1102
10093W        W25562   4.361   2.960  10.866 -0.0753 -0.2364  0.0271
10094W        W25563   6.498  14.010   3.312 -0.1129 -0.2286 -0.1292
10095W        W25564  16.391   0.843   1.884  0.1692  0.0501  0.1734
10096W        W25565   1.646   4.053  14.191 -0.1821 -0.0418 -0.2632
10097W        W25566   7.067  12.934   0.959 -0.1404 -0.2066  0.3909
10098W        W25567  13.899   2.296  11.641 -0.1841 -0.0550 -0.1482
10099W        W25568   1.476   5.006   3.580  0.0724  0.1107 -0.2476
10100W        W25569  15.353   7.741   0.958 -0.0419  0.0507 -0.2540
10101W        W25570   4.056  15.702  15.171  0.0610 -0.1202 -0.3352
10102W        W25571   6.655   4.850   0.160 -0.0641  0.2362 -0.1613
10103W        W25572  15.161  15.124   0.608  0.1535 -0.3047 -0.2271
10104W        W25573   2.557  10.886  14.862 -0.1228 -0.0206  0.2678
10105W        W25574  13.126   5.341   0.342 -0.1844  0.3308  0.0532
10106W        W25575   7.615   6.455   4.129 -0.0640 -0.1377 -0.0959
10107W        W25576   0.427  18.016   5.736 -0.0698 -0.0312  0.2840
10108W        W25577  11.895   0.503   4.465  0.0549  0.0019  0.0888
10109W        W25578   9.971  14.641   1.014 -0.1342 -0.1913 -0.1629
10110W        W25579  10.474  11.616   1.710 -0.1714  0.0574 -0.1805
10111W        W25580  13.716  17.629   0.472 -0.1446  0.0472  0.0592
10112W        W25581  10.799   8.546   2.082 -0.0577  0.1464  0.0262
10113W        W25582   6.523  18.188   5.879  0.1685 -0.0912 -0.0806
10114W        W25583   6.077  12.936   3.797  0.0772  0.2476  0.5497
10115W        W25584   8.575   9.738  14.264 -0.0250  0.2715  0.2892
10116W        W25585   1.357  14.302   1.943 -0.1564 -0.0305 -0.2048
10117W        W25586   0.868   5.691   3.632 -0.0215 -0.2271 -0.1144
10118W        W25587  10.034   2.158   4.628  0.2006  0.1965  0.0506
10119W        W25588   1.876  13.721  13.546 -0.5071  0.2317  0.0135
10120W        W25589  10.216   1.167   4.338 -0.5039 -0.0978  0.2500
10121W        W25590   5.148   7.216   0.924  0.2506 -0.0198  0.0785
10122W        W25591  16.243  16.972   0.199 -0.2695 -0.1937  0.2988
10123W        W25592   7.157   3.618   0.556 -0.1227  0.1376 -0.2573
10124W        W25593  16.363   7.321   4.752  0.1459 -0.2539  0.2116
10125W        W25594  13.128   8.586   3.484  0.0376 -0.1973 -0.1322
10126W        W25595  15.456  14.284   5.316  0.0536 -0.1836  0.3648
10127W        W25596   0.959  12.829  11.622  0.0288  0.1860 -0.2137
10128W        W25597   8.259   1.045  14.829 -0.2035  0.0219 -0.0985
10129W        W25598  17.236   5.300  13.825  0.1814  0.1697  0.0545
10130W        W25599  14.915  16.241   4.095  0.2112 -0.1918 -0.0977
10131W        W25600   6.104   1.987  15.094 -0.0435 -0.4945  0.0011
10132W        W25601   0.728  14.156   1.697  0.0543 -0.0636 -0.1160
10133W        W25602  16.198  17.083  12.487 -0.0486  0.0073 -0.0181
10134W        W25603  16.750  16.910   4.063  0.0443 -0.0928  0.0361
10135W        W25604  18.140  17.887   0.953  0.2848 -0.4027 -0.0929
10136W        W25605   5.659  14.197  11.179  0.0612  0.1594 -0.1333
10137W        W25606  12.827   2.487  11.769  0.2820  0.0598  0.2296
10138W        W25607  16.341  16.097  11.968 -0.0299 -0.3651  0.0989
10139W        W25608   5.771  10.519  12.293 -0.1789  0.0082  0.0312
10140W        W25609   7.200   6.477   5.729  0.1786 -0.1003  0.0925
10141W        W25610   5.906   5.249  11.913  0.1679  0.1226 -0.1332
10142W        W25611   7.456  14.481  11.912  0.0091 -0.2101  0.2004
10143W        W25612   3.871  11.125  12.455  0.0458  0.1993 -0.4097
10144W        W25613   0.976  16.525  12.370 -0.1634 -0.0257  0.2219
10145W        W25614   3.471  11.470  10.882 -0.0828 -0.0819 -0.4529
10146W        W25615  10.313  13.688  14.059 -0.0570 -0.0001 -0.1704
10147W        W25616   1.110   2.128   2.048 -0.2223 -0.1293 -0.0650
10148W        W25617  11.329   0.241   3.219  0.4494 -0.1144 -0.1120
10149W        W25618   9.338  11.945   2.584 -0.1279  0.2869  0.2963
10150W        W25619   1.108   4.443   2.031 -0.0941 -0.1475  0.0633
10151W        W25620   2.107   3.207   5.829 -0.0717 -0.3053 -0.1649
10152W        W25621   6.073  16.406  15.540  0.4912  0.0232 -0.0462
10153W        W25622   4.976  14.063   5.112  0.0909  0.2871 -0.0661
10154W        W25623   0.937  10.260  12.455  0.1964  0.0347  0.0493
10155W        W25624  12.633  16.080   3.812  0.0448 -0.1120  0.2572
10156W        W25625  15.030   5.514  11.186 -0.3154  0.4050 -0.1478
10157W        W25626   9.793  17.647  14.236 -0.0970 -0.1071 -0.2505
10158W        W25627   8.675  16.933  12.355 -0.4240 -0.1503 -0.3449
10159W        W25628  10.813  12.496   1.738  0.0180  0.1815  0.0911
10160W        W25629  17.867   3.540  14.506  0.0156  0.1453  0.1393
10161W        W25630  12.961   9.592   3.368  0.3669  0.1596  0.1174
10162W        W25631  15.511   6.186   2.850  0.0054 -0.0335 -0.1309
10163W        W25632   2.201  10.986   2.442 -0.2198 -0.0022  0.1014
10164W        W25633  16.355   4.513  12.401  0.1950 -0.1809  0.0400
10165W        W25634  14.252   6.280  13.047  0.4050  0.1468  0.1265
10166W        W25635  12.560   8.231   9.664 -0.1288 -0.0612  0.0496
10167W        W25636  12.353   6.802  13.547  0.0904  0.0828 -0.1400
10168W        W25637   6.394   4.116   1.766  0.0563  0.2028  0.0704
10169W        W25638  15.887  18.119   3.056 -0.1037 -0.0840 -0.1946
10170W        W25639   7.707   2.864   4.726  0.1118  0.0854 -0.0818
10171W        W25640   0.450  11.250   0.877 -0.1780  0.0520  0.1637
10172W        W25641   6.951   7.041   3.645 -0.1025  0.1097 -0.1045
10173W        W25642   8.015   8.313  11.378  0.0243  0.3245  0.2070
10174W        W25643  12.538   2.344   0.551  0.0080 -0.0610 -0.2257
10175W        W25644   6.182  16.315  14.522 -0.0997 -0.0371 -0.1153
10176W        W25645  10.078  16.156   4.626 -0.2097  0.1202  0.2716
10177W        W25646   1.804   1.646  14.510  0.0122 -0.0359  0.1442
10178W        W25647   2.399   7.312   4.327 -0.1318  0.2268  0.0491
10179W        W25648   4.541   8.744  13.566 -0.4074 -0.0100 -0.0026
10180W        W25649   5.337   6.154  14.441 -0.1324 -0.1374  0.0150
10181W        W25650   2.936  15.602  14.007 -0.1666  0.0435 -0.2599
10182W        W25651   0.633   0.138   5.509 -0.0466  0.0149  0.1483
10183W        W25652   5.307   7.794  14.081 -0.1260 -0.2065 -0.0324
10184W        W25653   4.779  12.123  16.118  0.1939 -0.1164  0.2728
10185W        W25654   4.535   0.098   2.408  0.3297  0.3334  0.0515
10186W        W25655  11.511  15.762   3.585  0.2287  0.0700  0.0678
10187W        W25656   3.910   2.992   2.721 -0.2336 -0.3583  0.0514
10188W        W25657  16.839   5.979   5.223 -0.1317  0.0336  0.4924
10189W        W25658  18.084  13.732  11.863 -0.1034 -0.4281  0.1121
10190W        W25659   0.341  16.235   0.742  0.6182  0.1353 -0.0774
10191W        W25660  17.461  16.265   2.962  0.0375 -0.2374  0.0313
10192W        W25661   3.475   5.825   5.472 -0.2097  0.0434 -0.4654
10193W        W25662  15.500   4.665   4.519 -0.1390  0.0400  0.0297
10194W        W25663   1.055   1.856   0.127 -0.1402  0.0428  0.1733
10195W        W25664  17.181   8.498  16.104 -0.1305 -0.0269  0.2023
10196W        W25665  10.961  13.416   2.995  0.2694  0.0898 -0.1497
10197W        W25666  15.851   3.747  15.662  0.1488 -0.0716 -0.2728
10198W        W25667   7.953   0.310  10.851  0.3271  0.1355  0.3479
10199W        W25668   9.533  15.298  13.055 -0.1974 -0.2991  0.0215
10200W        W25669  18.007  17.460  13.210  0.1263  0.1038 -0.0479
10201W        W25670  13.333  17.506  15.987 -0.0865  0.2107 -0.2138
10202W        W25671  13.623  17.749   2.620 -0.1158  0.1020  0.1209
10203W        W25672  13.910   7.688  10.826 -0.2481 -0.0444  0.1900
10204W        W25673  13.954   8.037  12.525 -0.0363  0.2397  0.2839
10205W        W25674  13.022  15.819  15.982 -0.2286  0.2128  0.0617
10206W        W25675   3.823   8.282   0.997 -0.1657  0.2042  0.0268
10207W        W25676  11.322   7.810  14.662  0.2718  0.0414 -0.0032
10208W        W25677   0.587  16.004  13.848  0.3081 -0.0206 -0.3714
10209W        W25678   2.333   8.669   1.237 -0.0081  0.2007  0.0369
10210W        W25679  11.054  15.256  15.272 -0.2348 -0.1905  0.0253
10211W        W25680  16.143   1.231   3.626  0.1691 -0.1271 -0.2460
10212W        W25681  16.832   2.083  10.173 -0.5792 -0.1604  0.0457
10213W        W25682  12.313   8.901  15.290  0.0198  0.1655  0.2500
10214W        W25683   9.528   6.411   3.426  0.0064  0.1835  0.0988
10215W        W25684  12.459   2.060  14.791 -0.1411  0.1667 -0.0798
10216W        W25685  17.824   3.195   0.759  0.2481  0.1406  0.0374
10217W        W25686  15.744  11.825   6.005  0.1961  0.0865 -0.2583
10218W        W25687  14.296   8.313   3.725 -0.2447 -0.0925 -0.0624
10219W        W25688   3.539  11.394  13.353  0.0239  0.1314  0.3425
10220W        W25689   7.611  15.251   2.383 -0.0697 -0.0060 -0.0772
10221W        W25690  11.502   4.297   1.412  0.0853  0.0316 -0.1458
10222W        W25691   7.542   4.723   4.709  0.2999 -0.0364 -0.0235
10223W        W25692   5.973   8.658   2.500  0.1400  0.0323  0.1100
10224W        W25693   7.805  11.718  14.332  0.1225 -0.2130  0.2226
10225W        W25694   5.723  13.261  12.210 -0.0692 -0.0951 -0.1618
10226W        W25695   3.772   7.079  14.661  0.0020  0.1949  0.0905
10227W        W25696  12.582   5.070  12.688  0.1202 -0.0176 -0.2363
10228W        W25697   8.510  13.618  15.251 -0.3133 -0.4923  0.1921
10229W        W25698  14.847   7.282  13.690 -0.2711  0.0256  0.2217
10230W        W25699   1.775   6.400  14.380  0.2373 -0.2188  0.2285
10231W        W25700   6.811   7.439   3.268 -0.1733 -0.1436  0.3494
10232W        W25701   1.971   1.248  14.753  0.0643 -0.2457  0.1556
10233W        W25702  13.942  10.969   4.289  0.2271  0.0103 -0.3927
10234W        W25703   3.710  16.392   5.003  0.0574 -0.2788 -0.2927
10235W        W25704   6.823   5.729   2.046  0.2425  0.0538  0.0938
10236W        W25705   7.612   7.017   0.013  0.2895 -0.1044 -0.2324
10237W        W25706  15.330  13.924  11.403 -0.4456  0.2471 -0.2085
10238W        W25707  11.797   9.471  12.853 -0.2351 -0.0616 -0.2709
10239W        W25708   0.508  10.264   1.859 -0.0900 -0.2263  0.0949
10240W        W25709  12.058  13.860   3.410  0.0111 -0.1754 -0.4390
10241W        W25710   0.360   3.570  14.350  0.1205  0.1499  0.2626
10242W        W25711   6.010   7.794  12.952  0.1551 -0.0467 -0.0024
10243W        W25712  10.670   4.510  12.782  0.0664 -0.0385 -0.1816
10244W        W25713  16.211   5.827  14.920  0.0435 -0.0980 -0.0124
10245W        W25714  14.935   7.125  13.196  0.2005  0.2585 -0.0293
10246W        W25715   1.017   0.658   4.579  0.2086 -0.1909 -0.1769
10247W        W25716   6.038  15.694  10.506  0.3099  0.1455 -0.2094
10248W        W25717   0.053   7.470   2.142 -0.0852 -0.0138  0.0894
10249W        W25718  12.324   8.131   2.369 -0.2167 -0.0431 -0.1483
10250W        W25719  16.670  12.857  12.507 -0.1267  0.1300 -0.1903
10251W        W25720  15.858  11.381   3.615  0.3054 -0.0151 -0.2575
10252W        W25721   1.729  11.435  14.508  0.4272  0.1351  0.0789
10253W        W25722  15.202   6.834   1.848 -0.0539  0.0641  0.1751
10254W        W25723  17.810  11.248  10.967  0.1004  0.0496 -0.1372
10255W        W25724   0.031  16.161  13.845  0.0587  0.0048  0.0717
10256W        W25725   5.924   9.052  11.529 -0.3687  0.0924 -0.0806
10257W        W25726   5.744   0.746  16.033  0.0954 -0.3151  0.1683
10258W        W25727   5.756  18.176  13.791  0.1550  0.2433 -0.1196
10259W        W25728  12.017   4.297  13.894 -0.1762  0.0608 -0.0673
10260W        W25729   1.305   7.881   5.407 -0.4230  0.1459  0.1781
10261W        W25730  15.312  15.961   4.104  0.0734 -0.4813  0.1709
10262W        W25731   6.740   0.927  10.993 -0.4278  0.1306  0.0501
10263W        W25732  14.957  17.333  15.538 -0.0573  0.0351 -0.0478
10264W        W25733  16.118  16.516  13.242  0.0617  0.0353 -0.0610
10265W        W25734  10.143  15.702   4.929 -0.3862 -0.0149  0.1096
10266W        W25735  14.048   5.932  10.996 -0.0342  0.1117  0.1698
10267W        W25736   2.535  14.144  14.298 -0.0055  0.2315  0.1636
10268W        W25737  16.452   5.102  16.062 -0.1352 -0.1830  0.0686
10269W        W25738  17.650   3.094  10.589  0.0960  0.1223 -0.0530
10270W        W25739   2.153  15.933   2.890 -0.1625  0.0160  0.0156
10271W        W25740   8.679  18.195  13.405  0.0147  0.2600 -0.1589
10272W        W25741  11.771  16.081   3.359 -0.2017  0.3132 -0.0005
10273W        W25742  11.138   5.797  12.026  0.0443  0.1911 -0.0217
10274W        W25743  17.777   9.430   5.123 -0.1590 -0.1811  0.0541
10275W        W25744  17.134  16.061   6.179 -0.1240 -0.1265  0.0001
10276W        W25745   7.847   5.880  14.359  0.3685 -0.1080 -0.1917
10277W        W25746   8.244  11.348   1.110  0.3693  0.2430  0.0674
10278W        W25747   9.694   1.871   3.323  0.2460 -0.1921 -0.2179
10279W        W25748  14.102  17.570  13.519  0.1043 -0.0257 -0.0790
10280W        W25749  10.824   8.669  13.229 -0.3411  0.4334  0.3394
10281W        W25750  11.803  11.842  12.239  0.1774 -0.1142 -0.0623
10282W        W25751  13.799   5.639   1.193  0.4070  0.0697 -0.4414
10283W        W25752  13.174  16.108  14.891 -0.0446 -0.0914 -0.1588
10284W        W25753  11.425  17.451   5.807  0.3435  0.0304  0.2818
10285W        W25754  12.677   9.588   0.016  0.1703 -0.0778 -0.1927
10286W        W25755  13.652   6.424   1.586  0.0471 -0.0422 -0.3717
10287W        W25756  16.254   9.426  13.347 -0.0277 -0.2408  0.3743
10288W        W25757  18.147   5.160   3.407  0.0604 -0.0875 -0.0882
10289W        W25758  11.369   1.225  12.093 -0.1482 -0.0143  0.0690
10290W        W25759  11.768  10.877   4.693 -0.1625  0.0841 -0.2566
10291W        W25760   6.632  12.533  13.487  0.0824  0.2048 -0.0330
10292W        W25761   9.462   1.293  13.698 -0.2960 -0.0243 -0.2623
10293W        W25762   6.269   2.219  11.028 -0.0625  0.1122 -0.0349
10294W        W25763   5.207   0.548   3.969 -0.3137  0.2179 -0.0490
10295W        W25764   5.143   4.383   4.749  0.1979 -0.0470  0.0149
10296W        W25765   9.691  10.154   5.193  0.5780  0.1110  0.1199
10297W        W25766  11.092  16.185  15.428  0.1129  0.1523 -0.3082
10298W        W25767  17.198   5.001   1.835  0.0220 -0.0770  0.0448
10299W        W25768  11.248   2.781  11.881 -0.0462  0.1111  0.1892
10300W        W25769   9.867   5.823   1.511  0.0247 -0.0420 -0.1454
10301W        W25770   5.076  13.975   1.744  0.0271 -0.0023 -0.2423
10302W        W25771  13.293   3.334   3.422 -0.1598 -0.0668  0.2636
10303W        W25772  13.153   2.706   4.627 -0.5902  0.0466  0.2290
10304W        W25773  13.754   8.149  13.393 -0.0818  0.0780 -0.0375
10305W        W25774   6.621   5.721   0.812 -0.1023  0.2294 -0.1676
10306W        W25775   4.634   9.801   4.207 -0.2148  0.3940  0.3659
10307W        W25776  15.243  14.001   0.028  0.1985  0.1332  0.1825
10308W        W25777   5.457   7.646   0.991 -0.2048  0.0533  0.0474
10309W        W25778  16.905  10.263   4.790 -0.0991 -0.0835  0.0593
10310W        W25779  13.313   0.900  13.270  0.2082  0.0862  0.3010
10311W        W25780   2.315  10.447   4.237  0.0654  0.1590  0.2234
10312W        W25781   1.055   2.096   2.626  0.0884 -0.1064  0.0158
10313W        W25782  10.365   5.692   1.541 -0.1621  0.1399 -0.0706
10314W        W25783   0.307   5.430  11.648  0.2546 -0.2994  0.1757
10315W        W25784   1.593  10.736  15.829 -0.0482  0.2209  0.0372
10316W        W25785  11.972   2.268  11.543 -0.0531  0.1236  0.1018
10317W        W25786  17.278   3.072  11.545 -0.0073  0.1025 -0.1491
10318W        W25787  10.244  12.593   5.245 -0.0111 -0.3110  0.1252
10319W        W25788   0.511  17.940   4.704  0.4327  0.1401 -0.1500
10320W        W25789  11.527   6.367  12.759  0.0602 -0.2436  0.0142
10321W        W25790  13.750  11.393  15.250 -0.2384 -0.1041 -0.2365
10322W        W25791  14.134   9.798  11.031  0.1969  0.3341  0.0080
10323W        W25792   1.492  18.087  10.820  0.0954  0.3140  0.2005
10324W        W25793  14.125  12.894   1.726 -0.0176 -0.2843  0.1504
10325W        W25794   7.276  12.252  11.952 -0.1107 -0.1080 -0.1506
10326W        W25795   0.913   0.801   3.755 -0.0562  0.1881 -0.0666
10327W        W25796  13.004   4.400   3.662  0.3458  0.2721 -0.2150
10328W        W25797   5.330  13.815   4.838  0.0922 -0.3009 -0.0341
10329W        W25798  11.712  18.300   4.472 -0.2291 -0.2229  0.3699
10330W        W25799  13.860   5.386   5.451 -0.1855 -0.0594  0.1157
10331W        W25800   6.938   9.082  15.951 -0.1323 -0.0085 -0.1195
10332W        W25801  14.458   9.498   0.031 -0.0050 -0.0326 -0.0408
10333W        W25802   7.151   6.202   6.159 -0.0015  0.1958 -0.1675
10334W        W25803   6.435   4.596   3.278  0.1023  0.3306 -0.0153
10335W        W25804  10.805   8.827   2.735  0.0463 -0.1023 -0.1660
10336W        W25805   3.883   3.625   1.700  0.2714 -0.1870 -0.0992
10337W        W25806  12.665   6.907   3.989  0.0921  0.0059  0.2268
10338W        W25807  17.159   9.419  14.744  0.5653  0.0012 -0.1408
10339W        W25808   6.645  15.127  11.775  0.0644  0.3764  0.3009
10340W        W25809   1.042   7.910   4.178 -0.2297 -0.0062 -0.1519
10341W        W25810  13.999   2.205   3.763 -0.1894 -0.0097 -0.0082
10342W        W25811   6.266   1.287  11.633  0.1130 -0.1419 -0.0976
10343W        W25812   9.783   6.455  12.989  0.1820  0.1723  0.0517
10344W        W25813   0.043  17.794  13.444 -0.2335  0.3126 -0.1524
10345W        W25814   7.246  15.772  14.673 -0.0244  0.1115  0.1251
10346W        W25815  17.989   8.993   3.965  0.0934  0.2180 -0.1877
10347W        W25816   8.266  12.512   2.641 -0.1232 -0.1915  0.3041
10348W        W25817   2.611   9.978   6.483  0.0726  0.0816  0.0717
10349W        W25818  15.851  17.423  14.299 -0.3759 -0.0531  0.1652
10350W        W25819   1.274  14.022   2.374  0.1026 -0.0803 -0.0901
10351W        W25820  11.562  17.652   4.956 -0.1057  0.2115 -0.1092
10352W        W25821   4.914  15.972   3.407 -0.1514  0.3107  0.0435
10353W        W25822   1.515   7.411  13.590 -0.0715 -0.2855 -0.1180
10354W        W25823  15.842   7.053   4.884  0.1336 -0.0327  0.0852
10355W        W25824   8.447   3.787   4.570  0.0362  0.2069  0.2462
10356W        W25825  10.294  13.710   2.653  0.1439  0.1999  0.1174
10357W        W25826   5.915   2.895  14.815 -0.2442  0.0066 -0.0779
10358W        W25827   4.408  12.800   1.944 -0.1325 -0.2403  0.0155
10359W        W25828   8.782  15.968   1.076 -0.1609  0.2557 -0.1312
10360W        W25829  16.027   6.541   0.373  0.1768 -0.0016  0.0800
10361W        W25830  13.807   8.986  15.710 -0.3689  0.1519  0.2914
10362W        W25831   3.237   1.028   2.038 -0.1641 -0.0973  0.0673
10363W        W25832  10.161  16.374  10.866 -0.1945 -0.0116 -0.0848
10364W        W25833  13.029   8.252   5.093  0.0519  0.1626  0.0796
10365W        W25834  12.490   8.319   3.252  0.2873  0.0969 -0.2209
10366W        W25835   8.426  16.495  15.336  0.0831 -0.5071  0.0891
10367W        W25836   2.633   3.379  15.230 -0.4371 -0.0101  0.2577
10368W        W25837  12.869   2.905  12.471  0.0878  0.0644  0.1596
10369W        W25838   1.457  15.928   2.691  0.1224  0.2546  0.0299
10370W        W25839   8.745   1.912  16.083 -0.0222  0.1087 -0.2608
10371W        W25840   9.741  15.396   1.564 -0.1382  0.1578  0.2402
10372W        W25841  14.774  13.558  14.444  0.0638 -0.0086 -0.1786
10373W        W25842   1.949   0.356  10.947 -0.1837  0.1094 -0.1471
10374W        W25843   7.069   5.837  15.840 -0.4235 -0.2249 -0.0431
10375W        W25844   6.125   5.925  15.523 -0.3815 -0.1006 -0.3091
10376W        W25845   7.821  14.729   3.267  0.0930  0.0961  0.0179
10377W        W25846  12.981  15.154  16.037 -0.0285  0.1011  0.1688
10378W        W25847   3.204   9.332   3.448 -0.0250 -0.0514 -0.1713
10379W        W25848  11.784   1.827  15.469 -0.1110  0.1209 -0.1413
10380W        W25849  13.984   5.366   5.949  0.0891 -0.0647  0.0377
10381W        W25850   6.485   1.065   4.167 -0.2757 -0.0605  0.1044
10382W        W25851   0.889   2.644  15.312 -0.0218  0.2291  0.3988
10383W        W25852  15.435  15.638  14.824 -0.0832 -0.1316  0.1639
10384W        W25853  11.399   7.371   0.186 -0.0028  0.1459 -0.0906
10385W        W25854   9.975   7.183   5.866  0.1550  0.0840  0.0112
10386W        W25855  10.127   3.718   1.788 -0.3374  0.1712  0.2180
10387W        W25856   6.693   5.460   4.016  0.0416  0.1467  0.3310
10388W        W25857   9.141   4.606  15.776  0.0754  0.0613  0.2201
10389W        W25858   9.312   7.916  12.711  0.2402  0.0203  0.1636
10390W        W25859   6.210   5.367   3.211 -0.0097  0.3153 -0.2648
10391W        W25860   7.202   0.567   3.895 -0.0271  0.2849  0.0687
10392W        W25861   6.822   4.091  13.929  0.1812 -0.1286 -0.2370
10393W        W25862   5.605  15.974  14.025  0.1816  0.0817  0.0878
10394W        W25863   8.778   8.649   5.457  0.0448 -0.1047 -0.4708
10395W        W25864  18.165   1.333  13.499 -0.0785 -0.1908 -0.0143
10396W        W25865  11.883   1.459  16.153  0.0781 -0.1351  0.0151
10397W        W25866  14.474   5.094   5.012  0.0017 -0.0029  0.2056
10398W        W25867   4.609  11.243  13.056 -0.0635  0.2249  0.1496
10399W        W25868  17.634   1.911   1.752 -0.1939 -0.2983  0.0282
10400W        W25869   3.320  11.803  10.443  0.1408  0.3265 -0.1305
10401W        W25870  10.836   6.694   1.850  0.0247  0.1620 -0.4760
10402W        W25871   1.778   0.843   0.894  0.0437 -0.1628 -0.3805
10403W        W25872   8.857  14.543  10.727 -0.0247 -0.1781 -0.2585
10404W        W25873   0.126   8.315   3.115 -0.1991 -0.1573 -0.0299
10405W        W25874   7.299   8.509   5.702 -0.0732 -0.1039  0.2315
10406W        W25875  15.464   8.574   5.264  0.0256 -0.0423 -0.2709
10407W        W25876   2.908   7.327  15.250 -0.0305  0.1623 -0.0967
10408W        W25877   1.698   6.220  13.639 -0.4328 -0.0186  0.1454
10409W        W25878  17.790   6.476  15.103  0.1235  0.0599 -0.0981
10410W        W25879  15.034  15.520   1.295 -0.1046 -0.3284  0.0004
10411W        W25880  12.495   5.141   4.375  0.2225  0.3413  0.2658
10412W        W25881   9.534  12.800   0.328  0.3629 -0.0127  0.0042
10413W        W25882   2.007  15.223  11.846 -0.1688  0.1437  0.4460
10414W        W25883   0.308  18.040  14.258 -0.1016 -0.3681  0.0045
10415W        W25884  16.774  17.839   5.556  0.1667 -0.4477  0.1484
10416W        W25885  10.542   8.082  12.411 -0.0909  0.0697  0.1932
10417W        W25886   6.033  12.506  13.008  0.1390 -0.1291 -0.0817
10418W        W25887   2.988   3.474   4.830  0.1894  0.0385  0.1376
10419W        W25888   7.027  14.635  16.035  0.1775 -0.0147 -0.1040
10420W        W25889  14.842   4.510   1.207 -0.3600 -0.3063 -0.0551
10421W        W25890  11.064  17.502   4.056 -0.3039 -0.2897  0.1107
10422W        W25891   8.401   4.180   2.401 -0.1851  0.2024 -0.3137
10423W        W25892  10.556   4.358   3.551 -0.1966 -0.3284  0.1120
10424W        W25893   2.208   1.075   2.119 -0.3613 -0.1277 -0.2571
10425W        W25894  13.040   7.561   2.724 -0.0411 -0.1976  0.2427
10426W        W25895   5.759   0.050   6.119  0.0481  0.0434  0.1646
10427W        W25896  16.158   8.716   0.046 -0.0908  0.0985 -0.0913
10428W        W25897  15.766  17.862  13.512 -0.1822  0.0244 -0.1771
10429W        W25898  14.419  13.332   5.059 -0.2323 -0.1311  0.0168
10430W        W25899  14.812  12.344  11.662 -0.2169  0.0563  0.0506
10431W        W25900   2.888  17.648   4.389  0.1764  0.0073  0.1904
10432W        W25901   2.564  13.896   3.748  0.1398 -0.0778 -0.2626
10433W        W25902   3.448  16.003   1.703 -0.0765  0.1515  0.0922
10434W        W25903   0.495   3.632   1.182 -0.0706  0.2833  0.2142
10435W        W25904  13.277  12.663  13.830  0.5190  0.2174  0.2635
10436W        W25905  12.105   7.208  15.714 -0.0864  0.0766  0.1665
10437W        W25906  15.893   0.940   4.968  0.0344 -0.2712  0.1605
10438W        W25907   1.911  12.823   4.296  0.2760 -0.1844  0.4457
10439W        W25908   3.636  10.842  13.281  0.2215  0.1068 -0.0334
10440W        W25909  13.133  15.692   5.188 -0.0347 -0.1682  0.2673
10441W        W25910  11.882   0.275  15.466  0.1166  0.1999 -0.0309
10442W        W25911  17.872   1.502   0.309  0.0354  0.1137 -0.1459
10443W        W25912  10.498  17.638   0.197 -0.1409 -0.3876  0.1602
10444W        W25913   2.332   7.908   2.633  0.3116 -0.2966  0.2536
10445W        W25914   9.354   2.298  15.262 -0.1557  0.0694  0.2156
10446W        W25915   8.374  14.988  15.906 -0.0133 -0.1996 -0.3235
10447W        W25916  16.745  16.631   3.542 -0.0384  0.1136 -0.0896
10448W        W25917  16.420  14.971  10.877  0.1739 -0.1445 -0.2616
10449W        W25918   9.568   5.084   2.253 -0.0649  0.2206 -0.0118
10450W        W25919   3.136  10.299   2.324  0.2772 -0.2900 -0.2156
10451W        W25920   9.787  10.241   2.765  0.1621 -0.0325 -0.2538
10452W        W25921  10.925  11.388   1.333 -0.3186 -0.2799  0.1605
10453W        W25922  14.586  15.290  13.673  0.1879  0.0681  0.1151
10454W        W25923  12.131   8.367  12.195 -0.0448 -0.2587 -0.1849
10455W        W25924   6.917  18.113   4.465  0.2882  0.1858  0.0598
10456W        W25925   6.830  14.741   2.616 -0.1105  0.1134 -0.0296
10457W        W25926  14.449   4.264  13.553  0.2396  0.0631 -0.0095
10458W        W25927   5.339  14.794  10.965  0.0473  0.0769  0.1063
10459W        W25928   8.037   5.120   6.003 -0.2701  0.3347 -0.4159
10460W        W25929   6.401   9.468   3.590 -0.0483 -0.0480  0.3365
10461W        W25930   1.658  10.170  14.644  0.2100 -0.1643  0.0244
10462W        W25931   3.518  17.175   5.684  0.1307 -0.1939  0.1091
10463W        W25932   6.127   9.968  13.388  0.2008  0.3145 -0.2571
10464W        W25933   2.701   6.516  11.970  0.0874 -0.0249 -0.1641
10465W        W25934   6.810   0.291   3.773 -0.1000  0.2830 -0.1752
10466W        W25935   9.009  17.009   0.627  0.0314  0.1205 -0.0366
10467W        W25936  13.282  12.809  10.681  0.0260  0.2329 -0.3458
10468W        W25937   6.734  10.643   1.892 -0.2182 -0.1655 -0.0952
10469W        W25938  16.316  10.927   4.496 -0.2475  0.2944  0.0192
10470W        W25939   5.375   7.605   1.858 -0.0771  0.1534  0.0431
10471W        W25940  17.918  16.451  13.864 -0.0909  0.1627 -0.1732
10472W        W25941   8.386  15.752   3.882  0.0267 -0.1034 -0.0283
10473W        W25942  12.861   0.279  14.468  0.1388  0.0850 -0.0503
10474W        W25943   4.566   4.675  15.956 -0.0403 -0.2133  0.0259
10475W        W25944  14.211   3.903   4.469  0.0418  0.1667  0.2309
10476W        W25945  10.874  11.994  15.434  0.1923  0.1994 -0.1275
10477W        W25946   0.945  12.842  15.157  0.0986 -0.0075  0.1160
10478W        W25947   1.590  18.012   2.434 -0.3410 -0.3137 -0.2203
10479W        W25948   1.708   5.529   3.931  0.2987 -0.3604 -0.0569
10480W        W25949   9.761  10.119  11.868  0.2427  0.2062  0.1334
10481W        W25950   5.020  17.505  11.046  0.2604 -0.2624 -0.0708
10482W        W25951  18.227   2.380  13.038  0.0904  0.0685  0.0618
10483W        W25952   2.844  17.469   4.905 -0.0466  0.3928  0.2169
10484W        W25953  10.168   2.605  16.054  0.2760 -0.1427  0.0795
10485W        W25954  16.271  14.014   4.240 -0.1053  0.3350  0.1586
10486W        W25955  14.707  11.556  15.387 -0.0503  0.1743 -0.0336
10487W        W25956   9.643   2.087  10.879 -0.1391  0.0775  0.0838
10488W        W25957  11.429  16.988  14.831 -0.3163  0.1023  0.6089
10489W        W25958   1.822  10.783   1.580  0.1105  0.0642 -0.1287
10490W        W25959  16.887  13.467   0.916 -0.2931 -0.0776  0.3467
10491W        W25960   9.218   3.126   4.903  0.1494  0.2643  0.0180
10492W        W25961   6.576  11.624  11.400 -0.0359  0.1349  0.0884
10493W        W25962   8.091   2.621   5.881  0.1929  0.3622 -0.1610
10494W        W25963   1.208   3.713   2.469 -0.1645  0.2391  0.2798
10495W        W25964   2.360   9.716   2.113 -0.0449 -0.0774 -0.1402
10496W        W25965  10.157   4.719   4.300 -0.0671 -0.2485  0.1341
10497W        W25966   2.177   4.831   2.779  0.0459  0.0262  0.0480
10498W        W25967   6.395   4.994  14.515  0.2171  0.0218 -0.0666
10499W        W25968   4.019   3.091  13.319 -0.0857  0.1314 -0.1925
10500W        W25969   3.804   7.000  13.976  0.1784  0.1681  0.0122
10501W        W25970   3.163  12.675  12.976 -0.1145 -0.0816 -0.4153
10502W        W25971   1.634   9.999  11.738 -0.0246  0.1273  0.2105
10503W        W25972  12.509  16.604  15.388 -0.1883 -0.3035 -0.2445
10504W        W25973  12.122  13.758   5.186 -0.0256 -0.0192  0.5372
10505W        W25974   7.572  14.100   0.771  0.1586 -0.0537 -0.0764
10506W        W25975   5.763   3.243  15.226  0.2297 -0.0079  0.1440
10507W        W25976  13.511   4.187  11.805  0.2180  0.0211 -0.1484
10508W        W25977  15.265   1.989  11.793  0.2049  0.4325  0.0075
10509W        W25978   4.286  12.759  12.673  0.1532  0.3242  0.1885
10510W        W25979  11.130  16.956  12.328 -0.1335 -0.1249  0.3472
10511W        W25980   8.296   5.652   5.136 -0.1511  0.0387 -0.1050
10512W        W25981   9.786   2.489  12.737  0.2927  0.2349 -0.2928
10513W        W25982   8.096  10.645   2.089  0.1834  0.1301 -0.0720
10514W        W25983   4.673   1.144   3.506 -0.0401 -0.1589 -0.1918
10515W        W25984   4.663  10.002   3.383  0.0753 -0.2016 -0.0216
10516W        W25985  17.474   0.669   4.652  0.1478  0.3118 -0.0827
10517W        W25986  13.993   4.815   4.638  0.1077  0.1723 -0.0990
10518W        W25987   7.783   9.169   1.456  0.1471 -0.2656  0.0310
10519W        W25988  11.452  16.350  16.137  0.1349  0.2627 -0.1850
10520W        W25989   0.571   1.658  14.853  0.4383  0.2123 -0.0267
10521W        W25990   5.277  10.270  12.134 -0.0248  0.0339  0.1494
10522W        W25991   0.249   8.815  14.164 -0.0956 -0.0220  0.0833
10523W        W25992   7.442  16.700   1.064  0.1921  0.2679  0.1186
10524W        W25993   7.982   3.414  12.976  0.0698  0.0180 -0.3643
10525W        W25994  15.546  12.107   4.588 -0.0197 -0.2032 -0.1012
10526W        W25995  10.144   0.841   4.716 -0.0407 -0.2245 -0.1435
10527W        W25996   1.930  14.378   3.491  0.2055  0.1089 -0.0400
10528W        W25997  11.228   6.539   0.588 -0.2343 -0.0582 -0.0333
10529W        W25998   9.208   7.371   1.044 -0.0952 -0.2077  0.0737
10530W        W25999   1.125  12.251  14.939  0.3335 -0.0436 -0.1568
10531W        W26000   6.631  11.736  11.863 -0.0955  0.1805 -0.2758
10532W        W26001  16.703   6.077   4.274  0.0215 -0.0486  0.0985
10533W        W26002  16.847  10.822   4.855  0.2109  0.0375  0.0375
10534W        W26003  17.644   7.296   0.776  0.0529 -0.0084  0.2078
10535W        W26004   8.500  15.861   1.467 -0.0874 -0.0730  0.4445
10536W        W26005   7.867   3.137   5.080 -0.3462  0.1277 -0.3096
10537W        W26006   6.057   7.652   2.615  0.0319 -0.0556  0.4311
10538W        W26007   0.408  13.977  15.620  0.1598  0.2113  0.0763
10539W        W26008   9.200   6.073   5.207  0.3563 -0.0537  0.2200
10540W        W26009   6.281   7.060  11.546 -0.0352 -0.1731  0.0224
10541W        W26010   2.572   5.739   5.672 -0.1325 -0.1826  0.1081
10542W        W26011  13.117   0.623  14.828 -0.0168  0.0185  0.0242
10543W        W26012   7.375  10.830  13.670 -0.1892  0.1080 -0.0872
10544W        W26013   6.648  13.948   3.790 -0.0210  0.0794  0.1698
10545W        W26014   8.095  16.739   5.063  0.0952  0.2189 -0.1809
10546W        W26015   7.542   9.069  11.761 -0.2286  0.0859  0.0093
10547W        W26016  13.953   4.441   2.376 -0.0195  0.1465 -0.0229
10548W        W26017   5.969   4.161  14.994  0.2070 -0.1131 -0.0020
10549W        W26018  17.542  13.313   4.223 -0.1345 -0.0600  0.1146
10550W        W26019   0.609   9.754   5.071 -0.1552  0.1313  0.0686
10551W        W26020   2.448   2.670  13.301 -0.1211 -0.0593  0.5582
10552W        W26021   3.199   5.667   4.045  0.1364 -0.0456 -0.1484
10553W        W26022   4.035   1.716  12.880  0.1933  0.0305  0.1108
10554W        W26023   3.436   7.940  12.711  0.2600  0.1351 -0.0668
10555W        W26024   8.788   0.344  14.439  0.0121 -0.0646 -0.3009
10556W        W26025  16.942  14.594  15.290 -0.2513 -0.1954  0.1066
10557W        W26026   7.234   1.258   4.591 -0.0290 -0.1815  0.1545
10558W        W26027  14.004   7.150   2.318 -0.1041  0.0631 -0.1109
10559W        W26028   0.399  15.746  14.267 -0.4353  0.2585 -0.0460
10560W        W26029  16.023   5.301   3.348  0.1900  0.2033 -0.3526
10561W        W26030   2.500   6.215  12.763 -0.0680  0.3150 -0.2547
10562W        W26031  12.316   1.351  14.327  0.0197  0.1490  0.0420
10563W        W26032   7.848  17.001   1.140 -0.3042 -0.0890 -0.1876
10564W        W26033   6.142   4.104  15.520  0.1093 -0.2423  0.0272
10565W        W26034   7.096  11.769  12.089 -0.1951  0.1269  0.0728
10566W        W26035   0.489  14.309  12.612  0.1266 -0.0687  0.4399
10567W        W26036   0.167  11.214  14.629  0.1338 -0.2594 -0.0909
10568W        W26037   2.725  18.183  15.142  0.1029  0.1884  0.3210
10569W        W26038   6.042  16.990   5.370  0.2940  0.1003 -0.0816
10570W        W26039   8.617  16.175   4.163  0.1005 -0.2806  0.0371
10571W        W26040   9.827   6.092  11.935  0.1637  0.1047 -0.1649
10572W        W26041   4.657  17.561  15.567 -0.3440 -0.0364 -0.0197
10573W        W26042   1.125  14.958  13.423  0.1242 -0.3392  0.0772
10574W        W26043   3.124  12.769   1.814  0.5237 -0.0373 -0.2824
10575W        W26044  13.316   1.848  13.361 -0.0705 -0.0800  0.1886
10576W        W26045   2.557  14.914   4.681 -0.0570  0.2563 -0.1102
10577W        W26046  17.138  12.667   2.198 -0.0732 -0.1075  0.3176
10578W        W26047  15.224   7.873   2.026  0.1162 -0.3955 -0.0296
10579W        W26048   0.443   1.077  15.001  0.0574  0.1608 -0.2514
10580W        W26049   5.517   2.566   6.014  0.0202  0.2788  0.3666
10581W        W26050  13.412   9.712  10.372  0.0050  0.0462  0.0594
10582W        W26051   5.229  12.177  13.063 -0.0736  0.1396  0.3690
10583W        W26052   6.389  14.187  16.026 -0.0173  0.1540 -0.3026
10584W        W26053   2.557   9.162  15.348 -0.1457 -0.0566  0.2366
10585W        W26054   9.825   9.245   3.482 -0.0296 -0.1966  0.3168
10586W        W26055   5.332   0.085   5.257  0.0919 -0.0747  0.0422
10587W        W26056  12.198   1.168   5.780  0.0415  0.1079  0.0156
10588W        W26057   7.548   8.708   0.207  0.0602 -0.2748  0.0367
10589W        W26058  12.083   9.168   3.664 -0.0709 -0.0682 -0.1502
10590W        W26059   7.053  11.515  11.641 -0.1477  0.1702  0.1831
10591W        W26060  15.584  17.617   0.510  0.0738  0.3533 -0.3846
10592W        W26061   8.522  11.310  15.705 -0.3029 -0.1187  0.0560
10593W        W26062   7.197   3.669   1.379 -0.0768  0.1501  0.0178
10594W        W26063  10.636  10.970  13.539 -0.3230  0.0849 -0.0351
10595W        W26064  15.169   7.739  15.079  0.1482 -0.2137  0.3400
10596W        W26065  16.752  16.984   1.219 -0.0837 -0.1081 -0.1381
10597W        W26066  11.605  17.504  15.319  0.1877 -0.0056  0.0673
10598W        W26067   7.516  17.933  10.637 -0.5017 -0.2599  0.0806
10599W        W26068   5.840  11.395   2.012  0.1137  0.0712  0.0093
10600W        W26069  10.210  14.488   3.917  0.2081  0.0546 -0.0153
10601W        W26070   2.114  18.180   1.307 -0.1164  0.0110  0.0035
10602W        W26071  13.772  15.857  15.736  0.0318 -0.1380  0.3102
10603W        W26072  11.591  14.848  15.615 -0.3510 -0.3587 -0.0597
10604W        W26073   7.804  15.720  15.411  0.2570  0.2294 -0.1253
10605W        W26074  10.956  16.729  15.406 -0.1244  0.0949  0.0596
10606W        W26075  12.970   0.246   1.820  0.1445  0.1880 -0.0840
10607W        W26076  18.147   3.285  15.719  0.0490  0.2917  0.2312
10608W        W26077   1.173  16.629  11.139 -0.0682 -0.0143 -0.0863
10609W        W26078   9.893   1.998  12.713  0.0718 -0.0626 -0.1078
10610W        W26079  17.368   3.224  15.312  0.0560  0.1655  0.1794
10611W        W26080   4.339   1.248   3.088  0.0225  0.1179  0.3003
10612W        W26081   7.693   2.302   0.849  0.0836  0.0809 -0.0610
10613W        W26082   2.331  15.676  15.633  0.4198  0.1014  0.0562
10614W        W26083   1.296   5.926  15.513  0.1468  0.3850  0.1227
10615W        W26084   3.825   4.242  12.577  0.2509 -0.3096  0.1298
10616W        W26085   6.810   2.462  12.462  0.1855  0.2063  0.0329
10617W        W26086   7.600   1.612   4.074  0.3002 -0.1040  0.2033
10618W        W26087   0.550  15.568   1.749  0.3627  0.3553  0.3252
10619W        W26088   7.146   1.175  11.230  0.1645  0.1114 -0.0573
10620W        W26089   5.105  11.497  12.991 -0.1858  0.0175 -0.0007
10621W        W26090   1.009   8.345   3.210  0.1124  0.3303 -0.0153
10622W        W26091   9.607   2.061  11.372 -0.0883  0.0471 -0.1028
10623W        W26092   1.614   6.413   0.647 -0.0126  0.2341 -0.0359
10624W        W26093  10.696  14.537   4.334  0.0337  0.2657 -0.0154
10625W        W26094   8.917   0.644  13.160  0.1326 -0.1351  0.1238
10626W        W26095  15.468   7.799   3.850  0.0196  0.4164  0.1046
10627W        W26096   0.110  18.264  15.120  0.1687  0.0554  0.0913
10628W        W26097   9.308   4.028   3.159 -0.0794 -0.1282  0.0678
10629W        W26098  17.373   0.367  12.333  0.5317  0.1664 -0.0206
10630W        W26099   0.414   8.584  11.966  0.1909 -0.0052  0.1341
10631W        W26100  10.429  14.383   0.351 -0.0238 -0.1714 -0.1703
10632W        W26101   2.651   1.185   2.328 -0.0076  0.3254  0.0853
10633W        W26102   6.633  17.012   5.222  0.0389 -0.0391  0.0333
10634W        W26103   9.563   3.559   1.249 -0.3259 -0.1533  0.0630
10635W        W26104   4.227   8.746   5.906  0.0459 -0.2828 -0.4237
10636W        W26105   3.191  13.252   2.710  0.1160 -0.0997  0.2800
10637W        W26106   6.558  12.488  11.013 -0.0357 -0.1054  0.1457
10638W        W26107   4.589   1.703   0.508 -0.1476  0.0643  0.1883
10639W        W26108   6.807  17.157  15.849  0.1595  0.1350  0.3879
10640W        W26109  13.670   8.533   1.087 -0.1434 -0.1472  0.2507
10641W        W26110   9.028  15.578  13.919  0.1398 -0.0159  0.0132
10642W        W26111   3.372   1.217   0.200 -0.1822 -0.1092 -0.0770
10643W        W26112  16.034   9.057  14.043  0.3058 -0.3000 -0.2791
10644W        W26113  10.241  13.644  10.849 -0.0712 -0.0228  0.0981
10645W        W26114   4.108   5.355   2.082  0.2430  0.1148 -0.0394
10646W        W26115   1.363   9.041  14.800 -0.1657 -0.2556  0.1541
10647W        W26116  17.599   2.729  12.505  0.2372  0.0242 -0.0985
10648W        W26117   1.155   1.841   3.100 -0.0083  0.3708 -0.1923
10649W        W26118   8.326   2.288   0.502 -0.0676 -0.0338 -0.2488
10650W        W26119   7.268  16.745  10.911 -0.1516 -0.3558 -0.0869
10651W        W26120  18.246  16.496   0.469 -0.0976 -0.1255 -0.2311
10652W        W26121  17.111   6.654  12.640  0.0104 -0.2148 -0.0593
10653W        W26122  15.515  10.583  15.906  0.2685  0.0221 -0.0854
10654W        W26123   7.224  16.889  12.362  0.1735  0.2095  0.1027
10655W        W26124   5.960  11.847   1.927 -0.0740 -0.1382 -0.0352
10656W        W26125  18.003   3.166  12.486  0.3527 -0.0415  0.2573
10657W        W26126   3.287   4.615   3.282 -0.0725  0.3157 -0.0606
10658W        W26127   9.265   8.288  14.512 -0.1666  0.3479  0.0204
10659W        W26128  16.688   7.005   5.435 -0.2528 -0.2895  0.2914
10660W        W26129   0.851  11.627   1.754  0.1214 -0.0154  0.1535
10661W        W26130  15.430  14.148   0.933  0.3198 -0.1092  0.1127
10662W        W26131  14.916  16.190  13.668 -0.0234  0.0488  0.2582
10663W        W26132   5.969   4.758  14.086 -0.0686  0.0129 -0.1282
10664W        W26133  17.146  10.927  13.036 -0.0625 -0.0154 -0.0023
10665W        W26134   5.372   7.846  15.918 -0.2012 -0.3624 -0.0233
10666W        W26135   7.920  14.954   0.691 -0.1339  0.1966 -0.0594
10667W        W26136   6.264   7.751   6.020 -0.1698  0.1238 -0.1823
10668W        W26137  13.986  15.840   3.143  0.0467  0.3520 -0.1333
10669W        W26138   1.737  10.051  13.140  0.1464  0.1023 -0.1928
10670W        W26139  12.980   8.393   4.616  0.1990  0.1115  0.1614
10671W        W26140  12.830   1.954   2.769  0.3079 -0.0002  0.4003
10672W        W26141  15.548  17.751  14.031 -0.1691  0.1926  0.0237
10673W        W26142  11.268  13.734   3.902  0.2437  0.2173 -0.0668
10674W        W26143   2.950   2.240   4.427 -0.0021 -0.0400 -0.1417
10675W        W26144   7.828   3.294   1.804  0.0283 -0.1377 -0.1681
10676W        W26145  18.102   1.673   3.139 -0.2987  0.0590  0.2351
10677W        W26146   6.136  15.519   5.114  0.1904 -0.0791  0.0070
10678W        W26147   9.026  10.312   2.325  0.1338  0.2969  0.0951
10679W        W26148   1.054   4.754   3.684 -0.0700  0.2941  0.0259
10680W        W26149   7.931  17.698   4.249 -0.0922  0.3003 -0.0629
10681W        W26150   2.042   6.656  14.712  0.0157 -0.1722  0.0364
10682W        W26151   4.398   6.873  12.173  0.0308  0.1721  0.0880
10683W        W26152  14.885   7.451   4.247  0.0355 -0.0854 -0.0466
10684W        W26153   7.586   5.298  15.516  0.3202 -0.2933  0.2865
10685W        W26154   8.248  13.905   3.322  0.0900  0.0576 -0.0412
10686W        W26155  15.989  10.978   2.254 -0.0583  0.0192  0.0436
10687W        W26156   1.239   5.486   1.066 -0.1479  0.1021 -0.3879
10688W        W26157   5.481   8.482   3.242  0.0359 -0.2225 -0.2114
10689W        W26158  18.089   5.250  10.964 -0.0191 -0.3644 -0.0390
10690W        W26159   6.432  14.464   1.219  0.2896 -0.0881  0.1455
10691W        W26160   0.141  14.248  13.435 -0.0458  0.1912 -0.0272
10692W        W26161   7.430   3.998  12.700  0.3646  0.0489  0.2101
10693W        W26162  13.186  10.369   2.749 -0.2977  0.2467 -0.0696
10694W        W26163   9.624   2.818   4.665  0.2096  0.1423  0.0348
10695W        W26164  17.008  16.366   1.720 -0.1606  0.0941 -0.0336
10696W        W26165   9.379  13.229  11.967  0.0281  0.3430  0.0095
10697W        W26166   6.231  10.885   0.856  0.2523 -0.1307 -0.1144
10698W        W26167  16.648   3.011  15.937 -0.3540  0.0159 -0.1350
10699W        W26168   1.244   4.195  15.208 -0.0062 -0.0093 -0.1756
10700W        W26169  16.253   6.010  11.641  0.0731 -0.0190 -0.0741
10701W        W26170   1.587  13.759   4.786  0.0848  0.1399 -0.0303
10702W        W26171   9.706  14.908  15.230 -0.1078 -0.2456 -0.3623
10703W        W26172   7.424   0.674  12.506  0.4275 -0.2758  0.2488
10704W        W26173   4.254  11.385  14.898  0.3320 -0.0491  0.1738
10705W        W26174   5.395   8.533   2.753  0.0329 -0.2016 -0.0897
10706W        W26175   1.995   0.087   4.418 -0.1128  0.0693 -0.0154
10707W        W26176  14.391   0.142   2.312  0.2050 -0.2532  0.3328
10708W        W26177   0.407  13.080   0.912 -0.2534 -0.0773  0.0938
10709W        W26178   9.282  15.050   0.355 -0.1373  0.0744 -0.0408
10710W        W26179   9.257   1.039  14.137  0.0113  0.1800  0.5838
10711W        W26180   2.795  17.938   9.998 -0.0660  0.2450  0.2751
10712W        W26181   6.014   6.176   4.438  0.3167 -0.0367  0.3429
10713W        W26182   0.376   4.927   2.082 -0.1426  0.2252  0.1457
10714W        W26183   0.993  10.246   5.464 -0.2552  0.1282 -0.0729
10715W        W26184  10.296  16.025   1.265  0.2129  0.0034  0.0090
10716W        W26185  12.400  13.242  11.094 -0.1285  0.1414 -0.0954
10717W        W26186   6.530  15.932  14.558  0.1312 -0.3188 -0.0710
10718W        W26187  17.936  17.451  14.198 -0.0233 -0.1764  0.0977
10719W        W26188  12.805   8.594   1.161  0.0263 -0.1130  0.0526
10720W        W26189  17.484  15.699   2.939 -0.2935 -0.1418 -0.0099
10721W        W26190  13.008   4.768  14.715  0.1379 -0.3633  0.2235
10722W        W26191  12.453   4.056  15.702 -0.0898  0.3302 -0.0749
10723W        W26192  14.018  14.650  12.032 -0.1133 -0.0650 -0.0705
10724W        W26193   4.754   5.846   3.095 -0.3432 -0.2022  0.3090
10725W        W26194   6.522   2.586  16.153  0.1048 -0.2421  0.2508
10726W        W26195  16.946  17.302  15.138  0.0373  0.1143 -0.1503
10727W        W26196   4.531   5.150   1.432  0.2694  0.0015  0.1538
10728W        W26197  17.028  16.839  12.436 -0.2325 -0.2636  0.1596
10729W        W26198  13.162  14.419  14.954 -0.1712 -0.0407  0.2614
10730W        W26199   2.476  15.993   3.329  0.1163  0.1576  0.0444
10731W        W26200   4.156   7.399   4.674  0.3884  0.2490  0.1267
10732W        W26201  11.843   1.177   1.527 -0.2023  0.2509 -0.0074
10733W        W26202  14.246  12.425   5.371 -0.1008 -0.1816 -0.0231
10734W        W26203   5.375   2.811  15.001  0.2485 -0.0394  0.1283
10735W        W26204  12.741   5.038  15.673  0.1081  0.1234  0.2978
10736W        W26205   2.035   2.187  11.295  0.2256 -0.0399 -0.0227
10737W        W26206   8.077   7.862   1.834  0.0418 -0.1175 -0.0185
10738W        W26207  15.638   7.931   3.355 -0.2380 -0.1331  0.0224
10739W        W26208  14.091  11.010   0.881 -0.0456  0.0796 -0.0833
10740W        W26209  16.190   6.561   5.505 -0.3845 -0.1870 -0.2925
10741W        W26210   9.436   6.884   0.258 -0.2214 -0.0624  0.0487
10742W        W26211  16.385  10.114   1.932 -0.0876 -0.0158 -0.0316
10743W        W26212  13.753  11.075  12.914  0.2239 -0.0488 -0.3718
10744W        W26213   0.900   2.298  13.206  0.0527 -0.0999 -0.2185
10745W        W26214  11.264   6.136   2.949  0.3034 -0.0764  0.1258
10746W        W26215   9.245   3.732   4.618  0.0667 -0.1556  0.0956
10747W        W26216  17.567   7.747   2.490  0.1409 -0.0198  0.0206
10748W        W26217   7.439   7.486  11.282  0.2878 -0.1502 -0.0272
10749W        W26218  11.667   9.900   1.656 -0.0035  0.1383  0.2565
10750W        W26219   8.004   9.138   3.505  0.2590 -0.0026 -0.2739
10751W        W26220  17.714   0.065  13.332 -0.1422 -0.1112 -0.2602
10752W        W26221   2.655  15.850   2.894 -0.0949 -0.0500  0.0362
10753W        W26222  13.961   8.142  11.600  0.1837 -0.0845 -0.0122
10754W        W26223   9.399  16.676  12.795  0.0639  0.0903 -0.0617
10755W        W26224   5.607   1.174   6.058 -0.2630 -0.1218  0.1612
10756W        W26225   1.542   4.036   3.088 -0.0608 -0.2129  0.0479
10757W        W26226  15.002  13.108  13.804 -0.0170 -0.0418 -0.2568
10758W        W26227  16.983   0.370   3.786  0.3332 -0.1176  0.0946
10759W        W26228   7.004   2.250  11.990  0.2011 -0.5546  0.1104
10760W        W26229  17.297  13.878   2.301 -0.3865 -0.0229  0.2786
10761W        W26230   5.058  14.313   4.672 -0.2108  0.1572 -0.1027
10762W        W26231   3.406   5.488   0.316  0.2209  0.0176 -0.4028
10763W        W26232   3.040  11.046  15.074 -0.0903  0.2976  0.0576
10764W        W26233  14.325   3.270   1.735 -0.3955  0.1025  0.0106
10765W        W26234  16.586   4.348   2.557  0.2783 -0.2439 -0.2964
10766W        W26235   8.018  12.657  10.555 -0.3134 -0.3412 -0.0622
10767W        W26236   3.635   3.995  11.252  0.1482  0.2544 -0.0457
10768W        W26237  10.709  13.747   3.849  0.1588 -0.0752  0.1550
10769W        W26238  14.562  17.148   5.085 -0.0713  0.0387  0.3813
10770W        W26239   1.067  17.016  11.445  0.2098  0.0211  0.0140
10771W        W26240  12.647  18.220   2.132  0.1119  0.1428  0.1602
10772W        W26241  14.253   1.841   4.014  0.0881  0.1047  0.0699
10773W        W26242   2.500  12.164  11.082  0.3377  0.0657 -0.0060
10774W        W26243   9.697  14.759   2.128  0.0881  0.0899 -0.1981
10775W        W26244  11.455   6.409   5.579 -0.1151  0.3249 -0.2171
10776W        W26245   9.877   8.955  11.320 -0.0171 -0.1501  0.1168
10777W        W26246  16.202   6.859   1.795 -0.1451  0.1432 -0.2818
10778W        W26247   7.763  10.244   0.475  0.2291  0.1432  0.0351
10779W        W26248   8.764   3.198   3.961 -0.1843 -0.1877  0.1175
10780W        W26249   7.780   5.747   0.073  0.1250 -0.1601  0.2101
10781W        W26250   0.466  12.823  14.348 -0.0626  0.1870 -0.0019
10782W        W26251   6.570   3.545  13.344 -0.0840 -0.2313  0.1111
10783W        W26252   6.073  10.400  16.007 -0.1022  0.1846  0.0642
10784W        W26253  15.143  16.892   0.817 -0.3950  0.0681  0.1758
10785W        W26254  16.116  15.261   2.406  0.2779 -0.1843 -0.2871
10786W        W26255   8.801  13.687   5.026 -0.1230  0.2429 -0.0148
10787W        W26256   0.199  12.100  12.763 -0.0895  0.0193  0.1849
10788W        W26257  10.226  13.606  15.671 -0.1915  0.0339  0.0888
10789W        W26258   6.488   6.803   2.987  0.1201  0.1661  0.0869
10790W        W26259   4.924  18.057   5.012  0.0114 -0.1044  0.0208
10791W        W26260   6.345   3.918  12.017 -0.0697  0.0166 -0.1177
10792W        W26261  17.730   1.285  11.267 -0.0182 -0.3347  0.0237
10793W        W26262   6.653  14.334   4.975 -0.3105 -0.0271 -0.0592
10794W        W26263  11.555   9.348  15.125  0.2909 -0.4231 -0.0280
10795W        W26264  10.991  14.371  10.522 -0.2545 -0.0779 -0.1168
10796W        W26265   5.538  12.741  14.327  0.0741  0.3991 -0.2847
10797W        W26266  16.329   0.096  13.105 -0.1431 -0.0400  0.0882
10798W        W26267   5.716   2.304  12.504 -0.4385  0.3688  0.0022
10799W        W26268  16.533  13.774   1.049  0.2043 -0.0657 -0.1200
10800W        W26269   6.556  14.748  16.054  0.0442  0.1683  0.1378
10801W        W26270   3.386   0.071   3.717  0.1344 -0.0516 -0.2442
10802W        W26271  17.095  14.117  15.385 -0.0581 -0.2502 -0.2197
10803W        W26272  10.513   7.949   0.102  0.0973 -0.0592 -0.4938
10804W        W26273  15.540   2.112   2.470  0.0225 -0.1624 -0.2665
10805W        W26274   4.099  10.912  14.706 -0.6608 -0.0067  0.0036
10806W        W26275   5.167  12.727  11.588  0.0298  0.1106 -0.1098
10807W        W26276   7.918   5.117   4.647 -0.1684 -0.0903  0.0491
10808W        W26277   4.716  11.839  15.182  0.0977 -0.0695 -0.1895
10809W        W26278   8.179   8.455  12.294 -0.0893  0.1732 -0.0594
10810W        W26279  14.158  12.293   0.147 -0.0345 -0.2610  0.0886
10811W        W26280  16.808  10.373   2.561 -0.2304  0.1505  0.4267
10812W        W26281  16.803   9.178   4.800  0.1671 -0.2852 -0.0347
10813W        W26282  16.527   5.548   0.155 -0.1481 -0.3590 -0.2310
10814W        W26283   1.815  12.821   3.845  0.0038  0.2723 -0.0027
10815W        W26284   2.531  16.306  13.455 -0.1219 -0.1002  0.0466
10816W        W26285   1.668  13.066   1.164  0.1807 -0.1727  0.3215
10817W        W26286  11.743   4.814   2.663 -0.2207  0.0666 -0.0757
10818W        W26287  12.833  14.338  14.563  0.0276 -0.0315  0.0175
10819W        W26288   1.476  11.719   3.801  0.0450 -0.2319  0.1195
10820W        W26289   0.243   1.186  13.965 -0.3160  0.2254 -0.0616
10821W        W26290   5.013  17.219  11.426  0.0563  0.1465 -0.2228
10822W        W26291  16.485   7.202   1.559  0.1368 -0.1342 -0.1194
10823W        W26292   0.117  13.975   3.963 -0.1435 -0.1286 -0.0808
10824W        W26293  15.876   6.723  13.488  0.2163 -0.2073  0.2717
10825W        W26294  13.920  12.436   9.771  0.0949  0.2008  0.3260
10826W        W26295  17.831   9.369  15.186 -0.0078 -0.0576  0.2455
10827W        W26296   0.952   5.288   3.315  0.3052  0.0612 -0.2544
10828W        W26297  17.376   9.177  15.220 -0.0452  0.1748  0.2338
10829W        W26298   0.768   6.676   4.148  0.1374  0.1664  0.0964
10830W        W26299   3.306   6.862  11.510  0.3502  0.1183 -0.1174
10831W        W26300  12.266   3.682   1.081 -0.0679 -0.1432  0.0917
10832W        W26301  17.506  14.218   4.481 -0.1955 -0.1267 -0.2759
10833W        W26302  17.337   4.837  12.921  0.2477 -0.2881 -0.1563
10834W        W26303   8.599   0.301  15.438  0.0337 -0.2044  0.0545
10835W        W26304   6.675  10.623  12.801  0.6206 -0.0121 -0.0496
10836W        W26305   8.676  17.377  11.381 -0.0897 -0.0431  0.1582
10837W        W26306   8.066  16.238  12.468 -0.0006 -0.0133  0.3044
10838W        W26307  14.441  16.270   4.146 -0.0901  0.0998 -0.0268
10839W        W26308   4.717  10.118   0.288 -0.0528  0.1603  0.0919
10840W        W26309  16.955   2.249   0.310 -0.1598 -0.0988 -0.0855
10841W        W26310   2.861  15.616   0.065  0.1563 -0.2756  0.3665
10842W        W26311   6.099  17.122   3.316  0.2508  0.1817  0.0082
10843W        W26312   4.712   0.762  16.153  0.1740  0.3081 -0.0478
10844W        W26313   9.294   1.901   1.957  0.0009  0.1834  0.2139
10845W        W26314   9.988   6.667   3.282 -0.2351  0.2567 -0.1221
10846W        W26315  16.839  14.772   2.007  0.1518  0.0074 -0.0741
10847W        W26316   8.155   3.218  15.894  0.3018  0.1505 -0.0148
10848W        W26317   3.460   5.014  12.898  0.2068 -0.0147 -0.1553
10849W        W26318   4.797  13.592   3.939 -0.2150  0.1838  0.0583
10850W        W26319  16.589  13.069  14.885  0.0701 -0.2417 -0.1665
10851W        W26320   2.044  13.051  15.342  0.0025  0.2524  0.0904
10852W        W26321   5.517   4.041  12.642 -0.1765  0.0191  0.1659
10853W        W26322  15.298   4.944  15.194  0.3181  0.1065  0.1399
10854W        W26323   9.538   5.568   1.248  0.0190 -0.0154  0.2281
10855W        W26324  12.967   5.313  14.807 -0.1830  0.1378 -0.1413
10856W        W26325  10.369  11.318   3.919  0.0149 -0.2610 -0.0981
10857W        W26326  17.400   1.654   1.409 -0.1116  0.0296  0.0606
10858W        W26327  13.629   0.179  12.915  0.2111  0.1302  0.1185
10859W        W26328  11.514   7.685   3.841  0.1263  0.1469 -0.1129
10860W        W26329   3.384   5.898   4.546  0.1398 -0.1470 -0.0724
10861W        W26330   1.691  14.649  13.346  0.2854 -0.0928  0.2737
10862W        W26331   1.100   5.363   2.409 -0.0111 -0.0687 -0.0321
10863W        W26332  10.840   6.531   4.384 -0.1811  0.1118 -0.2013
10864W        W26333   8.473  11.194  14.544 -0.0724  0.1840  0.1346
10865W        W26334   5.679   4.717   0.434 -0.0649  0.2450 -0.0203
10866W        W26335   8.925  16.649  14.092 -0.1047 -0.0855 -0.3476
10867W        W26336   7.156   2.302   1.642 -0.2017 -0.4257  0.1078
10868W        W26337   4.195  11.170   0.061  0.0129 -0.1512  0.1862
10869W        W26338  16.003   4.861   3.070 -0.0910 -0.1132 -0.0519
10870W        W26339  14.628  10.566  12.916 -0.1409 -0.1180 -0.1870
10871W        W26340  14.007  12.666   3.727  0.2168 -0.0399  0.5909
10872W        W26341  12.290   8.330  15.523 -0.0187 -0.1791  0.2025
10873W        W26342  15.536  15.799  15.759 -0.0755 -0.1001  0.0973
10874W        W26343   3.344   7.319   5.137  0.3118  0.0821 -0.1306
10875W        W26344  15.079   0.621   2.790  0.0677  0.2348 -0.0080
10876W        W26345  13.255  14.093   2.022  0.0957  0.1379 -0.3517
10877W        W26346   0.417   4.917   4.678  0.0546 -0.1422  0.1206
10878W        W26347  10.735  12.713  15.899 -0.0375  0.0357 -0.1581
10879W        W26348   6.692  10.209  14.069 -0.1618 -0.0722  0.2198
10880W        W26349  15.778  11.064  12.218 -0.0013 -0.1480 -0.2036
10881W        W26350  10.732  15.696   5.142  0.0280 -0.1176  0.1414
10882W        W26351  17.208  14.872  13.277  0.0677 -0.1784 -0.2010
10883W        W26352  16.588  13.895   0.559  0.2092  0.0359 -0.2881
10884W        W26353   1.312   1.511   0.635  0.0131 -0.2340  0.2190
10885W        W26354   5.287   3.375   2.921 -0.0937 -0.0863  0.0955
10886W        W26355  14.280  14.908  12.412  0.0030 -0.4879 -0.2546
10887W        W26356  12.361   0.632   0.460  0.2454 -0.1505  0.0858
10888W        W26357   5.498  10.921   2.209 -0.1722 -0.1260 -0.0987
10889W        W26358   4.683   6.000   1.254  0.2468 -0.0607  0.3989
10890W        W26359   4.896   9.943   5.496  0.0476  0.1256  0.2347
10891W        W26360  10.653  17.321   5.676  0.0923  0.0968  0.2003
10892W        W26361  13.182   9.551   3.984 -0.3204  0.1597 -0.1074
10893W        W26362   4.697   4.931   2.821 -0.3368 -0.2700 -0.5009
10894W        W26363  12.834   0.736   4.439 -0.2328 -0.1833  0.0603
10895W        W26364   1.473  14.336  12.426 -0.2462  0.0495 -0.3777
10896W        W26365  11.190  11.425  12.123  0.3312 -0.1767 -0.0287
10897W        W26366  12.353  16.939  11.794  0.0388 -0.3375  0.1939
10898W        W26367  18.169   5.856   1.069 -0.0799  0.0863 -0.0997
10899W        W26368   3.514   9.492   5.114 -0.1237  0.0196 -0.1600
10900W        W26369  16.978   1.760   4.836 -0.3306  0.1074 -0.2485
10901W        W26370   5.970   9.227   3.761 -0.3737  0.0695 -0.2490
10902W        W26371   2.809   7.666   4.344  0.3398  0.0022 -0.0043
10903W        W26372  17.375  18.101  13.619 -0.1057 -0.0835  0.0963
10904W        W26373   0.293   8.014   4.741 -0.2351 -0.0042  0.1787
10905W        W26374   6.526   6.393   0.322  0.1804  0.2222  0.0296
10906W        W26375   0.796   8.725  11.210  0.0830 -0.3409 -0.1630
10907W        W26376   9.162   8.119  11.076  0.0053 -0.0160 -0.2964
10908W        W26377   1.202   5.738  12.606 -0.1824  0.1301 -0.0030
10909W        W26378  16.442   2.720   0.436  0.0390  0.2458  0.2397
10910W        W26379   3.917   8.855   5.569  0.1791  0.1703  0.1028
10911W        W26380  12.636  18.282   4.520 -0.1995 -0.2100 -0.0854
10912W        W26381   5.658   2.866  12.522 -0.1555 -0.2254 -0.4275
10913W        W26382   2.257  17.909   5.510  0.1613 -0.3048 -0.1436
10914W        W26383  11.266  17.701  11.897 -0.0676 -0.2287 -0.1098
10915W        W26384   6.503  17.430  15.494 -0.1753  0.0939 -0.0346
10916W        W26385  11.331   3.802   0.200  0.1135  0.1240  0.0075
10917W        W26386  16.336   0.403   2.749  0.0029 -0.2455  0.0737
10918W        W26387   9.352   2.819   1.646 -0.0837  0.2692  0.2121
10919W        W26388   1.389   7.905  13.965 -0.1276 -0.0481 -0.0518
10920W        W26389   6.387  15.799   0.377 -0.2801 -0.0673 -0.2020
10921W        W26390   0.337  15.038  12.010 -0.2265 -0.1252  0.2053
10922W        W26391  11.061  10.221  11.912  0.0532  0.1022 -0.1704
10923W        W26392   8.330   1.887   1.734  0.1044  0.0997 -0.0861
10924W        W26393   1.354  15.367  11.780 -0.1594 -0.0374 -0.2118
10925W        W26394   1.589  16.649  14.347 -0.2235 -0.3750 -0.1159
10926W        W26395  15.360  12.362  11.507 -0.0710 -0.0900  0.1831
10927W        W26396  11.730  13.129  16.122 -0.2177  0.1481  0.1276
10928W        W26397  17.452  10.268  14.530  0.0031  0.1169  0.0428
10929W        W26398   3.294  10.633  13.618 -0.2969  0.0077  0.0857
10930W        W26399   2.221   2.457  12.894 -0.1503  0.0860 -0.0229
10931W        W26400   5.357   3.040   1.771 -0.2865  0.1949 -0.1245
10932W        W26401  12.857  13.498   6.149 -0.1550  0.2517 -0.0401
10933W        W26402  11.739  14.703   1.352  0.0255 -0.1096 -0.2169
10934W        W26403   8.459  14.940   3.356 -0.2018 -0.2772 -0.1325
10935W        W26404   3.455   3.270  15.830  0.1962  0.1023  0.0998
10936W        W26405  14.790   0.646  15.958 -0.3426  0.2077  0.1076
10937W        W26406   4.960  14.606  13.456 -0.0107 -0.1211 -0.0280
10938W        W26407  17.840   0.424   3.616  0.0264  0.2032  0.0849
10939W        W26408  10.045   7.688   4.073 -0.1366 -0.0220 -0.0024
10940W        W26409   6.058   4.334  12.028 -0.0081  0.1190  0.5177
10941W        W26410   6.181   4.807  12.709  0.0984 -0.0907  0.2031
10942W        W26411   0.538   5.418   2.503  0.1922  0.3438  0.1083
10943W        W26412   5.769   3.170   3.669  0.0871  0.4371  0.3661
10944W        W26413   8.596  14.213  11.648  0.1390  0.0386  0.2117
10945W        W26414   8.700  13.420  10.749 -0.2405 -0.0712  0.3244
10946W        W26415  17.859  17.453  15.427  0.0927  0.2548  0.1355
10947W        W26416  11.089  13.192  14.135  0.4067 -0.0401 -0.0963
10948W        W26417  10.063  16.947  12.977 -0.4209  0.0802 -0.0149
10949W        W26418   5.299   3.235   3.432 -0.2144 -0.3647 -0.3297
10950W        W26419  12.058   4.283  15.964 -0.1945 -0.0739 -0.1961
10951W        W26420  12.939   9.575   2.080  0.1461 -0.0601 -0.0435
10952W        W26421  14.286   1.593   2.529  0.3887 -0.1510 -0.1484
10953W        W26422   0.523   7.655   2.646 -0.2354 -0.0390  0.0536
10954W        W26423   9.068  10.938  13.867 -0.2261 -0.0510 -0.3051
10955W        W26424   0.380   1.650  12.291  0.2115  0.4433 -0.0629
10956W        W26425   7.260  16.814  11.902  0.0134  0.2274  0.5164
10957W        W26426  10.964   5.651   4.981 -0.0965  0.0261 -0.3960
10958W        W26427   2.130   5.448   0.291 -0.1758 -0.2489 -0.0160
10959W        W26428   4.885   0.881   0.417  0.0078 -0.1356 -0.1717
10960W        W26429  11.744  13.339  14.739  0.4344  0.1592 -0.1753
10961W        W26430   3.617   7.997  14.312 -0.2398  0.0918 -0.0248
10962W        W26431   3.800   1.596   1.781  0.1218  0.1760 -0.0369
10963W        W26432   5.377  10.801   3.948  0.1325  0.2394  0.1706
10964W        W26433   6.072   5.755  13.953  0.0054 -0.1219 -0.0731
10965W        W26434  13.956   2.361   5.519  0.1215  0.0428 -0.0131
10966W        W26435  16.371   7.661   2.195 -0.0343 -0.1562  0.2778
10967W        W26436  11.710  15.106   5.384  0.0440 -0.2147 -0.2147
10968W        W26437   2.849  10.113  16.014 -0.0752 -0.4079  0.1524
10969W        W26438  16.390  12.628   3.902  0.0558  0.2490 -0.0638
10970W        W26439   0.978   4.540   5.778  0.2050  0.1889 -0.2272
10971W        W26440  17.626  16.398   2.539  0.1646 -0.1170  0.0935
10972W        W26441   2.003  12.258   0.262  0.0806 -0.1533 -0.1361
10973W        W26442   9.693  14.868  14.202  0.1460  0.3843  0.0854
10974W        W26443   2.601  10.233  12.826 -0.0025  0.0790  0.1276
10975W        W26444  14.514   2.885  11.577  0.0223 -0.0527 -0.1766
10976W        W26445  18.110  14.943  12.286 -0.0507 -0.4016  0.1488
10977W        W26446   5.130  14.639   1.801 -0.3406  0.0522  0.1781
10978W        W26447  14.381   6.187  14.688 -0.2098 -0.1361 -0.0015
10979W        W26448  12.874  16.450   2.388  0.0412 -0.2772  0.3129
10980W        W26449  14.689  15.017   1.721  0.0663 -0.2307 -0.3873
10981W        W26450   3.241   5.448   2.082  0.0100 -0.1109  0.2201
10982W        W26451   4.115  15.686  10.007 -0.0191  0.3937 -0.2256
10983W        W26452   3.505   9.300   1.499  0.4528  0.1606 -0.1570
10984W        W26453   7.017  13.291   0.575 -0.0547 -0.1537 -0.0411
10985W        W26454  17.483  12.878   1.797  0.2786  0.1184  0.1086
10986W        W26455  12.539  13.940   3.627  0.1622  0.1647  0.0500
10987W        W26456   4.256   3.166  11.276 -0.0042 -0.2643  0.1003
10988W        W26457  18.175  10.891  14.965  0.1159  0.2482 -0.0037
10989W        W26458   4.657  12.001  13.182 -0.2187  0.3111 -0.0582
10990W        W26459  11.366   8.371   5.945 -0.1699  0.2188 -0.1902
10991W        W26460   0.978   0.859   1.780  0.2089 -0.0411  0.0690
10992W        W26461   5.538  10.918   3.476  0.2935 -0.2071 -0.2607
10993W        W26462   1.632  11.933   0.166  0.0594 -0.0501  0.0156
10994W        W26463  12.679   2.090   3.763  0.3891 -0.1963 -0.0002
10995W        W26464  11.731  10.678  11.340 -0.1759 -0.4976 -0.2972
10996W        W26465  17.569  14.606   4.186  0.1356 -0.0557  0.0232
10997W        W26466   0.558  11.517  14.815 -0.0768  0.0680  0.1660
10998W        W26467   8.652   7.342   2.766 -0.3374 -0.0434  0.1597
10999W        W26468   1.542  10.056   4.171 -0.0008 -0.0569 -0.0108
11000W        W26469   8.847  14.565  11.944  0.0888 -0.0155 -0.2399
11001W        W26470  18.276  15.051  11.626 -0.0478  0.1939  0.0278
11002W        W26471  10.560   2.238   3.565 -0.1848  0.0781  0.0167
11003W        W26472  12.378  14.799   0.094 -0.0278  0.2738  0.2182
11004W        W26473  15.788   9.078  14.967  0.2391  0.2027  0.1823
11005W        W26474  15.215  10.949   2.289  0.0186 -0.0517  0.0012
11006W        W26475  14.873   3.522   1.742 -0.0563 -0.0603  0.0822
11007W        W26476   3.134  15.795  12.843 -0.1871 -0.1451 -0.1215
11008W        W26477  13.290   7.372   6.096  0.1542 -0.1955  0.6177
11009W        W26478   0.371  13.629   2.249  0.0944 -0.0636 -0.1128
11010W        W26479   5.722   6.509   5.161 -0.2598  0.0424  0.1305
11011W        W26480   5.121  14.890   0.855 -0.0027 -0.1673 -0.2850
11012W        W26481   9.490   1.109  15.146  0.0919  0.2679 -0.3081
11013W        W26482  10.680  16.598   5.065  0.4126 -0.4155 -0.0903
11014W        W26483  17.747  17.887  13.034 -0.4027  0.1781  0.0410
11015W        W26484   9.702   6.665   4.325  0.0704  0.4566  0.1735
11016W        W26485  13.282  15.760  13.883 -0.2753  0.1324  0.0921
11017W        W26486   6.908  14.158  13.132 -0.0051  0.0184 -0.1208
11018W        W26487   9.883   8.625   0.645  0.0128 -0.0145 -0.0434
11019W        W26488   2.797  14.311  10.792  0.0669 -0.1107 -0.0051
11020W        W26489   4.310   6.178  14.152  0.4178 -0.1191 -0.0727
11021W        W26490  11.807   8.493  15.005  0.0508 -0.0312  0.1532
11022W        W26491   7.702   9.350  13.479 -0.0262  0.0120  0.0024
11023W        W26492   8.792   9.748   1.408 -0.0819  0.2972 -0.1132
11024W        W26493  11.351  10.418  11.110 -0.3972  0.0063 -0.1497
11025W        W26494   7.161  12.456  13.041 -0.1228  0.2560  0.1719
11026W        W26495   5.686  11.917  11.864  0.2176 -0.3612 -0.1119
11027W        W26496   3.251  11.644   5.423 -0.1168 -0.4381 -0.3152
11028W        W26497   4.526  17.191   2.596 -0.0821  0.1044  0.0532
11029W        W26498   6.343   4.999   1.717  0.1896 -0.2105 -0.1757
11030W        W26499   3.413   4.073   3.735  0.2335  0.2624 -0.2722
11031W        W26500   9.986   9.534  16.167 -0.2476  0.0277 -0.0786
11032W        W26501   6.906   9.495   2.535 -0.0031 -0.2196  0.0039
11033W        W26502  18.065  15.692  11.496 -0.2133 -0.1525  0.1901
11034W        W26503   0.699   3.222   1.417 -0.0134  0.3014 -0.1107
11035W        W26504  10.837  16.878   2.450 -0.1638  0.0751 -0.0117
11036W        W26505  13.550  16.231   0.399  0.2057 -0.1973 -0.2085
11037W        W26506   5.567  14.466  10.676  0.0586 -0.0830 -0.1015
11038W        W26507  12.781  10.619   3.479  0.1773  0.3422  0.0737
11039W        W26508  13.601  12.590   4.054 -0.2230  0.1118  0.0197
11040W        W26509   0.825   6.055   1.773  0.0190 -0.3450 -0.0022
11041W        W26510  11.157  12.003   0.027 -0.1778 -0.0269 -0.0762
11042W        W26511   6.068  13.090  14.427  0.2128  0.1203  0.2776
11043W        W26512  15.553   9.116   1.906  0.3063  0.0713 -0.2060
11044W        W26513   5.358   0.647   1.202 -0.0413  0.1635  0.0353
11045W        W26514   6.748   2.505  14.698  0.1058 -0.3378  0.4001
11046W        W26515   0.853   5.155  14.998  0.0513  0.2113 -0.1699
11047W        W26516  17.786   2.355   1.498 -0.0301  0.1752 -0.2646
11048W        W26517  12.234   7.006   3.054  0.1013  0.2112 -0.2320
11049W        W26518  12.145  17.011  13.675  0.2394  0.1924 -0.0405
11050W        W26519   4.556  18.263   0.426  0.2060  0.2599  0.1325
11051W        W26520   0.975  12.302   1.742  0.0476  0.0713  0.1029
11052W        W26521  13.777  16.224  12.473  0.1600 -0.4279 -0.1512
11053W        W26522  15.303  13.425   2.691  0.0247  0.0693  0.1304
11054W        W26523   1.438   3.975  11.605 -0.0648  0.2219 -0.2047
11055W        W26524   5.092   8.432   6.164 -0.1144  0.3814  0.0966
11056W        W26525   2.859   7.016   4.345 -0.0422 -0.3221  0.1973
11057W        W26526   8.644   3.710  12.006  0.0594 -0.1349 -0.2186
11058W        W26527  14.912   7.063  14.266  0.0437 -0.2028  0.2067
11059W        W26528  16.567   2.490  16.149 -0.3073 -0.0931 -0.1393
11060W        W26529  14.518   3.980  10.939  0.0332 -0.2995  0.1318
11061W        W26530   1.697   0.185   2.622  0.0136  0.0318  0.1752
11062W        W26531  17.416  15.479  12.639 -0.1296  0.4324 -0.0537
11063W        W26532  11.137  15.063   6.105 -0.1341 -0.2018  0.0313
11064W        W26533   9.949  12.093   0.397  0.0175 -0.0288 -0.3769
11065W        W26534   3.943   5.596  14.866 -0.1930  0.2245 -0.0199
11066W        W26535  14.258  11.843  16.165  0.0054  0.1622  0.1024
11067W        W26536   7.835   8.892  15.300 -0.0714  0.1836  0.2851
11068W        W26537   7.964   4.090   0.752 -0.1916 -0.3884  0.2002
11069W        W26538   8.002   7.757   4.593  0.0281 -0.0341  0.4105
11070W        W26539   0.964  12.177  15.871 -0.2884  0.2131 -0.0588
11071W        W26540  13.922   5.138  12.793  0.1419 -0.5230  0.3439
11072W        W26541  10.303  13.041  10.788 -0.0370 -0.0121  0.0412
11073W        W26542   5.328  11.337  14.113 -0.1752  0.1152 -0.2311
11074W        W26543   5.945   9.901  11.793 -0.0128  0.1544 -0.2653
11075W        W26544  17.383  17.086  14.131  0.1644  0.1614  0.0951
11076W        W26545   8.033  14.848  13.032  0.0173  0.2659 -0.2916
11077W        W26546   7.192   4.240  11.770 -0.0473 -0.0690 -0.2984
11078W        W26547   9.458  15.781   6.136 -0.1936  0.0322  0.2137
11079W        W26548  14.638  15.566  12.937 -0.1450 -0.2075 -0.1293
11080W        W26549   0.780  11.097  13.141  0.0591 -0.1625  0.1170
11081W        W26550   0.863   2.530   1.952 -0.0236 -0.0771 -0.1026
11082W        W26551  15.808  16.360  12.007 -0.0824  0.2587 -0.1510
11083W        W26552   2.366   6.195   2.569 -0.2348  0.0207 -0.1842
11084W        W26553  15.961   8.427   1.499  0.0998 -0.1394 -0.0842
11085W        W26554   2.259   5.702  14.638  0.0717 -0.0822  0.0851
11086W        W26555  12.000   8.785   2.762 -0.1760 -0.0172 -0.2155
11087W        W26556  10.837  15.692   4.298  0.3514 -0.0462 -0.2009
11088W        W26557   7.319  10.116  12.168  0.0643  0.1064  0.2308
11089W        W26558   7.056  12.992   3.589  0.0390  0.2521 -0.0694
11090W        W26559   9.299  14.051  12.860 -0.1952  0.1002 -0.0922
11091W        W26560  17.306   1.203  11.490  0.1441  0.1160  0.0854
11092W        W26561   2.310   3.985  12.748 -0.2305 -0.2224  0.1880
11093W        W26562  17.437  14.484  11.643 -0.0810 -0.1369  0.1560
11094W        W26563  17.597   2.634  13.869 -0.0760  0.1322  0.1719
11095W        W26564   3.137  11.804  15.901  0.0186  0.1183  0.3772
11096W        W26565   6.107   9.715   1.479  0.0427 -0.0589 -0.1879
11097W        W26566   2.514  11.461   2.080  0.1219  0.1331  0.0165
11098W        W26567   7.381  12.748  12.129 -0.2623 -0.1695  0.4127
11099W        W26568   1.471  17.251  11.229  0.0638  0.3954 -0.2452
11100W        W26569   7.906   9.554   4.600  0.0611 -0.0592 -0.1629
11101W        W26570   2.447   6.719   4.652 -0.0771  0.0020  0.1534
11102W        W26571  10.223   9.924   2.114 -0.0962  0.1978 -0.0984
11103W        W26572  11.423   6.321  14.673  0.1247 -0.2981 -0.0076
11104W        W26573   4.549  16.382   1.571 -0.2175  0.1390 -0.0288
11105W        W26574  13.326  10.786   4.746  0.1565  0.2160  0.1145
11106W        W26575  12.665   1.798  12.375 -0.1357  0.1367 -0.0217
11107W        W26576  15.411  16.462  14.485  0.0905  0.0419  0.0380
11108W        W26577   4.315   3.204  12.526 -0.0704  0.3149  0.1878
11109W        W26578   7.738  11.601  13.351 -0.2237 -0.0807 -0.2303
11110W        W26579   9.739  15.558   0.578  0.1622 -0.0538  0.2150
11111W        W26580   7.409   4.711   5.167 -0.0189  0.2286  0.0816
11112W        W26581   7.916  17.040  10.884 -0.0114  0.0917 -0.1268
11113W        W26582  17.938   1.583  14.563  0.0870  0.3901  0.1232
11114W        W26583   8.462  14.600  15.027  0.5682 -0.1228  0.1048
11115W        W26584   7.455   0.375  14.852  0.0428  0.3872 -0.0831
11116W        W26585  17.523  13.018  11.492 -0.2197  0.2021 -0.1525
11117W        W26586   9.717   3.969   4.281  0.0426  0.0237 -0.1290
11118W        W26587  11.220  16.431  14.153 -0.2308 -0.1795 -0.0140
11119W        W26588   7.656   4.571  13.393  0.1222  0.1396  0.4149
11120W        W26589   9.940  17.686  11.438  0.0355 -0.2513  0.1866
11121W        W26590   2.001  16.741  15.910 -0.1481  0.0482 -0.0017
11122W        W26591   7.848  17.247   2.289  0.1429  0.0724  0.2272
11123W        W26592   0.742  18.054  11.748  0.3403  0.0969  0.0650
11124W        W26593   8.172   6.748   0.433  0.1729 -0.0513 -0.3325
11125W        W26594  17.644   2.045  13.806  0.1573 -0.2425  0.5408
11126W        W26595  14.701  11.039  13.145 -0.0541 -0.2211 -0.4105
11127W        W26596   2.206  11.696  15.392 -0.1530  0.2708  0.1659
11128W        W26597  17.263   3.301  13.099  0.0225  0.0967  0.0383
11129W        W26598  15.990  12.456   5.098 -0.0193 -0.2065 -0.1350
11130W        W26599   0.665  17.779   0.440 -0.0013  0.2093  0.5243
11131W        W26600   2.502  12.275   3.671  0.0684 -0.3690 -0.1395
11132W        W26601   6.352   4.781   2.751  0.2784  0.0053  0.0080
11133W        W26602   7.554  17.018   0.134  0.1391  0.0286 -0.3903
11134W        W26603  10.114   5.370   4.270 -0.1877 -0.2375  0.2170
11135W        W26604   6.146  17.299   0.170 -0.2122 -0.1095 -0.0175
11136W        W26605   0.985  16.778   3.715 -0.2961 -0.2708 -0.0516
11137W        W26606  15.447   6.238  16.021  0.0912  0.1629 -0.0785
11138W        W26607  10.001  15.522  15.945 -0.1293  0.1331  0.0067
11139W        W26608   5.963   9.628  14.273 -0.0884  0.1365 -0.0415
11140W        W26609   9.080   3.234   4.437 -0.0038  0.0161 -0.1527
11141W        W26610   6.865  11.537  13.748  0.2374  0.0006 -0.0183
11142W        W26611   6.658   4.686  15.358 -0.2088  0.1394 -0.0616
11143W        W26612  15.604   8.561  15.601 -0.1780 -0.1747 -0.0951
11144W        W26613   5.020   6.596   4.451 -0.0817  0.2005 -0.0462
11145W        W26614  12.316   3.415  15.687  0.0393  0.2656 -0.1595
11146W        W26615   5.708   5.213   0.978  0.3194 -0.0633  0.0698
11147W        W26616   7.315  11.636   2.729  0.2600 -0.0152  0.0958
11148W        W26617   7.092   0.416  15.982  0.0064 -0.0406  0.1965
11149W        W26618   6.363  11.115  15.737 -0.0115 -0.2556 -0.0695
11150W        W26619   3.200  17.252   3.000  0.3557  0.0342  0.2800
11151W        W26620  11.857  15.491   0.254  0.1479 -0.0691  0.2280
11152W        W26621  15.535   9.870  12.178 -0.1409  0.2187  0.1679
11153W        W26622  17.632  15.421   5.460 -0.1737 -0.1301  0.1068
11154W        W26623  12.309   8.169  13.905  0.0921 -0.2314  0.1364
11155W        W26624   1.965   8.256  13.313 -0.0315 -0.0902 -0.2239
11156W        W26625   7.265  16.473  15.143 -0.1823 -0.2950 -0.0309
11157W        W26626   6.210   0.685   0.169 -0.0891 -0.1476 -0.4199
11158W        W26627   8.652  14.455   1.361  0.2181 -0.0246 -0.1495
11159W        W26628   8.931   0.612   3.647 -0.1410 -0.2181 -0.0692
11160W        W26629  10.971   0.452   1.146 -0.0915 -0.1542  0.1743
11161W        W26630   2.541   3.380  14.129 -0.1305  0.0798  0.0468
11162W        W26631   4.043   5.042  14.529  0.1667  0.1244  0.0622
11163W        W26632   0.031   0.659  12.434 -0.4354  0.0529 -0.3908
11164W        W26633   4.518   2.740  11.366  0.2778 -0.0053 -0.0946
11165W        W26634  10.837   5.467   1.280 -0.1563 -0.0101  0.3485
11166W        W26635   6.976   7.169  11.365 -0.1482  0.2958  0.0127
11167W        W26636   9.409   3.194  14.652  0.2047  0.0202 -0.0520
11168W        W26637  17.581  12.587  11.182 -0.1560  0.0388 -0.1532
11169W        W26638   0.555  16.928   1.769 -0.0782 -0.2106 -0.1976
11170W        W26639  10.783  17.488   4.485  0.0914  0.2542  0.3717
11171W        W26640   4.685   7.376  13.598  0.2670  0.0602 -0.0634
11172W        W26641   3.792  14.110   1.870  0.3208  0.1672  0.0501
11173W        W26642   7.754  15.637   4.040  0.3970 -0.2379 -0.1928
11174W        W26643  10.084   2.480  13.286 -0.0872 -0.0046 -0.4430
11175W        W26644   8.295   7.589  11.820  0.2480  0.0727 -0.0424
11176W        W26645  12.923   9.174   4.306 -0.1504 -0.0213  0.2454
11177W        W26646  16.102   4.245  11.055  0.0617 -0.1666 -0.3682
11178W        W26647   8.873   0.951  12.117  0.1169  0.2403  0.1893
11179W        W26648   9.099  10.816   2.330 -0.0073 -0.0756 -0.0312
11180W        W26649   8.809  12.873  12.693 -0.1779  0.1218 -0.1691
11181W        W26650   9.655  10.482  15.675 -0.0492 -0.0848 -0.1336
11182W        W26651   8.299   3.006  13.886 -0.1329  0.0994 -0.0951
11183W        W26652  10.522  15.450  16.058 -0.1076 -0.0981 -0.2918
11184W        W26653  15.151   9.488   0.906  0.1563  0.2276 -0.1181
11185W        W26654   5.354   4.890  13.088 -0.2138 -0.1777  0.1040
11186W        W26655   6.549  13.547  13.413 -0.0591 -0.1591  0.0625
11187W        W26656   6.522  10.704  13.319  0.1242 -0.1994  0.1703
11188W        W26657   2.959   9.853   1.264 -0.2753 -0.1144  0.3116
11189W        W26658   6.131   5.197   2.242 -0.2513  0.2857  0.0314
11190W        W26659   5.185   0.948  12.430 -0.0274  0.1858 -0.0038
11191W        W26660   5.266  12.902   0.351  0.1781  0.3587  0.1119
11192W        W26661  17.929  10.319  11.958  0.3144  0.1935  0.2412
11193W        W26662  11.081   0.868   3.710 -0.2246  0.0547 -0.1495
11194W        W26663   3.728  16.552  10.802 -0.0082  0.0297  0.0684
11195W        W26664  13.007   2.889  15.348  0.1854 -0.2167 -0.0183
11196W        W26665   6.321   8.448  15.765 -0.1207 -0.0285  0.1190
11197W        W26666  14.983  10.724  15.388 -0.1573 -0.1878  0.1389
11198W        W26667   9.894  17.962   3.762  0.1635  0.1471  0.0381
11199W        W26668   7.512  12.686  10.992  0.1285  0.1729 -0.0389
11200W        W26669  13.528   4.787   4.340  0.0861 -0.4435 -0.0998
11201W        W26670  17.458  15.022  14.344  0.0040  0.0080  0.1055
11202W        W26671   6.017   7.554   4.622  0.4126  0.5106  0.1679
11203W        W26672  12.580   4.616   2.347 -0.0193 -0.1732  0.1794
11204W        W26673   3.575  13.333  10.805 -0.0473  0.2697  0.0446
11205W        W26674  16.449   7.223  16.132  0.2017  0.0976 -0.2087
11206W        W26675  14.703  17.738  15.678  0.2811 -0.3081  0.1616
11207W        W26676   0.977  16.308   1.341  0.6388  0.0283 -0.0551
11208W        W26677   1.560   8.414   1.112 -0.2852  0.0915 -0.0582
11209W        W26678  16.544   1.793  14.496 -0.0360  0.2451 -0.2437
11210W        W26679   0.527  14.128  14.397  0.0744  0.3935  0.0363
11211W        W26680  16.034  15.942  15.697  0.1124  0.0302  0.1216
11212W        W26681  11.118  14.028   3.549 -0.1115 -0.1903 -0.1501
11213W        W26682   9.699   1.591  11.543  0.0360  0.0295 -0.1467
11214W        W26683   5.434  14.699  13.409  0.0549  0.1468  0.0525
11215W        W26684  13.038   8.594   5.526 -0.0069  0.3252  0.1135
11216W        W26685  16.635   1.751   2.543  0.0556 -0.0166 -0.2418
11217W        W26686   1.637   3.531  15.998 -0.2190  0.0232 -0.1114
11218W        W26687  11.781  13.275  11.910  0.1921  0.2871  0.5275
11219W        W26688   5.333   3.145   4.016  0.0062  0.0073 -0.1184
11220W        W26689  15.379   1.300  13.934  0.1624  0.2243  0.1778
11221W        W26690   2.472   0.352   5.102  0.1698 -0.0413  0.1180
11222W        W26691   8.181  12.260   0.216  0.1003 -0.3310 -0.1516
11223W        W26692   8.726  12.467   1.045  0.0840  0.2404 -0.3630
11224W        W26693   6.443   6.199  12.085 -0.1128  0.0919  0.1407
11225W        W26694  10.975   1.875   4.382  0.0255 -0.1543 -0.1162
11226W        W26695   6.421   2.144   0.327 -0.0089 -0.0609  0.0508
11227W        W26696   9.561   8.088   2.283 -0.1575 -0.0145  0.0972
11228W        W26697   2.326   4.874   1.748  0.2876  0.1759 -0.0995
11229W        W26698  14.141  14.667  11.379 -0.0491 -0.2177 -0.1232
11230W        W26699   4.246  12.582  14.100  0.0084  0.4537  0.0027
11231W        W26700   6.547   2.425   2.971  0.0409  0.0119 -0.1779
11232W        W26701   7.527  12.114   2.767 -0.0504  0.1299  0.1625
11233W        W26702   2.984   2.994  12.186 -0.0017 -0.2884 -0.1802
11234W        W26703  16.613   2.835  15.069  0.1400 -0.1191 -0.0518
11235W        W26704  18.052   4.955  15.360  0.1099 -0.0657 -0.2884
11236W        W26705   7.347  12.156  11.014  0.1077 -0.0940  0.3318
11237W        W26706  12.855   8.182   3.642 -0.0173  0.3724 -0.0150
11238W        W26707   7.250   0.989   1.441 -0.0274 -0.1122  0.2815
11239W        W26708   6.847  13.857   1.625  0.1507 -0.2928 -0.0562
11240W        W26709   1.725  13.906   2.609  0.4026 -0.0829  0.0217
11241W        W26710   5.639  16.029   1.367  0.1268  0.1197  0.1804
11242W        W26711   2.113  15.011   4.332  0.2782 -0.1990 -0.1665
11243W        W26712   4.328  14.014   4.208  0.2649 -0.0592 -0.0360
11244W        W26713   9.753   5.655   0.194 -0.1765 -0.1499 -0.0834
11245W        W26714  15.783   4.944  13.755  0.2051  0.0129 -0.1112
11246W        W26715   1.907  16.196   2.556  0.1388 -0.1043 -0.3743
11247W        W26716  13.554   9.050  10.854  0.1586  0.1450  0.0767
11248W        W26717   9.562  17.175  14.966 -0.1942 -0.2261 -0.1494
11249W        W26718   7.036   7.372   0.734  0.1779  0.1130 -0.1502
11250W        W26719   6.013  12.457   1.735  0.0708  0.0564  0.2127
11251W        W26720   2.488   0.537  12.162  0.0807 -0.0440 -0.2341
11252W        W26721   9.245   8.000   3.157 -0.0312 -0.1854  0.0674
11253W        W26722   2.134  13.542  15.971  0.0115  0.0133 -0.2329
11254W        W26723  12.687  16.228  12.743 -0.2517  0.3357 -0.0256
11255W        W26724   4.241   1.941   1.783  0.0995 -0.0011  0.0004
11256W        W26725  10.278   8.189  11.662  0.3917 -0.0970 -0.0717
11257W        W26726   3.148   8.901   2.270 -0.0325 -0.1410 -0.3011
11258W        W26727  11.795   2.251   1.284  0.3171 -0.1059  0.0097
11259W        W26728  13.417   2.962   1.875  0.2674  0.2394  0.0018
11260W        W26729  15.429   9.743   1.229 -0.1025  0.1717 -0.0816
11261W        W26730   4.131   7.238   5.402  0.0704 -0.0117  0.3189
11262W        W26731  16.355   8.702   2.383  0.0140  0.1001  0.2403
11263W        W26732   6.328  14.530  12.442 -0.0325 -0.1421 -0.0447
11264W        W26733   3.475  11.880   2.419 -0.0045 -0.0466  0.0913
11265W        W26734  10.261   3.886   4.856  0.1846  0.0331 -0.1538
11266W        W26735   9.435   6.984  12.871 -0.0572 -0.0926  0.0853
11267W        W26736  10.811   8.747  15.464 -0.1824 -0.3264 -0.1823
11268W        W26737  12.657   0.167   5.125  0.1855 -0.0722  0.0487
11269W        W26738  14.079   1.527   0.933 -0.1799  0.0885  0.1362
11270W        W26739   9.743   4.254  12.005  0.1982  0.0754  0.0014
11271W        W26740   0.792   3.568  14.614 -0.0724  0.1566 -0.1190
11272W        W26741  13.851   1.841   2.800  0.2518  0.1367  0.1806
11273W        W26742  14.012   9.176  14.411  0.1266 -0.1034 -0.1730
11274W        W26743   0.870   0.756   0.467 -0.0886 -0.0120  0.1272
11275W        W26744  14.067   6.559  12.238 -0.0914 -0.0983  0.1529
11276W        W26745  15.427   3.937   4.881  0.0778  0.0841 -0.1037
11277W        W26746  14.960   3.943  13.615 -0.0222 -0.0241 -0.1818
11278W        W26747   0.116   0.824   0.952  0.3041  0.3603 -0.4453
11279W        W26748  16.668  15.757  15.384  0.0442 -0.1020 -0.2173
11280W        W26749  14.831   8.798  11.726  0.2029 -0.0063  0.2131
11281W        W26750  12.822  13.312  14.817  0.3567 -0.0345  0.1719
11282W        W26751  14.461   6.305   2.264 -0.1745  0.0036 -0.1063
11283W        W26752   7.522   5.763   3.535  0.2599  0.1310 -0.0654
11284W        W26753  10.574  17.909   2.170 -0.3288 -0.2212  0.0923
11285W        W26754  18.019   5.672  14.580 -0.0474  0.0929  0.0110
11286W        W26755  11.969   3.571  13.339  0.0565 -0.1306  0.2374
11287W        W26756  12.734   4.670   3.957 -0.0519 -0.1843 -0.0038
11288W        W26757  13.535   9.505   0.129 -0.1629 -0.0454  0.2623
11289W        W26758  11.263  13.527   5.118 -0.0536 -0.0929  0.1946
11290W        W26759  14.074  12.819   4.241  0.1139  0.0712 -0.2848
11291W        W26760   9.273   4.358  12.064  0.1338 -0.1259  0.0410
11292W        W26761   0.016  11.213  11.154 -0.3293 -0.0960 -0.0822
11293W        W26762   5.692  14.538   0.306 -0.4421  0.0909 -0.0501
11294W        W26763   9.730  15.286  14.414  0.1547 -0.1336 -0.0867
11295W        W26764   6.751   7.685   1.923  0.1182  0.0626  0.2055
11296W        W26765  16.261  15.541   5.568  0.0117 -0.1173  0.0539
11297W        W26766   5.821   7.889   0.027  0.3405 -0.1038 -0.0550
11298W        W26767   7.416   5.091   1.453  0.0514  0.0002 -0.0626
11299W        W26768   7.558   8.914  13.974 -0.2987  0.0139 -0.0442
11300W        W26769   5.177  11.348   5.252  0.0897  0.3097 -0.0018
11301W        W26770  11.728   2.786  11.722  0.2035  0.0422 -0.1003
11302W        W26771  13.974  12.503  15.808  0.0150 -0.0088 -0.0467
11303W        W26772  14.195  17.452   5.499  0.2490  0.3397  0.0578
11304W        W26773  13.489   1.398  13.133  0.0411 -0.0384 -0.2626
11305W        W26774  13.192   1.487  12.331 -0.0326 -0.0126  0.0323
11306W        W26775   2.128   4.632  11.751 -0.2999 -0.0022 -0.2330
11307W        W26776   2.908  14.562  13.181 -0.2523  0.0804 -0.0745
11308W        W26777  12.789  16.953  11.564  0.0018 -0.0865  0.4619
11309W        W26778   3.750   1.480   0.499  0.0248  0.1550  0.4431
11310W        W26779  11.225  13.583  13.587 -0.0707 -0.2056  0.2306
11311W        W26780  10.755  14.017   4.353 -0.0433 -0.0058 -0.1994
11312W        W26781  11.745  13.490   4.797  0.0120  0.0378 -0.2167
11313W        W26782   0.473   0.389   1.641  0.0127  0.1723 -0.1970
11314W        W26783   8.005   9.919  14.253  0.0860 -0.1940  0.0884
11315W        W26784  17.762   4.706  13.289  0.1108  0.0900 -0.4381
11316W        W26785  15.856  11.801   5.493 -0.0013  0.1277  0.1489
11317W        W26786   5.391   1.379  16.074 -0.0367  0.1443  0.1557
11318W        W26787   0.952   3.545   2.051 -0.0166  0.2172 -0.0681
11319W        W26788  14.310   1.828  12.761  0.2136 -0.0346  0.2266
11320W        W26789  10.444   1.544  15.985 -0.0432 -0.2620  0.0160
11321W        W26790   7.020  17.025   0.952 -0.1195 -0.0975  0.0365
11322W        W26791   9.065   7.448  12.828  0.0616  0.0458 -0.2815
11323W        W26792   8.413  17.941  15.428  0.2785  0.1102  0.0486
11324W        W26793   2.926   8.417  15.667  0.0093  0.2172  0.3940
11325W        W26794   6.696   5.299   0.447  0.0942 -0.0181 -0.0172
11326W        W26795   1.999  15.876   1.480  0.0215  0.1781  0.0797
11327W        W26796   8.881   0.981   0.652 -0.1504 -0.3357  0.1378
11328W        W26797  18.007   2.758  12.147  0.0155 -0.0832 -0.0227
11329W        W26798   6.575  18.263   3.496  0.0314 -0.0955 -0.4267
11330W        W26799  14.532  13.047   2.179 -0.0484  0.1966  0.0446
11331W        W26800   5.076  10.280  15.964 -0.0051 -0.3530 -0.2588
11332W        W26801  11.878   4.217   4.147 -0.1831 -0.2054  0.0940
11333W        W26802   3.107   5.175   5.187  0.0184  0.3087 -0.0225
11334W        W26803   4.266  13.239   0.332  0.0241 -0.2676  0.0437
11335W        W26804  14.120   9.941   0.940 -0.2522  0.0471 -0.0759
11336W        W26805   0.669   3.545   5.223  0.2638  0.0352  0.0330
11337W        W26806   5.844  14.132   1.799 -0.0696  0.1359  0.1259
11338W        W26807  16.818   1.045  12.755  0.3445 -0.1937  0.2742
11339W        W26808   6.571   9.487   1.344 -0.0041  0.0205  0.1499
11340W        W26809  17.952   0.919   1.944 -0.1478  0.5211  0.2115
11341W        W26810  16.789   9.590  11.242 -0.0477  0.0535 -0.2277
11342W        W26811  13.906   5.593   3.781 -0.4649 -0.2739 -0.0882
11343W        W26812  14.103  15.463  13.598 -0.3882 -0.0350 -0.0756
11344W        W26813  14.474   2.705   5.093  0.2144  0.4485 -0.0775
11345W        W26814   5.568  10.472  15.867  0.0614  0.1119 -0.4193
11346W        W26815  16.978   0.509   2.394 -0.0144  0.0998 -0.1600
11347W        W26816   9.690  11.775   1.103 -0.1735  0.0654  0.0074
11348W        W26817   0.733  15.169  11.123 -0.1664  0.0113 -0.0855
11349W        W26818   9.298   0.983  12.798 -0.0924 -0.0208 -0.2239
11350W        W26819   8.307  12.605   1.291  0.2810 -0.1755  0.1909
11351W        W26820   6.652  10.122   2.950 -0.0433 -0.2074  0.0280
11352W        W26821   2.153  11.763   1.129 -0.0009 -0.0007  0.1470
11353W        W26822  13.093   4.287  10.108  0.0421 -0.2420  0.1874
11354W        W26823  15.662   2.021   4.618  0.0415  0.4078 -0.2490
11355W        W26824   9.525  16.940   5.044  0.0192  0.2508  0.1692
11356W        W26825  11.446   3.985  11.183  0.0234  0.2393 -0.3734
11357W        W26826   6.464   2.721   3.386  0.3931  0.2670  0.1137
11358W        W26827   2.556   6.560   4.131  0.0082 -0.1251 -0.1756
11359W        W26828  15.547   6.547  12.746  0.1495  0.2060 -0.2087
11360W        W26829   6.171   1.406   4.585 -0.5510 -0.2208  0.4169
11361W        W26830   6.181   1.292  12.744  0.2196  0.0681  0.0222
11362W        W26831  11.001   1.918   5.877 -0.1090  0.0193  0.0637
11363W        W26832   9.119   3.682   1.411  0.0476  0.1964  0.1471
11364W        W26833  13.481   2.579  11.676 -0.0207 -0.2388  0.0521
11365W        W26834   0.077  15.397  12.287 -0.0895  0.0996  0.0181
11366W        W26835  12.348  16.992  15.078  0.0176 -0.3637 -0.0537
11367W        W26836  14.001   4.442  12.641 -0.3707 -0.0137 -0.0599
11368W        W26837  11.261  12.292   4.589  0.0004 -0.1234 -0.2301
11369W        W26838  15.868  12.328  15.066 -0.0758  0.1511 -0.2061
11370W        W26839   7.918   8.324   0.283  0.1245  0.0611 -0.0977
11371W        W26840   9.021   1.897  13.149  0.2342  0.1534  0.0915
11372W        W26841  11.981   9.885   3.707 -0.2226  0.0894 -0.0549
11373W        W26842  12.477  10.923  15.565  0.3544 -0.2747 -0.0824
11374W        W26843  11.193  17.850  12.911 -0.1868 -0.0006 -0.0541
11375W        W26844  10.985   0.568  15.043  0.0062  0.0965  0.2216
11376W        W26845   2.326   5.802  11.079 -0.0045 -0.4090  0.2368
11377W        W26846  17.142   3.176   4.410  0.0772 -0.0483 -0.2545
11378W        W26847   2.521  14.760  12.886  0.3833 -0.1289 -0.3452
11379W        W26848   6.210  17.383  14.726  0.2552  0.1106 -0.1731
11380W        W26849   5.082   6.357   3.157  0.1118 -0.2229  0.1744
11381W        W26850  16.635   1.067  15.606  0.5127  0.1747 -0.0682
11382W        W26851  10.950   6.042  15.858 -0.0679 -0.0283 -0.2781
11383W        W26852  12.953   8.917  14.113 -0.0028 -0.1722  0.2748
11384W        W26853  17.018   6.143   0.674 -0.0112 -0.0836 -0.1458
11385W        W26854  12.470  13.438  15.607  0.1196 -0.1197 -0.1595
11386W        W26855  13.881  10.017   1.853 -0.4651 -0.0809 -0.5806
11387W        W26856   0.882   9.554   4.189 -0.3105  0.0600  0.0748
11388W        W26857   5.209   4.413  15.597  0.2362 -0.3183 -0.2523
11389W        W26858   6.265  12.019  12.024 -0.0448 -0.3305 -0.1161
11390W        W26859   8.403  13.904   0.471  0.1146 -0.4020 -0.0535
11391W        W26860   7.474   1.958  14.725  0.0565 -0.2083  0.1165
11392W        W26861   1.845   3.097   0.158 -0.2510 -0.0290 -0.1696
11393W        W26862   6.411  14.681   3.211 -0.3387  0.1722 -0.1220
11394W        W26863   1.635   9.582  10.508  0.2899 -0.0059  0.0842
11395W        W26864  13.317  11.597  12.093 -0.0536 -0.1449  0.1665
11396W        W26865   6.933  17.632   9.968  0.0242  0.1999  0.2057
11397W        W26866  12.701   1.782   3.396 -0.1076 -0.0408  0.0903
11398W        W26867   2.399   1.403   0.025 -0.2030  0.0603  0.1267
11399W        W26868  13.510  10.447   1.352 -0.3728 -0.2147 -0.1051
11400W        W26869  17.154   2.007   6.135 -0.1724 -0.2920 -0.0623
11401W        W26870  14.270   9.521   3.087  0.0356  0.2568  0.1115
11402W        W26871   8.791  14.211  15.999  0.0433  0.1492  0.0272
11403W        W26872  12.722  14.779  11.670 -0.1279  0.1171 -0.0611
11404W        W26873  13.476   5.865   0.359 -0.1168 -0.1276 -0.0464
11405W        W26874   7.720  16.180   2.297 -0.0810  0.2441 -0.3038
11406W        W26875  11.401   1.919   4.613 -0.2404  0.1496 -0.0754
11407W        W26876   3.974   7.368   5.993  0.0820 -0.1502 -0.1595
11408W        W26877   6.196   0.901   4.631  0.3138  0.0686 -0.1017
11409W        W26878   6.020  11.953   2.477 -0.0953 -0.3291  0.1808
11410W        W26879  15.905   6.146   4.867 -0.3326  0.2433 -0.0891
11411W        W26880   3.947   7.751  11.309 -0.1746  0.0293  0.1169
11412W        W26881  10.035   1.803  11.077  0.2576  0.2250  0.2703
11413W        W26882   7.948   2.036  15.905 -0.0350  0.2371  0.0527
11414W        W26883   2.875   8.608   0.022 -0.0906 -0.3208 -0.3311
11415W        W26884   1.956  17.436   4.971  0.1774  0.1199 -0.0582
11416W        W26885   8.413  11.313   0.012  0.0184  0.0878 -0.0260
11417W        W26886   1.785  16.189  12.660 -0.2134 -0.0001  0.1200
11418W        W26887  15.899   7.631   4.007  0.1856  0.4274 -0.0798
11419W        W26888   9.446   0.207  12.216 -0.2576  0.0033 -0.0971
11420W        W26889   6.288  16.030   2.077  0.0093 -0.1846 -0.0139
11421W        W26890  14.335  12.781  11.502  0.0715  0.0851  0.0266
11422W        W26891   2.269   0.794   4.895 -0.3261 -0.3752 -0.0748
11423W        W26892   6.703   3.967   4.966  0.1387 -0.0402  0.1857
11424W        W26893  16.798   6.871  11.780  0.1324  0.3679 -0.0668
11425W        W26894   0.950  17.861  15.336 -0.0768 -0.2024  0.0163
11426W        W26895  17.828   8.477   4.522  0.1780 -0.0273  0.0544
11427W        W26896   4.782   7.244   2.785  0.2046  0.0045 -0.0966
11428W        W26897  10.432  14.936   4.111 -0.1605 -0.3196 -0.1238
11429W        W26898  18.088   8.943  13.374 -0.2124  0.0456 -0.1270
11430W        W26899   2.354   7.929   5.510  0.1913 -0.0544  0.0753
11431W        W26900  13.487   2.632   2.805  0.0721 -0.1398  0.1233
11432W        W26901  16.400  17.114  15.125 -0.0458  0.1617  0.1299
11433W        W26902   2.591   3.393   1.843  0.0172 -0.2232 -0.1938
11434W        W26903  12.285  10.093   2.436 -0.0140  0.0078  0.2414
11435W        W26904  15.837   1.682  11.109  0.1495 -0.3562 -0.0091
11436W        W26905  16.632   4.504   5.269  0.0544  0.0130 -0.4340
11437W        W26906  14.215  13.047  15.145 -0.1627 -0.0870  0.0332
11438W        W26907   0.949   8.561  14.684 -0.1986  0.1933  0.0684
11439W        W26908   2.406  14.254  11.870 -0.1468  0.1472  0.1252
11440W        W26909   2.962  17.676  16.013 -0.1274 -0.2495 -0.0368
11441W        W26910   7.818  13.906  14.305  0.1733  0.0314  0.1226
11442W        W26911   2.018  12.069  11.336 -0.0164  0.3708 -0.2857
11443W        W26912  13.430   5.751  13.527 -0.1922 -0.1664 -0.1164
11444W        W26913   1.288   5.029  13.240 -0.3993 -0.1106 -0.3581
11445W        W26914  14.522  18.215   4.152  0.1200 -0.1420 -0.1778
11446W        W26915   1.545  10.368   1.529 -0.1047  0.0451 -0.1572
11447W        W26916   6.183   7.352  15.473  0.0639  0.1242  0.0236
11448W        W26917  16.389  12.927   4.890  0.0870  0.2355  0.0235
11449W        W26918  17.587   7.496  15.494  0.3242  0.1933  0.0678
11450W        W26919  12.750  17.186   4.439 -0.3156  0.0218  0.1366
11451W        W26920  10.057   5.035  12.989  0.0861 -0.3512 -0.0866
11452W        W26921   2.885   1.913   1.632 -0.3154  0.2285  0.2366
11453W        W26922   0.647   8.084   6.601  0.1012  0.2349 -0.3081
11454W        W26923  15.403   1.697   6.192  0.0533 -0.1768  0.0112
11455W        W26924  15.222  15.995  15.413  0.0868  0.3979 -0.0416
11456W        W26925  12.980  14.185  15.380  0.2975  0.0749 -0.1986
11457W        W26926  11.194  14.110   9.842 -0.4407 -0.0052  0.1636
11458W        W26927   0.001   5.786   1.613 -0.0684 -0.1136 -0.1761
11459W        W26928   8.051   2.575   4.379  0.2224  0.0333 -0.0652
11460W        W26929   9.475  17.290  11.308 -0.2981  0.0287  0.2263
11461W        W26930  12.156   0.543   1.811 -0.0820 -0.2171  0.0343
11462W        W26931   7.574  11.202   2.624 -0.1617  0.1355 -0.0309
11463W        W26932   7.198  12.900  11.345  0.0544 -0.4662 -0.0675
11464W        W26933   7.040   3.439  13.533 -0.0142  0.2369  0.0614
11465W        W26934  13.262  10.985  13.874  0.1081  0.2289  0.0986
11466W        W26935  10.927  12.862   5.814  0.2103  0.0230  0.1960
11467W        W26936  17.280   7.723  13.915  0.0242 -0.1143 -0.3669
11468W        W26937  13.840  11.445   4.248 -0.2088  0.0982  0.2577
11469W        W26938  10.694   0.730   2.715  0.0592  0.0389  0.0566
11470W        W26939   8.982  11.527   1.636 -0.2681  0.2398 -0.3026
11471W        W26940   3.308  14.013  13.033 -0.2876  0.0126  0.1769
11472W        W26941   2.215  17.346  12.861 -0.0354 -0.0293  0.0755
11473W        W26942  12.614   6.307  10.114  0.0357 -0.0196  0.0171
11474W        W26943  14.307   7.706  15.799  0.2940  0.0414  0.0040
11475W        W26944   2.357   9.886  15.971  0.0701  0.2118  0.1086
11476W        W26945   4.469  17.377   0.312  0.1763 -0.2909  0.1755
11477W        W26946   7.782  14.437  14.300  0.1213  0.0303 -0.2162
11478W        W26947  14.431   8.981   5.319 -0.1191  0.1662 -0.2454
11479W        W26948   5.372  16.622  12.028  0.1350  0.2422  0.2372
11480W        W26949   8.296   2.394   3.962 -0.0340 -0.1145  0.2728
11481W        W26950   8.069  15.534   4.402  0.2500 -0.2062 -0.3443
11482W        W26951   1.611  16.954   2.511 -0.1587 -0.0184  0.2415
11483W        W26952  10.422   7.417  15.590  0.1907  0.2200 -0.2355
11484W        W26953   0.102   0.930   3.740 -0.0391  0.1949 -0.0354
11485W        W26954   8.339   7.519   5.160 -0.4563  0.3201 -0.0514
11486W        W26955  12.994  16.977   6.181  0.2976  0.1568 -0.1177
11487W        W26956   5.242   5.358   1.098 -0.3272  0.2493  0.0116
11488W        W26957  17.641  17.797   3.612 -0.5047 -0.1134  0.0801
11489W        W26958   8.085   0.924   3.537 -0.1970  0.0983  0.2535
11490W        W26959  11.393   9.444  12.449  0.1169 -0.1847 -0.1163
11491W        W26960  10.773  14.647  12.940  0.1321 -0.1594 -0.0359
11492W        W26961  10.998   5.712   3.175 -0.0879 -0.1195  0.1195
11493W        W26962   8.302   9.734  11.873 -0.0222  0.0268 -0.1056
11494W        W26963  16.433  10.797  16.024  0.5465 -0.1431  0.2535
11495W        W26964  10.178  12.864   3.100  0.1309 -0.0340 -0.3156
11496W        W26965   5.867   1.128  13.087 -0.1638  0.1082  0.2700
11497W        W26966   2.681  14.230  13.453  0.0541  0.1965 -0.2895
11498W        W26967  16.326   2.734   2.407 -0.1181  0.1646 -0.0336
11499W        W26968  16.891   4.210   0.175 -0.2878  0.0270  0.0745
11500W        W26969  18.131  14.259  13.004 -0.1442 -0.3695 -0.0160
11501W        W26970  13.167  11.366   1.111  0.2835  0.0121  0.1389
11502W        W26971   8.816   0.296  15.901 -0.1256  0.1468  0.2121
11503W        W26972   6.296   6.563   2.606  0.0657 -0.0497  0.0528
11504W        W26973  11.876  15.766  11.259  0.1438 -0.2435  0.0255
11505W        W26974   9.680   9.876  11.367 -0.0712  0.1194 -0.0855
11506W        W26975  13.759   9.602   0.934  0.0832  0.0712  0.1048
11507W        W26976   9.019  16.302  12.951 -0.0779  0.4161 -0.1614
11508W        W26977   4.761   4.627   0.513 -0.0454 -0.1806 -0.0663
11509W        W26978   9.307   3.574   2.385  0.1492  0.3381  0.1543
11510W        W26979   7.417   4.172   1.334 -0.1444  0.0925 -0.3758
11511W        W26980  14.290   9.167   3.853 -0.2808 -0.2422 -0.1079
11512W        W26981  13.428   2.153  14.748 -0.1249 -0.4189 -0.0147
11513W        W26982   9.137   7.183   0.614  0.0959 -0.0641  0.0207
11514W        W26983  15.642   5.661  12.327 -0.0090  0.0514  0.1122
11515W        W26984  16.441  10.516  13.502  0.1261  0.0669 -0.1902
11516W        W26985  14.214  14.521   3.659  0.1917 -0.1251  0.0589
11517W        W26986   0.686   3.243   0.866 -0.0989 -0.4485 -0.1471
11518W        W26987   3.039  11.734   0.242  0.2415  0.0801 -0.2147
11519W        W26988  16.053  16.105  12.818  0.2234  0.2652  0.2033
11520W        W26989  11.421   9.007   3.386  0.1402 -0.3320 -0.0606
11521W        W26990   2.988   3.266  13.796  0.0276 -0.0056 -0.0489
11522W        W26991  10.808  14.319  16.129  0.1371  0.0239 -0.0816
11523W        W26992  16.970  18.111  14.008  0.2561  0.1682  0.0456
11524W        W26993  15.490  10.166   4.266  0.0655  0.1333 -0.0671
11525W        W26994  11.166   6.997   4.557 -0.1532  0.0058 -0.1349
11526W        W26995   4.370   6.869   2.973  0.1011 -0.2492  0.1048
11527W        W26996  14.825  13.524   3.839 -0.0884  0.3010 -0.3521
11528W        W26997   2.859  10.622  15.909 -0.0123 -0.0220  0.2219
11529W        W26998  10.751  15.635   3.016 -0.2725 -0.1435 -0.1063
11530W        W26999   3.385  10.295   5.477 -0.1228 -0.1902  0.4267
11531W        W27000   8.073  17.244  12.623 -0.0359 -0.1492 -0.1303
11532W        W27001  10.764  14.228  12.576 -0.0508 -0.2870 -0.0917
11533W        W27002   8.727  10.058  12.904  0.0360 -0.0309 -0.4456
11534W        W27003   0.986  11.172  14.174  0.2145  0.2264 -0.1110
11535W        W27004  14.897   6.180   2.854  0.2380  0.2431 -0.0631
11536W        W27005  16.710   8.170   0.355  0.1072 -0.2689  0.0543
11537W        W27006   7.985   9.402  10.309  0.0002  0.0315  0.0950
11538W        W27007   5.271  14.789   3.635 -0.0754  0.0649  0.0062
11539W        W27008   5.428  17.943   1.318  0.0329  0.4325 -0.0497
11540W        W27009   4.685   5.937   5.071 -0.1257  0.1255 -0.2367
11541W        W27010  11.492   6.521   2.639 -0.2371 -0.0705  0.0611
11542W        W27011  13.024   4.931   4.916  0.3771  0.0636  0.1180
11543W        W27012   0.042  10.182   1.954  0.0124  0.0086  0.4121
11544W        W27013  10.555   5.355  15.007 -0.1639 -0.2337  0.0325
11545W        W27014  14.041   2.650  12.558 -0.1675 -0.2437  0.2699
11546W        W27015  12.546   3.233   2.348  0.5606  0.0847  0.2313
11547W        W27016  18.136   5.249   9.985  0.0274  0.1130  0.1549
11548W        W27017   6.682   4.303   3.634  0.0756 -0.3100 -0.0974
11549W        W27018   8.263  10.797  11.520  0.1485  0.1193 -0.2765
11550W        W27019   5.720   4.374  10.056  0.0458 -0.0566 -0.1584
11551W        W27020  11.192   0.726  13.066 -0.0486  0.2551 -0.2314
11552W        W27021   6.958  14.044  10.901  0.0815 -0.1444 -0.1604
11553W        W27022   0.506   6.920  11.279 -0.1475 -0.4601 -0.0407
11554W        W27023   3.604   1.583  11.793 -0.3318  0.4432  0.0072
11555W        W27024  16.143  15.408   0.335  0.0631  0.0751  0.1084
11556W        W27025  12.591   8.440   0.234  0.0219  0.0865 -0.0349
11557W        W27026   5.228  13.510  12.291 -0.3769  0.1202 -0.0735
11558W        W27027  16.995   7.081  14.249 -0.0900 -0.2132 -0.0513
11559W        W27028  17.631  15.168  15.498  0.2205 -0.4993  0.2358
11560W        W27029  13.283   9.495   4.463  0.4512  0.5287 -0.2940
11561W        W27030   8.613  10.197  13.932  0.1861 -0.1342 -0.1171
11562W        W27031  17.143  12.536   4.667 -0.0362 -0.2836  0.1251
11563W        W27032   5.080   7.717  12.876  0.1106  0.1151 -0.0298
11564W        W27033   1.417  11.262  15.740  0.2307 -0.4163 -0.2135
11565W        W27034   3.884  10.003   3.616  0.1977  0.1204  0.2012
11566W        W27035  10.669  15.098  13.956 -0.0146  0.0517  0.3403
11567W        W27036   7.397   0.017   3.061 -0.1799  0.2755  0.3046
11568W        W27037   2.807  12.047   5.478  0.0366 -0.0653  0.0417
11569W        W27038   4.982   8.734   3.253  0.1325 -0.2051 -0.0271
11570W        W27039   8.745   9.095   2.256  0.0072  0.0709  0.3219
11571W        W27040  15.771  10.016   2.807 -0.0612 -0.1863 -0.0259
11572W        W27041   9.570  18.277  15.026 -0.1086 -0.1167  0.3415
11573W        W27042   1.990   2.912  12.414  0.2378  0.0507  0.0411
11574W        W27043   2.373   1.146  10.914  0.3458 -0.0381 -0.2668
11575W        W27044   6.555   3.733  12.875 -0.0132 -0.1063  0.2325
11576W        W27045   3.459  16.910  16.005  0.5228  0.1410  0.0665
11577W        W27046   1.291  15.186  12.756 -0.5228  0.1604  0.2219
11578W        W27047  10.023   7.276  11.722  0.1764  0.1828  0.0518
11579W        W27048  11.943  11.235   3.772  0.0049  0.0430 -0.0816
11580W        W27049  16.560   0.459  11.529  0.2039 -0.0099 -0.1650
11581W        W27050   0.637  13.716  10.182 -0.0690 -0.2050  0.1325
11582W        W27051  13.779   7.559   0.008  0.0559  0.0881  0.3128
11583W        W27052   8.271  13.767   4.256  0.2395  0.1058  0.3868
11584W        W27053   0.139  13.597  12.841 -0.1039  0.1360  0.0560
11585W        W27054   3.782   4.282   3.465  0.1785 -0.1473 -0.2033
11586W        W27055   4.964  10.510   0.527  0.1194 -0.2522 -0.0348
11587W        W27056   1.327  11.452   2.361 -0.1139  0.1215  0.1012
11588W        W27057   5.462   9.668  12.737  0.0408 -0.2542 -0.1665
11589W        W27058   3.720   3.427   4.452  0.0887 -0.0495 -0.1618
11590W        W27059   5.711  14.208  15.149 -0.1743  0.0464 -0.0799
11591W        W27060  10.247   6.268   2.916  0.1828  0.0096  0.0133
11592W        W27061   3.205   3.066  15.449  0.4765  0.1903 -0.2476
11593W        W27062  17.793  11.986  14.683  0.3792  0.0362 -0.2025
11594W        W27063   3.649   6.863  15.641  0.0792  0.1878  0.5375
11595W        W27064   1.627  13.969   0.999  0.0721 -0.4056  0.1597
11596W        W27065   0.633   6.728   2.774 -0.2078 -0.1441 -0.1531
11597W        W27066   0.117   4.028  11.408 -0.0980  0.0894  0.1675
11598W        W27067  15.648   6.787  11.850  0.2119  0.1730  0.1628
11599W        W27068   9.653   1.423   4.188  0.1185  0.3082 -0.0497
11600W        W27069   0.853  12.942   5.836 -0.0108 -0.2258  0.2550
11601W        W27070  17.591  15.464   1.140 -0.0848 -0.1486  0.0898
11602W        W27071  11.022   1.347   0.783  0.2745 -0.0812  0.1861
11603W        W27072   6.857  12.474   5.370 -0.0905 -0.2573 -0.1601
11604W        W27073   9.582   9.517  12.099 -0.0425  0.0557  0.1336
11605W        W27074   2.630   7.008  13.124  0.1315 -0.1304 -0.0719
11606W        W27075   5.770   9.747  14.751  0.1160 -0.0637 -0.2725
11607W        W27076  10.682   0.634   5.290 -0.1377  0.0604  0.1979
11608W        W27077   3.438  18.177   0.643  0.0298 -0.3031  0.1572
11609W        W27078  13.962  10.800   5.687  0.2531 -0.0389  0.1767
11610W        W27079  13.733  16.187   0.967  0.1366 -0.0298  0.1822
11611W        W27080   3.345  16.834   3.806 -0.0711  0.0112 -0.1623
11612W        W27081   9.122   7.798   4.374 -0.0263  0.1719  0.0444
11613W        W27082  14.896  18.035   1.559 -0.1010  0.0226 -0.1094
11614W        W27083   3.795   9.221   4.787  0.0358 -0.0112 -0.0950
11615W        W27084  10.916   4.485  13.225  0.0513  0.0870 -0.0783
11616W        W27085   7.691  10.109  14.772 -0.3534  0.0402  0.1668
11617W        W27086   3.678   7.408   1.858  0.4630  0.0839  0.2458
11618W        W27087   0.204  14.553  10.910  0.2791 -0.1556  0.1376
11619W        W27088   9.956   7.225   3.354 -0.1178 -0.1247  0.0334
11620W        W27089  10.672   3.075   1.982  0.2325 -0.0836  0.2656
11621W        W27090   0.411  17.231  12.598 -0.3050 -0.0332 -0.2076
11622W        W27091  15.921  18.292   4.735  0.1462  0.0297  0.0747
11623W        W27092  11.166   9.488  14.227  0.3615  0.1922  0.0751
11624W        W27093  10.828   0.452  12.062  0.0366 -0.0692  0.2166
11625W        W27094  15.421  14.981   5.316  0.0327  0.1462  0.0295
11626W        W27095  12.752  16.528   1.799  0.1766  0.0974  0.2375
11627W        W27096   4.588   6.323  12.169 -0.1465  0.1114  0.0792
11628W        W27097   1.874   1.637  11.571  0.0111  0.2433  0.1185
11629W        W27098   4.464  11.908   3.662  0.2588  0.0354  0.0677
11630W        W27099   6.916   2.218   0.115  0.0264 -0.0124 -0.3908
11631W        W27100   2.069   3.940   0.185  0.0153  0.2076  0.5287
11632W        W27101   6.814  12.069  13.308 -0.0743  0.0803  0.0228
11633W        W27102   2.098   7.426  12.725  0.1536 -0.0448 -0.2067
11634W        W27103  18.235   1.607  14.092 -0.0742  0.1215 -0.0132
11635W        W27104  14.289   9.483  15.219 -0.0729  0.0283  0.1794
11636W        W27105   2.925  16.959  13.911  0.0427 -0.1233  0.2082
11637W        W27106   6.836   1.971   0.568 -0.0222  0.0958 -0.1493
11638W        W27107   5.259  17.260  12.227 -0.0365  0.1923 -0.0119
11639W        W27108  11.854   2.329   3.127 -0.1482  0.1364  0.3687
11640W        W27109   0.910   8.618   1.316  0.0934  0.1655 -0.0345
11641W        W27110  16.076   7.911   0.502  0.0901 -0.1113  0.2294
11642W        W27111   4.140   8.371   3.032  0.2249  0.1261  0.3359
11643W        W27112   7.522   7.263  15.610  0.1650 -0.0762 -0.2089
11644W        W27113   9.684   4.377  13.831 -0.0461  0.0410  0.3252
11645W        W27114  16.137  13.801   5.635 -0.1427 -0.1966  0.2326
11646W        W27115  16.343  17.810   1.493 -0.2402  0.1219  0.2036
11647W        W27116  17.750  11.618  15.878  0.0072  0.1073 -0.1711
11648W        W27117   1.477  15.052  15.778  0.1663 -0.1275  0.2315
11649W        W27118   2.946   5.618   5.380  0.0255  0.2516  0.2447
11650W        W27119   3.515  10.106   3.254  0.1152 -0.2170  0.1147
11651W        W27120  11.258   3.645  12.007 -0.1154  0.2050  0.2013
11652W        W27121   6.544  12.612  10.537 -0.0405  0.5007  0.1075
11653W        W27122   8.543  15.635   0.796  0.2052  0.6045 -0.1343
11654W        W27123   8.401  10.000   2.217 -0.0969  0.0813  0.1242
11655W        W27124   3.801  12.676  14.144  0.1195  0.3397  0.0345
11656W        W27125   2.655  12.680   1.623 -0.0182  0.1184  0.2210
11657W        W27126  12.386   5.671  14.246 -0.1530 -0.2124  0.2650
11658W        W27127  15.099  16.571   4.480 -0.1450  0.1031 -0.0612
11659W        W27128  10.261  16.314  12.532  0.1385  0.0499 -0.2724
11660W        W27129  15.448   7.507   4.294  0.1192  0.1204 -0.0754
11661W        W27130   6.672   3.382   0.603  0.1001 -0.1730 -0.1585
11662W        W27131   7.172  10.826   0.708  0.1701  0.1009 -0.0755
11663W        W27132   6.825   9.470   1.767  0.0962 -0.1741 -0.0027
11664W        W27133  12.616  14.991   5.077  0.0299 -0.1899  0.0529
11665W        W27134  12.502  14.400  11.381  0.1699  0.1908  0.1229
11666W        W27135   4.895  16.726   1.333 -0.0909  0.1910 -0.0132
11667W        W27136   1.547   6.545   1.966 -0.2236 -0.3213 -0.3248
11668W        W27137   1.612   1.081  15.440 -0.0701  0.1462 -0.0209
11669W        W27138  13.597   2.627   3.914  0.1279  0.1466  0.0161
11670W        W27139   7.739  12.583  13.766 -0.1715  0.1513 -0.0645
11671W        W27140  18.243   2.763  14.320  0.2307 -0.3064  0.1746
11672W        W27141  12.689  11.555   5.756  0.1123 -0.1925 -0.0732
11673W        W27142   0.124   4.736  14.494  0.3853  0.1288 -0.0592
11674W        W27143   4.004   1.904  14.321 -0.3380  0.1465  0.0252
11675W        W27144  13.095  13.629   0.741 -0.1406  0.1532  0.2664
11676W        W27145   8.477   3.295   4.436  0.2874  0.1663  0.0062
11677W        W27146  12.964   1.588   5.928  0.2194 -0.1557 -0.0991
11678W        W27147  15.853   1.166  15.063 -0.0709  0.0753  0.4128
11679W        W27148   3.984   7.015  11.796  0.1844  0.3619  0.1047
11680W        W27149   3.709  13.375  13.430 -0.0217 -0.3016  0.0916
11681W        W27150  10.053   8.022   4.426 -0.0544  0.1595  0.1688
11682W        W27151  17.094   2.088  11.023  0.2377  0.1770 -0.1779
11683W        W27152  14.541   7.702  14.915 -0.0079 -0.3833  0.4529
11684W        W27153  14.725   9.125  14.819  0.1913  0.0302 -0.2824
11685W        W27154  13.540  10.225  11.645 -0.1035  0.2302 -0.1455
11686W        W27155  17.183  15.531   5.026  0.0609 -0.2097 -0.1631
11687W        W27156   3.739   6.523   6.094 -0.3142 -0.1027 -0.1426
11688W        W27157  12.825  17.042   1.637  0.0815  0.1306  0.1150
11689W        W27158   3.199  16.788  11.643 -0.1808 -0.2206 -0.0547
11690W        W27159   0.605  15.636  11.914  0.1413  0.0929 -0.3369
11691W        W27160  13.227   9.427  15.401  0.4050  0.0223 -0.1305
11692W        W27161   3.146  10.045   0.747 -0.4230  0.0486  0.1882
11693W        W27162   7.865   9.161   0.931  0.0698 -0.0326 -0.1176
11694W        W27163  17.575  12.251  11.542 -0.0572 -0.0653  0.0663
11695W        W27164  14.050  10.985  15.777  0.1228  0.0347 -0.1367
11696W        W27165  15.117   0.635   4.656  0.1297  0.2118 -0.1080
11697W        W27166   0.143  11.710  15.033 -0.1896  0.0068 -0.1341
11698W        W27167   1.358   5.924   2.783  0.1195  0.1826  0.1024
11699W        W27168  16.943  12.693   3.719 -0.0049 -0.1710  0.2205
11700W        W27169   2.764   4.676   2.480  0.0583 -0.0755 -0.2875
11701W        W27170  15.094  14.307   2.598  0.1136 -0.0762 -0.3014
11702W        W27171   3.252   2.611   4.301 -0.1354  0.0681 -0.1273
11703W        W27172   3.382   6.829   4.243 -0.0368  0.3608 -0.1638
11704W        W27173  18.152   4.232  12.715  0.1261  0.2693  0.2595
11705W        W27174  12.375  11.078   3.236  0.1883  0.3275  0.1191
11706W        W27175   3.547   0.649   4.698  0.0407 -0.1242 -0.1259
11707W        W27176  17.458  16.805   3.278  0.1590 -0.0986 -0.1026
11708W        W27177   6.482  17.262  13.410  0.0448 -0.0773 -0.1118
11709W        W27178  15.464   2.945   4.248 -0.1445 -0.2327 -0.0848
11710W        W27179   8.340   2.919  12.888 -0.0509  0.0609 -0.1863
11711W        W27180   2.899  11.948  14.363  0.0784 -0.0310  0.2233
11712W        W27181  11.698   8.594   3.838  0.3241  0.3342 -0.0570
11713W        W27182   0.730  16.066  12.441  0.3282 -0.0515  0.1126
11714W        W27183   1.966   5.729  13.668 -0.1467 -0.1219 -0.5226
11715W        W27184   2.296   1.042  14.140  0.2179  0.3339 -0.0228
11716W        W27185   7.729  16.743  13.477  0.0697  0.0784 -0.0183
11717W        W27186  17.887  13.231  14.521 -0.0676  0.2268  0.1942
11718W        W27187  16.488   9.617   2.038  0.0623  0.0621  0.0892
11719W        W27188   2.315  16.616   0.772 -0.1255 -0.1813 -0.3118
11720W        W27189   0.422   5.923  15.102 -0.1230 -0.1976  0.1170
11721W        W27190   9.638   7.410  14.796 -0.0829  0.1832  0.1472
11722W        W27191   7.449  12.702   0.288  0.1369  0.4670  0.0881
11723W        W27192   2.363   8.646  14.043  0.2247  0.1995  0.0497
11724W        W27193  15.163   4.463  12.412  0.1216 -0.0487 -0.1332
11725W        W27194   1.503   9.114   6.767 -0.1292 -0.1051 -0.1459
11726W        W27195   6.331   4.386  13.207  0.2395  0.3052 -0.2015
11727W        W27196  14.835  13.800   0.255 -0.3126  0.1391  0.0251
11728W        W27197  17.352   7.216  13.911  0.0578  0.0478 -0.1116
11729W        W27198   8.518  17.939   1.892  0.2225  0.2559  0.1202
11730W        W27199   5.442  13.710  12.841 -0.2212 -0.0849 -0.0812
11731W        W27200  12.913   8.735   2.277  0.1575  0.1364  0.0497
11732W        W27201  17.674  16.977  11.413  0.0069 -0.0723  0.1376
11733W        W27202   1.054   8.650  13.532  0.0146  0.1328  0.0465
11734W        W27203  10.299   0.311   5.468 -0.1688  0.2795  0.1220
11735W        W27204  14.085   1.383  11.391  0.0903  0.3192 -0.1094
11736W        W27205   4.883   3.214   1.690 -0.2258  0.2954 -0.1811
11737W        W27206   9.529   5.070  13.179 -0.1482 -0.0188  0.4963
11738W        W27207   4.243  13.382  14.517  0.0388  0.1591 -0.3319
11739W        W27208   5.705  14.002   3.842  0.0343  0.0355 -0.1882
11740W        W27209   5.307   5.996  16.081  0.1120 -0.0012  0.0439
11741W        W27210   0.373   9.506   0.414  0.1644 -0.1011  0.1693
11742W        W27211   1.945  15.377  15.774 -0.1101  0.2950  0.2571
11743W        W27212   5.687  13.092   0.592 -0.0036  0.0644 -0.0516
11744W        W27213  10.333  17.694   3.619  0.0810  0.2483 -0.1271
11745W        W27214  12.171   6.737  11.345 -0.2302 -0.2956 -0.0145
11746W        W27215   7.571   7.764   1.555 -0.3028 -0.5799  0.0575
11747W        W27216   7.293  16.955  15.860 -0.3437  0.0797 -0.2281
11748W        W27217   1.260  13.478  15.846 -0.0738 -0.0814  0.1845
11749W        W27218   3.095  11.727  13.278  0.0742 -0.0398  0.2454
11750W        W27219  12.091   2.767  11.364 -0.0876  0.0233  0.2265
11751W        W27220   7.350  10.283  15.064  0.1691  0.0181 -0.2090
11752W        W27221   3.341   9.848  15.325 -0.1846  0.0822 -0.2185
11753W        W27222   6.266  13.058  14.921 -0.0737 -0.0099  0.2423
11754W        W27223   5.885   6.724  14.862  0.0577  0.0671  0.0409
11755W        W27224   1.264   3.197  12.964  0.2446  0.0142 -0.2490
11756W        W27225   9.761  14.023  13.246 -0.1182 -0.1597  0.2381
11757W        W27226   0.524   9.564  11.950  0.4606 -0.1003 -0.0186
11758W        W27227   2.944   1.179   2.810 -0.1982 -0.1466 -0.0964
11759W        W27228   3.784   9.930   6.481  0.0124  0.0882 -0.1572
11760W        W27229  14.326  10.026   5.527  0.1418 -0.1434  0.0183
11761W        W27230  13.345  17.668   3.429 -0.0579  0.4410 -0.1821
11762W        W27231   0.006   0.548   1.899  0.1600 -0.0906  0.2456
11763W        W27232  16.313  16.732   2.449 -0.1378 -0.2006  0.2364
11764W        W27233   3.846   9.294  12.354  0.0215 -0.0506 -0.1544
11765W        W27234  15.967   3.771   4.117  0.0604 -0.0805  0.0042
11766W        W27235   7.548  12.503  14.413 -0.0233  0.1457  0.1692
11767W        W27236   0.889   6.566   4.635 -0.0781 -0.2670 -0.0379
11768W        W27237  13.166  13.883  12.825  0.0917  0.1397  0.1596
11769W        W27238   3.357  10.348  15.027  0.0263 -0.0501  0.2136
11770W        W27239   2.191   9.692   0.778  0.1443  0.0062  0.1137
11771W        W27240  14.242  15.950   4.551 -0.3437 -0.0893  0.1086
11772W        W27241  13.912   1.285   5.281 -0.1248 -0.1907 -0.3367
11773W        W27242  10.583   6.519  11.527 -0.0130 -0.0780  0.2575
11774W        W27243   3.970   0.386  12.218  0.2349  0.1159  0.0893
11775W        W27244   6.694  18.227   2.866  0.0466 -0.2099  0.0597
11776W        W27245   5.553  12.354  11.520  0.2470 -0.0600 -0.3328
11777W        W27246   8.060   6.264   4.013  0.0571  0.3708 -0.2960
11778W        W27247  17.644  16.793  16.032 -0.1514  0.0384 -0.0320
11779W        W27248  15.069   4.379   9.863  0.2744  0.0196  0.1042
11780W        W27249   2.722  11.084   2.454  0.4223 -0.1023 -0.0552
11781W        W27250  15.946   1.218   5.477 -0.0175  0.1124 -0.0091
11782W        W27251  17.650   4.426  15.043 -0.0493  0.0944 -0.1648
11783W        W27252   2.912   8.577   5.401  0.2452 -0.0463 -0.0628
11784W        W27253  12.031   2.575  12.646 -0.2370  0.2872  0.1230
11785W        W27254   2.498  17.927   0.317  0.1027 -0.0966 -0.0871
11786W        W27255  13.601  11.128  14.272  0.2274  0.3061 -0.0684
11787W        W27256   9.699  13.168   4.292  0.0736  0.0278  0.4417
11788W        W27257   7.716  16.309   4.151  0.0637 -0.0923 -0.1712
11789W        W27258   4.345  15.521   1.843 -0.0782  0.3179 -0.2004
11790W        W27259  16.016  11.287   2.658  0.1303  0.2578 -0.2100
11791W        W27260  13.632  13.559   1.497 -0.1039 -0.1767  0.1550
11792W        W27261  10.850  15.080  16.130 -0.0655  0.0774  0.1222
11793W        W27262   3.560   7.961  11.591 -0.4364 -0.1686  0.1730
11794W        W27263  11.902  11.029  13.230  0.2729 -0.2363 -0.0655
11795W        W27264   1.723   2.506  16.075 -0.1039 -0.2032  0.1231
11796W        W27265   2.403   9.839   5.209 -0.1992 -0.0121 -0.0312
11797W        W27266   4.990  18.042   0.978 -0.0283 -0.2305  0.1936
11798W        W27267   9.392   6.392   4.824 -0.1431 -0.1371 -0.3985
11799W        W27268  13.936   9.486  14.032 -0.1947  0.0032  0.3174
11800W        W27269   6.874   3.876   1.728  0.3734 -0.2360 -0.2388
11801W        W27270  14.215  14.889   4.325 -0.1286  0.0254  0.1900
11802W        W27271   4.742  12.711   1.560 -0.1474  0.0469 -0.2172
11803W        W27272  13.882   8.612   2.841  0.1802 -0.0336  0.1433
11804W        W27273   1.331  16.382   4.321 -0.0562 -0.2143  0.2829
11805W        W27274  14.808   5.444  13.252 -0.1825  0.3547 -0.1590
11806W        W27275  13.762   1.668  14.092 -0.0718 -0.2888 -0.0681
11807W        W27276   9.950  10.430  12.263 -0.1225  0.1718 -0.1762
11808W        W27277   1.373   3.965   4.320  0.1278  0.3117 -0.0258
11809W        W27278   1.224  13.819   1.887  0.0619 -0.0770 -0.0977
11810W        W27279  14.701  11.606   1.007  0.1702 -0.0832 -0.2297
11811W        W27280   4.719   8.347   5.137 -0.2538 -0.0915 -0.1884
11812W        W27281   8.139   6.705  13.988  0.0620 -0.1331  0.4680
11813W        W27282  16.233   4.873  14.936  0.0504  0.1817 -0.1471
11814W        W27283   6.944  18.176  15.644 -0.1105  0.0373 -0.1044
11815W        W27284  11.446   8.151  15.050 -0.1643  0.0858 -0.1106
11816W        W27285   4.331   3.005   5.594 -0.1074 -0.0691 -0.1413
11817W        W27286  11.753  16.619   2.239  0.1183  0.0644  0.2009
11818W        W27287   3.784  11.746   1.203 -0.1906  0.0603 -0.0478
11819W        W27288   3.937  15.638   3.387  0.1476 -0.0660  0.3120
11820W        W27289  11.834  16.612  13.534 -0.0756  0.4093 -0.0249
11821W        W27290  16.350  15.554   3.238 -0.1182 -0.1076 -0.0807
11822W        W27291   2.561   5.022   2.154 -0.0099  0.1773 -0.4372
11823W        W27292   0.829   3.116  15.694 -0.2066 -0.0979 -0.0724
11824W        W27293  13.783  13.591  15.305  0.0709 -0.1941 -0.1584
11825W        W27294  14.521   1.405   0.818 -0.3677 -0.0268  0.0301
11826W        W27295   6.971   2.974   0.780 -0.0962  0.0698 -0.2605
11827W        W27296   5.538   3.894   4.679 -0.5104 -0.1740  0.0235
11828W        W27297   0.918  16.458  11.503  0.2876  0.0119 -0.0803
11829W        W27298  10.619   1.275  10.378  0.0862  0.1245  0.1326
11830W        W27299   5.522  15.658  13.115  0.1378 -0.0385  0.0258
11831W        W27300   3.197  11.526  14.296  0.2572 -0.1527 -0.4816
11832W        W27301   9.490   0.788  13.722 -0.0772 -0.1197  0.3342
11833W        W27302  12.325   7.873   2.944 -0.2141  0.2289 -0.1040
11834W        W27303   4.445   4.525  11.347  0.0650 -0.1387 -0.1216
11835W        W27304   5.874  14.004  12.998  0.0911  0.2386  0.0764
11836W        W27305  15.235  13.776   5.266 -0.2383  0.0322 -0.1414
11837W        W27306   6.396   8.130   4.689  0.2643 -0.3631  0.1687
11838W        W27307   8.422  12.423   0.626  0.1132  0.1355 -0.2406
11839W        W27308  12.723  16.124   0.143 -0.1122  0.2620 -0.1616
11840W        W27309   6.000  17.842  15.608  0.0510  0.1315 -0.0799
11841W        W27310   9.997   3.010  14.001 -0.1450  0.0962 -0.0659
11842W        W27311   9.179  12.765  11.658 -0.0261 -0.3270  0.0853
11843W        W27312   3.999   9.795  15.494 -0.1248 -0.3172 -0.5334
11844W        W27313   0.065  14.518   0.603  0.3259  0.1355  0.5230
11845W        W27314   2.059   8.603  12.388 -0.1373  0.0737  0.1889
11846W        W27315  12.147  11.138   2.789 -0.1086 -0.1183 -0.1035
11847W        W27316  12.545  12.669   0.026  0.0930 -0.2217 -0.2234
11848W        W27317   3.933   0.796  11.706 -0.1416  0.1524 -0.1164
11849W        W27318   8.582   4.784   4.525  0.0329  0.1361  0.1711
11850W        W27319  11.683  14.058  12.352 -0.0026 -0.0844 -0.1802
11851W        W27320   0.275  10.420   4.323 -0.2100 -0.0265  0.1385
11852W        W27321   4.754  11.270   0.907 -0.0591  0.1136 -0.1088
11853W        W27322   0.473   1.390   1.229 -0.1331 -0.1384 -0.1458
11854W        W27323   8.116  10.715  15.470 -0.0834 -0.1192  0.0863
11855W        W27324   8.406  16.424   3.732 -0.1877  0.0858  0.0014
11856W        W27325   1.834   5.047   5.271  0.2375  0.0246  0.1385
11857W        W27326   7.259  14.613   3.628 -0.4138  0.0995  0.4328
11858W        W27327   7.647  15.417   1.390 -0.2441  0.0518 -0.2487
11859W        W27328   0.744   8.856   5.111  0.3472 -0.2058  0.1339
11860W        W27329   4.919   5.489  15.658  0.1166  0.0231  0.1557
11861W        W27330  16.515   5.700  13.438  0.0926 -0.1780  0.1520
11862W        W27331   6.556  14.424   3.596 -0.0523 -0.1382  0.0230
11863W        W27332  11.048   8.399   1.570  0.3501 -0.5452 -0.2592
11864W        W27333  15.701   4.131  14.839 -0.1840  0.3253 -0.2095
11865W        W27334   7.013   8.184  11.975 -0.1050 -0.3435 -0.2618
11866W        W27335  12.498   8.703  13.017 -0.0043 -0.2196  0.0992
11867W        W27336   1.994  13.302  11.557  0.2925  0.1492 -0.1455
11868W        W27337   2.826   3.014   0.307  0.1059  0.2414  0.2352
11869W        W27338  11.664   8.272   0.312  0.0417 -0.0956 -0.3071
11870W        W27339   1.929   9.437  14.346  0.0342 -0.0771  0.4764
11871W        W27340   8.284   5.977  14.149  0.3043  0.0712 -0.2564
11872W        W27341   4.495   8.181  11.336  0.1272  0.2746  0.1622
11873W        W27342  15.620  14.533   6.145  0.0043 -0.0285  0.1288
11874W        W27343   9.649   1.502  12.886  0.1477 -0.0507  0.0260
11875W        W27344  13.322   2.701   5.596 -0.1513  0.1502  0.1278
11876W        W27345   6.189   0.986   0.681  0.0514 -0.1282 -0.0478
11877W        W27346  11.390   0.878  13.465 -0.0554  0.1833  0.1666
11878W        W27347   3.369  16.709   2.189 -0.0669  0.0111  0.2832
11879W        W27348   5.746  16.250   0.317 -0.1081 -0.4000  0.0345
11880W        W27349  16.724  13.057   4.577  0.1320 -0.1714 -0.0930
11881W        W27350  11.356  16.865   1.664 -0.4270 -0.0896  0.0659
11882W        W27351   6.708   5.248   4.477 -0.0721  0.1298 -0.0551
11883W        W27352   7.442  15.469  15.137 -0.0786  0.1220 -0.2111
11884W        W27353   1.898  12.400   2.444  0.0715 -0.2294  0.1421
11885W        W27354   3.277  10.749   2.051  0.1655  0.6133 -0.1348
11886W        W27355  16.340   2.402  15.232  0.4212  0.1233  0.0478
11887W        W27356   0.930  17.843  13.191 -0.1059  0.0728 -0.3025
11888W        W27357  12.550  16.825  14.629  0.0333 -0.1803  0.0590
11889W        W27358   5.855   2.970   1.657 -0.1620  0.1671  0.1696
11890W        W27359  11.535  15.925  11.597 -0.1278  0.0124  0.0925
11891W        W27360   0.781   8.183  12.542  0.0471 -0.2410  0.2161
11892W        W27361   9.880   3.861   0.484  0.0340  0.0047 -0.2784
11893W        W27362   0.903  10.880   0.548  0.2577  0.2282  0.2834
11894W        W27363  13.807   0.197   3.093  0.3641 -0.0047 -0.0180
11895W        W27364  14.631   9.125   5.793 -0.1364  0.1506  0.1054
11896W        W27365  11.944  11.595  15.866  0.1212 -0.1485 -0.0023
11897W        W27366   0.581   4.976   5.270 -0.2549 -0.1390  0.0858
11898W        W27367  15.844  12.772  12.733  0.0826 -0.5488 -0.1655
11899W        W27368   8.590   9.052  12.953  0.0384 -0.0660  0.0595
11900W        W27369   5.741  15.825  12.305 -0.1364 -0.1143  0.2088
11901W        W27370   0.803   9.318  13.458  0.0603  0.0155  0.0041
11902W        W27371   4.430  16.466  16.068 -0.1155  0.1256 -0.1440
11903W        W27372   3.954   2.087   5.785 -0.3511  0.0514  0.0473
11904W        W27373   9.487  18.055   3.147  0.1454  0.0706 -0.0662
11905W        W27374  12.362   6.840   0.988  0.0341  0.0915 -0.1450
11906W        W27375   9.444  14.335  15.884 -0.1614 -0.0129  0.0241
11907W        W27376   0.384  18.206   5.131  0.0474  0.1644 -0.0766
11908W        W27377   9.979  16.667  10.311 -0.1999  0.0650 -0.0293
11909W        W27378   5.140   4.310  10.852 -0.2308 -0.1859 -0.3309
11910W        W27379   2.218   5.882   2.956  0.0868  0.2423  0.0147
11911W        W27380   2.909   5.776  12.614 -0.3094  0.0854 -0.1922
11912W        W27381  11.605  17.758  11.410  0.1092 -0.1557  0.0435
11913W        W27382   1.785   0.869  10.250  0.1226 -0.0082 -0.1182
11914W        W27383  11.903   0.777  15.484 -0.0022  0.1018  0.0285
11915W        W27384  15.424   1.374   3.437  0.0334 -0.1106 -0.1455
11916W        W27385  12.173   4.273   2.198 -0.2195  0.3675  0.0865
11917W        W27386   0.244  16.958  10.149  0.0915  0.0670  0.4690
11918W        W27387   7.005   9.429   4.962 -0.2326 -0.2520 -0.2550
11919W        W27388  13.191  15.524   4.333 -0.3372 -0.0178  0.0317
11920W        W27389   6.032  14.282   5.139  0.0797  0.0300  0.0589
11921W        W27390  12.476  15.091   5.929 -0.1482 -0.0596  0.0305
11922W        W27391   6.472   8.148   5.208 -0.1862 -0.3384  0.0123
11923W        W27392   9.106   1.395  12.152 -0.0377 -0.0256  0.1341
11924W        W27393  15.134   7.199   0.296 -0.1630 -0.4291  0.1775
11925W        W27394   8.359   7.662   1.254 -0.2370  0.3383 -0.6237
11926W        W27395  15.208   5.394  12.684  0.0117  0.2066  0.0025
11927W        W27396  16.749  18.095   1.179 -0.0872 -0.2315 -0.0256
11928W        W27397   5.941   0.381   4.747 -0.0770 -0.0859  0.2196
11929W        W27398  14.103   5.739   1.999 -0.1053  0.2689  0.3257
11930W        W27399   5.993   1.452  11.228  0.1229 -0.2014  0.2666
11931W        W27400   1.673  17.851   5.165 -0.0939  0.2025 -0.0675
11932W        W27401   0.965   2.602   4.678  0.0094  0.2148  0.2318
11933W        W27402   9.303  16.283   5.361 -0.1787  0.0781  0.0313
11934W        W27403   8.947  16.789   2.974 -0.0707  0.0506 -0.1016
11935W        W27404  10.346  11.353   2.123 -0.2249 -0.2538 -0.1373
11936W        W27405   8.402   9.688   2.698  0.0463  0.0676  0.3370
11937W        W27406   1.548   2.009  11.670 -0.2032 -0.2164 -0.1936
11938W        W27407   0.725  17.609   6.030 -0.0443  0.3759 -0.1963
11939W        W27408  14.990   4.529  16.093  0.1939 -0.0524 -0.5258
11940W        W27409   6.362   0.057   4.835 -0.1759 -0.1718 -0.1557
11941W        W27410  13.365  13.875   0.368  0.2841 -0.0309 -0.2718
11942W        W27411  13.377  15.989   4.478 -0.0322 -0.1738  0.1407
11943W        W27412  14.408   4.317   2.074 -0.0578 -0.0157 -0.4063
11944W        W27413   7.592  11.889   2.304 -0.1729  0.0630 -0.0085
11945W        W27414  14.040   0.956   4.977  0.0455  0.3678  0.0404
11946W        W27415   0.447  13.628   4.170  0.0834  0.1020  0.5529
11947W        W27416  13.522  16.332  14.244 -0.2334  0.0639  0.1342
11948W        W27417   3.464   9.253  13.282  0.0989  0.0667 -0.1717
11949W        W27418   4.265  16.855   0.210  0.0670 -0.3854  0.0679
11950W        W27419  18.171   9.535   5.611  0.1642  0.1093 -0.0690
11951W        W27420  16.827   1.062  13.717 -0.0481  0.0253 -0.0126
11952W        W27421   4.585   7.411   1.663 -0.0933 -0.2959  0.0483
11953W        W27422   7.211  17.343  11.526 -0.1697 -0.0734 -0.1344
11954W        W27423   1.861  10.637  13.306 -0.2004  0.0700  0.0832
11955W        W27424  10.297  14.109  11.209  0.2847 -0.3247  0.1359
11956W        W27425  11.878   6.451  10.675 -0.3364 -0.0922 -0.1422
11957W        W27426  15.764  13.329   2.597 -0.0482 -0.3494 -0.0187
11958W        W27427   0.455  10.024   2.884  0.4056  0.1425 -0.0350
11959W        W27428  14.526   0.646  13.407  0.0678  0.3015  0.3515
11960W        W27429   3.477   7.566   2.985  0.5252  0.2046  0.1937
11961W        W27430   4.508   2.624   0.098 -0.0239 -0.0216 -0.2739
11962W        W27431   5.371   7.433  15.586 -0.0943  0.1478  0.1185
11963W        W27432   2.156   2.229   4.843 -0.1434 -0.2591 -0.4366
11964W        W27433   4.304  12.795   0.078 -0.0352  0.0613 -0.1183
11965W        W27434   1.812   3.023   5.400 -0.0433 -0.0876  0.1327
11966W        W27435   6.649   4.667  12.820 -0.0714  0.0774 -0.0349
11967W        W27436   8.754   2.733   2.289  0.0772 -0.1965 -0.6381
11968W        W27437  10.915  17.707   5.744 -0.2390 -0.0329 -0.0129
11969W        W27438  14.845   1.894  10.107 -0.4895 -0.1993 -0.0792
11970W        W27439   4.306   4.026   4.790  0.0031  0.2316  0.2095
11971W        W27440  10.978   0.933   1.262  0.1873 -0.1079 -0.1030
11972W        W27441  13.870  13.430  14.234 -0.1079  0.0572 -0.1238
11973W        W27442   5.675  14.024   2.945  0.2736  0.2597 -0.0998
11974W        W27443  18.258   2.733   1.553  0.2812 -0.0876 -0.1982
11975W        W27444  12.451   5.593   0.839 -0.2721  0.0349  0.2419
11976W        W27445  16.973  16.092   4.272 -0.0354  0.1310 -0.1620
11977W        W27446  10.103   4.594  13.689  0.1130 -0.1902  0.0728
11978W        W27447  15.243   0.256  14.059 -0.0363 -0.0714  0.4443
11979W        W27448   8.489  14.934   1.606 -0.2380  0.0632 -0.0018
11980W        W27449   0.002   1.638   5.287 -0.3504  0.0745  0.2026
11981W        W27450   7.642   4.067  11.922 -0.0648 -0.1500 -0.4356
11982W        W27451   4.356   2.701   2.669 -0.0774 -0.1678 -0.3215
11983W        W27452   4.327   9.686  15.035  0.4039 -0.3358  0.0136
11984W        W27453  10.466   1.594  12.442  0.0424  0.2131  0.1576
11985W        W27454   8.830   3.475   4.790  0.1960 -0.3912 -0.1052
11986W        W27455   2.838   1.374  11.142 -0.0497 -0.2056  0.1450
11987W        W27456   1.980   0.633   6.166  0.0463 -0.0362  0.3047
11988W        W27457  14.026   3.721  10.993 -0.1699 -0.1022  0.3161
11989W        W27458  16.683  12.538  11.256  0.1134 -0.0311  0.1664
11990W        W27459  15.367  10.929   6.056  0.3346 -0.0354  0.0625
11991W        W27460   3.267   1.263  14.812 -0.2145  0.2397  0.2739
11992W        W27461   6.257   1.797   3.585 -0.0035  0.4172  0.0526
11993W        W27462   7.135  11.746  11.153  0.0745  0.1794  0.0432
11994W        W27463  12.114   7.304   0.825  0.0284 -0.0009 -0.2277
11995W        W27464   2.016   1.515   5.454 -0.1081 -0.6483 -0.0247
11996W        W27465  14.467   3.952  12.232  0.2290  0.1000 -0.0808
11997W        W27466   3.244   4.823  13.300  0.3969 -0.3972  0.0317
11998W        W27467   8.822  14.014  13.600 -0.1491 -0.0938  0.1369
11999W        W27468  13.543  14.871  14.136 -0.0832  0.1370 -0.1130
12000W        W27469  14.681  10.022   2.388  0.4053 -0.1829 -0.2228
12001W        W27470   7.335  16.929   3.065  0.0894 -0.1909  0.1753
12002W        W27471  10.725   3.951   3.121 -0.1863 -0.1809 -0.2520
12003W        W27472  12.728   6.492   0.390 -0.2295  0.1037 -0.0540
12004W        W27473   2.051  15.536  14.756  0.0596  0.1427 -0.0637
12005W        W27474  17.340   6.348  15.286  0.0602  0.0477  0.1025
12006W        W27475   1.387  10.902   2.389  0.1668  0.0150 -0.0376
12007W        W27476  15.483   8.659   1.583 -0.0834 -0.1103 -0.1769
12008W        W27477  16.427  12.239  13.061  0.2313 -0.1260 -0.2490
12009W        W27478  12.951   9.542  13.384 -0.2099  0.0017 -0.0757
12010W        W27479  13.357   6.626   2.617  0.1227 -0.0371  0.0339
12011W        W27480   1.712   0.451   5.696  0.0078  0.2343 -0.1173
12012W        W27481   8.989   0.175  13.095  0.1469 -0.1364 -0.0837
12013W        W27482  12.043   4.175   1.242  0.0419  0.1829  0.1176
12014W        W27483  14.553   6.049   4.257  0.1173  0.0421 -0.0244
12015W        W27484   8.607   0.512   3.023  0.0935 -0.0883  0.1483
12016W        W27485   3.995   4.332   3.011 -0.0787  0.3166 -0.0325
12017W        W27486   0.091   0.850   4.248  0.0075  0.1161 -0.1927
12018W        W27487  11.673   6.096   0.252 -0.1699 -0.2390  0.0008
12019W        W27488  15.899   9.505   2.746  0.0245  0.0913  0.2968
12020W        W27489   9.537   8.971  13.497 -0.0434 -0.0126 -0.0285
12021W        W27490  14.102  12.755   2.168  0.0233  0.2947 -0.0791
12022W        W27491  14.934   8.675   1.389  0.0945 -0.1311  0.0602
12023W        W27492   5.297  16.245  14.333  0.0099  0.1829 -0.3471
12024W        W27493   9.964  18.222   5.555  0.0635  0.5269  0.0383
12025W        W27494   6.879   1.221  14.761  0.2486  0.1534  0.2166
12026W        W27495  16.803  17.198   3.516 -0.2001  0.0913  0.0680
12027W        W27496  10.853   8.746   3.897 -0.2798  0.0033 -0.1649
12028W        W27497   1.435  16.901  16.019 -0.2204  0.1345 -0.1831
12029W        W27498  13.420   5.267   2.054 -0.0882  0.1535  0.0339
12030W        W27499   6.064  13.250  13.562  0.1111 -0.3672 -0.1114
12031W        W27500   0.359   8.563   3.818 -0.0226  0.0840 -0.2079
12032W        W27501   7.242   6.932   1.602  0.1766  0.0378 -0.0768
12033W        W27502  16.190   4.083   2.707 -0.0355  0.1738 -0.1561
12034W        W27503   8.033   5.224   2.529 -0.2264 -0.0718 -0.2343
12035W        W27504  13.418  12.311   5.790 -0.0302  0.0279 -0.2294
12036W        W27505   2.097   8.490  14.454 -0.0042  0.2103 -0.0899
12037W        W27506   7.596   0.514  11.590 -0.0332 -0.0090  0.0010
12038W        W27507   3.585  11.698   4.985  0.1038 -0.0789  0.0854
12039W        W27508  11.285  14.410  11.209  0.2093 -0.2364 -0.2311
12040W        W27509   1.543  10.611  14.535  0.0168  0.3953 -0.0549
12041W        W27510   5.855   6.262   0.832  0.0435  0.0705  0.1003
12042W        W27511   9.024   6.208  15.242 -0.0221 -0.0706  0.0868
12043W        W27512  11.048  15.787   5.498  0.1077  0.0732 -0.1378
12044W        W27513   7.960   2.961  12.447  0.2538 -0.1721 -0.0241
12045W        W27514  11.052   5.177  13.794  0.0934  0.3374 -0.1421
12046W        W27515   7.676  16.671   1.563  0.1225  0.0662 -0.0293
12047W        W27516   2.000  12.639   2.964 -0.0512 -0.1416  0.2482
12048W        W27517   6.057  16.078  11.447 -0.0888 -0.2051  0.4008
12049W        W27518   0.866  11.280  15.118  0.2730  0.2670  0.1008
12050W        W27519  12.018   1.491   2.854 -0.0301 -0.0367 -0.1697
12051W        W27520   8.234   8.270   2.458 -0.2184  0.1888  0.0696
12052W        W27521  11.297  17.858  12.392 -0.1455 -0.0037  0.2595
12053W        W27522   6.605  13.289  12.845  0.1708  0.0369 -0.0461
12054W        W27523  17.713   3.673  12.349 -0.0277 -0.2515 -0.0131
12055W        W27524   4.151   0.393  15.936 -0.1341 -0.2552 -0.1161
12056W        W27525   3.499   3.077   4.089 -0.0532 -0.2673 -0.2502
12057W        W27526  16.602  15.242   0.087 -0.0888 -0.1826  0.0596
12058W        W27527  15.785  16.435  14.104  0.0978  0.1396 -0.0163
12059W        W27528   6.457  11.847   1.741  0.2478 -0.0318  0.1158
12060W        W27529   9.197   9.885   4.281 -0.2344  0.1755  0.1086
12061W        W27530  11.086  18.139   5.245  0.0210  0.1572 -0.1684
12062W        W27531  10.692  12.296  10.824  0.0925 -0.0902  0.1198
12063W        W27532   4.747  13.281  13.148 -0.2059 -0.0501  0.3663
12064W        W27533  17.152  15.078   0.324  0.0525 -0.2190 -0.0723
12065W        W27534  17.791   5.980  14.059 -0.0538 -0.0687 -0.4277
12066W        W27535   7.301   0.291   2.093  0.3529 -0.4934  0.1963
12067W        W27536   1.592  16.239  11.498 -0.1460 -0.0113  0.1407
12068W        W27537   9.757  13.832   2.460 -0.0361 -0.0736 -0.1471
12069W        W27538   6.564   8.053  13.757  0.0742  0.1773 -0.0603
12070W        W27539   4.886  17.024   3.080 -0.2076  0.1404 -0.1281
12071W        W27540   0.440  14.434   5.123 -0.1049 -0.0688 -0.1948
12072W        W27541   9.658   1.404  14.147 -0.1924  0.4833  0.0608
12073W        W27542   4.308   0.069  15.608 -0.1172 -0.1440 -0.0463
12074W        W27543   7.994  11.114   5.320  0.2214 -0.0256 -0.1938
12075W        W27544   4.279  16.908  11.505  0.0680  0.0015 -0.1339
12076W        W27545  12.756   2.400   4.428 -0.1105  0.3404  0.1606
12077W        W27546  16.954  10.381  12.691 -0.3093  0.2724  0.0337
12078W        W27547   4.729  13.958   0.757  0.0409 -0.0063  0.1007
12079W        W27548   5.273   2.094   2.716 -0.3027 -0.1742 -0.2346
12080W        W27549   0.768  10.761  11.262  0.1427 -0.2330 -0.2060
12081W        W27550   9.078   5.353   1.384 -0.0966 -0.0393 -0.0686
12082W        W27551   7.107   8.445  12.839  0.1080 -0.3626  0.1006
12083W        W27552   8.000   8.937   5.399 -0.1466 -0.1055 -0.0448
12084W        W27553   3.921   8.553  13.133  0.2241 -0.1674  0.3567
12085W        W27554  12.843   8.685   1.658  0.1876  0.0271  0.1044
12086W        W27555  10.889  13.572   4.707  0.1540  0.1870  0.0200
12087W        W27556   7.677  15.990  12.139  0.0231  0.1475  0.0051
12088W        W27557  17.719   3.333   3.726  0.0021  0.1357  0.3948
12089W        W27558  17.412  16.160   1.280 -0.1176 -0.2665  0.0875
12090W        W27559  15.237   0.588  14.464 -0.0384 -0.3258 -0.1661
12091W        W27560   4.603   9.237  12.656 -0.0623  0.1402 -0.1498
12092W        W27561   5.229   1.542   5.000 -0.3413  0.0063 -0.1850
12093W        W27562   2.388  15.622  10.555  0.0807 -0.1294  0.2411
12094W        W27563  13.040  15.141  14.466 -0.1465  0.0930  0.1033
12095W        W27564   2.606   3.846  15.020 -0.0918  0.1329 -0.0474
12096W        W27565   8.333  15.117  14.754 -0.0366 -0.1189 -0.0969
12097W        W27566   4.271  12.197   0.957  0.3388 -0.3973 -0.0962
12098W        W27567   0.504  15.052   6.148  0.1478 -0.0007 -0.0270
12099W        W27568  15.906  17.391  15.563 -0.0022 -0.4121 -0.0025
12100W        W27569  10.971  16.547   4.581  0.0033  0.0821 -0.1177
12101W        W27570   6.043  13.931   4.733  0.2469 -0.1151  0.0705
12102W        W27571   5.453   0.587  12.637 -0.0289  0.0847  0.1685
12103W        W27572   8.497   3.369  12.924  0.0956  0.1708 -0.0359
12104W        W27573  12.075  12.347   0.367 -0.0948 -0.0921 -0.1618
12105W        W27574   8.479   4.863   5.018  0.2968  0.0916 -0.2726
12106W        W27575   8.750   1.169  13.863  0.0256  0.0311  0.0348
12107W        W27576  13.265   8.864   1.170  0.1696 -0.2264  0.0637
12108W        W27577   0.017   4.269  10.976  0.2345  0.4519  0.1244
12109W        W27578   1.740  10.304  12.150  0.0633 -0.0391  0.1861
12110W        W27579   3.332   8.461  15.365  0.0038  0.2237  0.0336
12111W        W27580  13.692  15.568   2.807  0.1468 -0.3918  0.1741
12112W        W27581   3.929   9.117  13.278 -0.1097 -0.2092  0.1412
12113W        W27582  18.304   7.079   4.359 -0.0835 -0.3128  0.4608
12114W        W27583  16.912   3.438  11.899 -0.0380  0.2309  0.1227
12115W        W27584  12.560  17.922  12.482 -0.1953 -0.1186  0.3795
12116W        W27585  10.293   4.519   1.796  0.1372  0.1017 -0.0242
12117W        W27586  17.770  12.886  12.231 -0.1973  0.0711 -0.2602
12118W        W27587  17.643  13.449   2.849  0.0518 -0.0466  0.0221
12119W        W27588   1.116   1.682   4.929  0.1586 -0.1291  0.2304
12120W        W27589   3.405   9.235  15.152  0.2543 -0.1401  0.0628
12121W        W27590  10.763   0.588   5.754 -0.0994  0.0338  0.3083
12122W        W27591  17.557   2.959  14.862  0.0228 -0.2631 -0.0589
12123W        W27592  12.617  17.203   5.204 -0.0331  0.0555 -0.0611
12124W        W27593  16.270   4.358  15.444 -0.0249 -0.2403 -0.0661
12125W        W27594   0.233  15.480   0.455 -0.1524 -0.2817 -0.1510
12126W        W27595  14.460   7.023  13.941  0.1801 -0.3328  0.2928
12127W        W27596   5.937  11.867   4.184 -0.0782 -0.0538  0.0807
12128W        W27597   2.185   1.487  12.708 -0.0976  0.0560  0.0788
12129W        W27598  15.686   1.678   2.672  0.0567 -0.1418  0.1752
12130W        W27599   5.103   0.339   4.460 -0.0851 -0.2058 -0.0333
12131W        W27600   8.391   9.971   4.338  0.0019 -0.2553  0.3437
12132W        W27601   6.966   1.825   4.639 -0.0109 -0.1001  0.0843
12133W        W27602   4.251   9.346  15.423 -0.1324 -0.3517 -0.1328
12134W        W27603   0.481   0.647   3.982  0.1541 -0.1819 -0.2088
12135W        W27604  16.247  13.807   2.175  0.2758 -0.2048 -0.0442
12136W        W27605  13.276  10.012   0.116 -0.2346 -0.0398 -0.3738
12137W        W27606  12.324  11.908   3.487 -0.0168  0.3201  0.0168
12138W        W27607  17.350  17.501  15.454  0.0263  0.2356  0.1012
12139W        W27608  10.438  10.017  14.193 -0.2423 -0.0462  0.0660
12140W        W27609   7.073   2.327  10.603 -0.1546  0.0207 -0.1715
12141W        W27610   0.017   4.987   0.532  0.2721 -0.2226 -0.1764
12142W        W27611  10.309   0.607  14.858  0.0825 -0.0388  0.0905
12143W        W27612   5.437   7.581   4.641 -0.1368 -0.0588  0.1683
12144W        W27613  15.757  11.829   3.588  0.0144  0.1357 -0.2223
12145W        W27614   8.084  12.746  15.465 -0.1166 -0.0947 -0.0248
12146W        W27615   7.040   9.035   0.698 -0.2788 -0.0697  0.3338
12147W        W27616   1.198   9.664  11.988  0.2354  0.3186  0.2771
12148W        W27617   7.144   8.620  15.910  0.2887 -0.2639  0.0653
12149W        W27618  18.057  18.219  11.872  0.2009  0.1153  0.0053
12150W        W27619  13.205  18.048  15.069  0.1549  0.1798 -0.0439
12151W        W27620   0.830   2.048   5.094  0.2673 -0.2243 -0.2398
12152W        W27621  17.674   5.025  11.114 -0.3036 -0.3290 -0.2304
12153W        W27622   0.621  12.105  15.522  0.0483 -0.3259  0.0152
12154W        W27623  13.985   3.391  13.193  0.1398 -0.1922 -0.1863
12155W        W27624  12.053  18.117   0.922 -0.0631 -0.0697  0.1566
12156W        W27625   8.355  17.277   2.908 -0.1919 -0.0379  0.0629
12157W        W27626   9.905  11.833  12.950  0.2238 -0.1637 -0.1351
12158W        W27627   6.586   1.981  14.868  0.1287 -0.0902  0.0863
12159W        W27628   9.259   6.186   4.277 -0.0450  0.0543  0.2377
12160W        W27629  14.779   3.030  11.170  0.1299 -0.0659  0.3046
12161W        W27630   1.214   4.918  14.734 -0.1214 -0.5015 -0.0020
12162W        W27631   1.739   1.271   2.905 -0.1368  0.1464  0.2106
12163W        W27632  15.007  10.000  12.270  0.2440  0.0217 -0.0927
12164W        W27633   0.825   7.914   3.432 -0.3083  0.3965  0.4658
12165W        W27634   8.149   5.629   2.213  0.0471  0.0335  0.2459
12166W        W27635  13.551   2.871  15.804  0.0003 -0.0898  0.1579
12167W        W27636  14.057   1.526   0.435 -0.0135  0.1879  0.1464
12168W        W27637   7.298   0.825  14.707  0.0166 -0.1255  0.1608
12169W        W27638   6.664  18.157  12.991  0.4433 -0.0033  0.0396
12170W        W27639  16.777  13.854   4.801  0.1183  0.1207 -0.0301
12171W        W27640  16.170   4.234  14.446 -0.1550 -0.1445 -0.0559
12172W        W27641   1.018   9.047   0.364  0.0327  0.1009 -0.0968
12173W        W27642   4.264  17.884   1.113  0.1101 -0.0519 -0.0216
12174W        W27643   9.404   6.761  14.430  0.1411 -0.0270 -0.1240
12175W        W27644  12.452  14.559  15.589  0.2141 -0.2437 -0.1504
12176W        W27645  12.158   7.255   1.315  0.2382  0.3720 -0.0927
12177W        W27646   1.540   2.209   2.336 -0.1128 -0.0002  0.0305
12178W        W27647  14.630  17.200   4.586 -0.2930  0.0515 -0.1523
12179W        W27648  10.403   4.980  14.558 -0.2039 -0.3774 -0.1118
12180W        W27649   2.652   6.569  13.346 -0.0320  0.1419  0.0538
12181W        W27650  16.428  16.164   1.711  0.1914 -0.1935  0.0421
12182W        W27651   7.937  13.201   0.794  0.2528 -0.1310 -0.2300
12183W        W27652   0.712   5.155  15.688  0.0133  0.3088  0.2692
12184W        W27653   7.461  17.948   3.858  0.0792 -0.0002 -0.0551
12185W        W27654   2.639   8.838  14.427 -0.2705  0.0264  0.1211
12186W        W27655   3.018  14.003   0.219 -0.4220  0.0584 -0.1673
12187W        W27656  15.590  11.529   4.203 -0.1572  0.0308  0.2393
12188W        W27657   3.296  15.430  13.605  0.3002 -0.2156 -0.0658
12189W        W27658  13.780  17.618   3.585 -0.1410  0.0263  0.1294
12190W        W27659   7.823   5.661   4.939  0.1052 -0.0221 -0.0145
12191W        W27660  15.728   2.138   6.064 -0.0285  0.0828  0.0876
12192W        W27661   2.721  16.104   4.643 -0.2027 -0.3143 -0.0307
12193W        W27662   0.285   0.512  15.001  0.1016  0.1476  0.0964
12194W        W27663   4.418  14.351   3.840  0.0976 -0.0073 -0.0652
12195W        W27664  13.018  15.067   0.891 -0.0344  0.4683 -0.1090
12196W        W27665  14.775   7.306   4.836  0.4159 -0.2649  0.2663
12197W        W27666  16.218   2.883   1.915 -0.3203  0.0015 -0.0029
12198W        W27667  16.016   6.433  14.661  0.0979  0.0152 -0.1161
12199W        W27668  12.069  10.566  14.342  0.0688 -0.0267 -0.1249
12200W        W27669  14.127  11.326  12.026 -0.0049  0.2908  0.0843
12201W        W27670   7.220   8.179  15.614 -0.2594 -0.0126 -0.1670
12202W        W27671  15.450  17.931  11.960  0.0933  0.1540 -0.1496
12203W        W27672  12.234   1.611   5.993 -0.1410  0.1831 -0.1371
12204W        W27673   2.637   4.464  12.004 -0.1926  0.0872 -0.1451
12205W        W27674   6.350  13.252   2.054 -0.1496  0.1002 -0.0227
12206W        W27675   0.440   2.495   3.165  0.0408 -0.2372  0.0345
12207W        W27676   2.503   4.460   0.968  0.4131  0.0175  0.0423
12208W        W27677   5.039  10.621   4.307 -0.0098 -0.1634  0.2316
12209W        W27678   2.016  10.683  12.326  0.4476 -0.1901  0.0542
12210W        W27679  11.175   7.124   2.029  0.3723 -0.0517 -0.0286
12211W        W27680   9.572  17.137  16.091  0.2710 -0.1479 -0.0013
12212W        W27681   5.034  15.089   2.165 -0.0223  0.0691  0.1064
12213W        W27682   0.274  15.413   3.640  0.2749 -0.2566  0.1020
12214W        W27683   5.690  16.622   4.561  0.1590  0.1476 -0.0469
12215W        W27684  18.063   2.642  15.646 -0.4391  0.2445  0.1247
12216W        W27685   0.906  17.065  14.797  0.2320  0.0831 -0.2807
12217W        W27686  15.623  14.707   1.956  0.2196  0.0496 -0.2151
12218W        W27687   7.985  11.227   1.538  0.2290  0.0305 -0.0773
12219W        W27688   0.350   7.758  15.316  0.1453 -0.0274  0.0909
12220W        W27689  12.563  17.659   5.372 -0.0447  0.1440  0.0310
12221W        W27690   8.756   6.666   4.613  0.2295  0.2022 -0.1342
12222W        W27691   7.913  18.067  14.573  0.3384  0.1005  0.2215
12223W        W27692  11.922   1.033  15.932  0.0235  0.0751 -0.2868
12224W        W27693  10.345  15.365  14.572 -0.1148  0.0881 -0.0495
12225W        W27694   2.418  12.661  15.197  0.3978  0.3156 -0.2220
12226W        W27695   3.338   6.650   2.998  0.1750 -0.2372  0.0138
12227W        W27696   5.449  16.504  15.654 -0.4067 -0.4097 -0.2329
12228W        W27697   1.335  11.246   4.395 -0.0566 -0.0050 -0.2285
12229W        W27698  11.708  11.428  12.975  0.0813  0.0158 -0.0159
12230W        W27699  11.977  15.280  12.090  0.0534  0.1232  0.0120
12231W        W27700  11.338   4.741  15.498 -0.5784  0.2034 -0.3974
12232W        W27701   0.739  13.309  10.451  0.0017  0.1145 -0.1027
12233W        W27702   6.541   1.372  15.786 -0.0382  0.0669 -0.2598
12234W        W27703  14.254   7.854   1.850 -0.3602 -0.2657 -0.1841
12235W        W27704  10.592  12.608   3.265 -0.3081  0.1494  0.0004
12236W        W27705  17.002   3.978   1.258 -0.1748 -0.2095  0.1160
12237W        W27706  15.605  13.549  12.871 -0.1549 -0.2852  0.2415
12238W        W27707   4.457   1.236   5.427  0.1016 -0.2349 -0.0807
12239W        W27708  17.492  11.425  12.284  0.5148 -0.1777 -0.1105
12240W        W27709  13.751   0.774  16.063 -0.1455 -0.1351 -0.0509
12241W        W27710  15.064   7.544  12.929  0.0276 -0.1428  0.1928
12242W        W27711  17.634   1.531  15.057 -0.0252  0.1014 -0.0870
12243W        W27712   1.260  15.276  11.171  0.4056 -0.0520  0.0041
12244W        W27713  10.665   7.704   5.931 -0.1222 -0.1919  0.1705
12245W        W27714   9.333   6.138  11.898  0.0873  0.1379 -0.2594
12246W        W27715   5.182   7.407  13.832 -0.2288 -0.4182 -0.0940
12247W        W27716   6.248  16.826  10.977 -0.0488  0.0232  0.0400
12248W        W27717  10.088  11.175  14.724 -0.1444  0.3564  0.0231
12249W        W27718  17.030  16.389   3.117 -0.1293 -0.0820  0.0173
12250W        W27719   4.810  17.699  16.135  0.2117  0.2405  0.0614
12251W        W27720  13.419  14.580   4.849 -0.0617 -0.1337  0.0892
12252W        W27721   6.952  10.354   1.106 -0.3033 -0.1383  0.0740
12253W        W27722   6.394  16.708   0.920  0.1015 -0.2374  0.0935
12254W        W27723   9.632   3.969  15.485 -0.1788 -0.1461 -0.4120
12255W        W27724  10.006  10.131  15.481 -0.2145 -0.0285  0.2927
12256W        W27725   0.550   5.608   3.001 -0.2516  0.1297 -0.0398
12257W        W27726  14.640   2.428  11.909  0.1327  0.1264  0.2553
12258W        W27727   4.887   3.117   2.791 -0.0518 -0.1030 -0.1289
12259W        W27728  12.404  11.242   9.938 -0.1877  0.3650  0.1607
12260W        W27729  17.047  13.252   1.417 -0.1615 -0.0544  0.1729
12261W        W27730   9.634  15.725   0.095  0.2210  0.1494 -0.3143
12262W        W27731   5.174   8.760   3.730  0.0689 -0.2710  0.0705
12263W        W27732  10.690  14.675   2.159 -0.0811 -0.0609  0.1323
12264W        W27733   9.434  11.332   0.919  0.2080 -0.2285 -0.2970
12265W        W27734   6.711  17.704   4.131 -0.0442  0.3451 -0.0879
12266W        W27735   0.443  10.383  11.290 -0.0549 -0.3805 -0.0937
12267W        W27736   8.155  16.617   0.511  0.1061  0.1356 -0.2898
12268W        W27737  11.187  12.911   2.825  0.1286 -0.1315  0.1987
12269W        W27738   4.711   8.777  14.054  0.2318 -0.0390 -0.0528
12270W        W27739  10.786   5.421   5.549  0.0710  0.0431 -0.1164
12271W        W27740  11.438   7.261  14.916 -0.4576  0.0672  0.4548
12272W        W27741  16.355   3.188  12.128 -0.0972  0.1962 -0.4099
12273W        W27742  16.376   4.051  11.461 -0.0890  0.1858  0.2285
12274W        W27743  15.813   6.213  12.494  0.0177 -0.1186 -0.0120
12275W        W27744  12.069   8.842  13.240  0.3206 -0.0484 -0.0771
12276W        W27745  12.121   0.852  13.429 -0.0094 -0.0632  0.1461
12277W        W27746  16.484  15.736   0.360  0.0636 -0.1027 -0.1768
12278W        W27747  12.535  17.361  11.632 -0.0749 -0.4562  0.1452
12279W        W27748   8.974  15.281  14.912 -0.0061  0.1241  0.2478
12280W        W27749   3.073   4.755  15.161  0.2319 -0.0286 -0.3253
12281W        W27750   2.095  12.848   2.168  0.2905  0.2707  0.0319
12282W        W27751  13.491   5.693  12.037  0.0659  0.1969 -0.1512
12283W        W27752  14.655  18.114  15.990  0.0172  0.0123  0.2540
12284W        W27753  16.140   5.796   4.691 -0.1555  0.0116 -0.0606
12285W        W27754  17.170   3.729   0.236  0.0690 -0.2010 -0.2087
12286W        W27755  14.857   7.562  12.361 -0.0753  0.0859 -0.1523
12287W        W27756  15.797   1.241   2.763  0.1744  0.0710 -0.0998
12288W        W27757  12.439   4.631   1.355  0.0948 -0.0774  0.1009
12289W        W27758   2.548   1.108  15.374 -0.1934  0.1060  0.0915
12290W        W27759   8.135   2.491  12.677  0.1788  0.1518 -0.3311
12291W        W27760   7.719   1.266   4.524  0.1127  0.0556 -0.2852
12292W        W27761   2.363  12.679   2.637 -0.0485  0.0355  0.0506
12293W        W27762   3.045  15.564  15.353  0.1322  0.1903  0.1323
12294W        W27763   2.567   7.944  12.830 -0.1797 -0.0881  0.0934
12295W        W27764   5.576  14.798   1.268 -0.1176 -0.1381  0.2591
12296W        W27765  11.798  13.357   2.562 -0.2632 -0.0563  0.2179
12297W        W27766   4.228   2.410  15.870 -0.2061  0.1215  0.0225
12298W        W27767  15.548  17.974  11.367  0.3851  0.0295  0.0355
12299W        W27768   4.962  10.221   1.903 -0.3532  0.3691  0.1380
12300W        W27769   9.105   1.802   4.194 -0.1617  0.1445 -0.0286
12301W        W27770   2.009  15.797  12.294  0.1427  0.2628 -0.0866
12302W        W27771  11.642   4.337  12.456 -0.1394  0.0723  0.2369
12303W        W27772  11.103  15.909   2.386  0.2414 -0.1391 -0.0179
12304W        W27773   8.641   7.675   3.188  0.0726  0.1755 -0.3289
12305W        W27774   7.266  17.828   5.468  0.4009  0.2441  0.0591
12306W        W27775  17.599  11.154  12.894  0.2460 -0.1266  0.0434
12307W        W27776   0.769   1.120  15.411  0.0742 -0.3217 -0.2876
12308W        W27777   7.669   5.588   2.562 -0.0319  0.0004 -0.0243
12309W        W27778   4.262  15.381  11.354  0.0208 -0.1765 -0.1682
12310W        W27779  16.634   6.269  15.697 -0.0615 -0.3336  0.1114
12311W        W27780   0.485   4.909  15.220 -0.2075  0.1939 -0.1414
12312W        W27781  11.635   5.397  12.780 -0.1187  0.2219 -0.2371
12313W        W27782   6.093  15.368   3.695 -0.0445  0.1791 -0.1275
12314W        W27783   6.265  18.066   5.418  0.3299  0.2024 -0.0207
12315W        W27784  13.995   2.038   4.666 -0.1123  0.3359  0.1217
12316W        W27785  17.535   2.554   5.026  0.0277 -0.1361  0.1217
12317W        W27786  12.348   9.004   1.927 -0.1130  0.0868  0.0007
12318W        W27787  16.470  14.823   2.967  0.1321  0.0243 -0.0462
12319W        W27788   7.453  13.714  14.594 -0.0440  0.1639 -0.1616
12320W        W27789  15.132  15.867   3.637  0.0043  0.2629 -0.0364
12321W        W27790   5.799   3.281   4.757  0.1285  0.1051  0.1468
12322W        W27791  13.313  17.751   5.022 -0.2368 -0.2603  0.4817
12323W        W27792   6.013   1.205   4.147  0.1855  0.3189 -0.1309
12324W        W27793   5.356   8.968   0.897  0.1597 -0.0275  0.0723
12325W        W27794   0.076  18.030   0.410 -0.0883 -0.1075 -0.1218
12326W        W27795  12.198   1.942   2.268  0.0232 -0.0414 -0.0823
12327W        W27796  17.546  16.361  14.698 -0.0554  0.0153 -0.1474
12328W        W27797  14.968   9.283  12.658 -0.1196 -0.0063 -0.1515
12329W        W27798   4.383   6.023  11.847 -0.1739 -0.1639 -0.1499
12330W        W27799   0.427   7.628   5.097 -0.0762  0.0473  0.1766
12331W        W27800  16.174   9.529  12.196 -0.0160 -0.1136 -0.1957
12332W        W27801   4.859   4.966   1.018  0.2426  0.0065 -0.0462
12333W        W27802   8.365  12.196   1.676  0.0268 -0.0268 -0.1629
12334W        W27803   0.930  15.446  11.522 -0.2140  0.3581  0.3761
12335W        W27804  12.153  15.132   0.501  0.1051 -0.3308 -0.0238
12336W        W27805   3.364  17.267  11.489 -0.0108  0.0544  0.1177
12337W        W27806   7.147  10.279   3.751 -0.2055  0.1564 -0.0083
12338W        W27807   1.699   8.261   1.917 -0.2012 -0.0299  0.2434
12339W        W27808   6.915   2.706   4.999  0.1837  0.3738  0.1005
12340W        W27809  10.718   8.814  11.470 -0.1117 -0.0493 -0.0326
12341W        W27810  12.301  13.854  12.216 -0.0639  0.5573  0.1222
12342W        W27811   6.375  12.747  12.570 -0.1049  0.1437 -0.0409
12343W        W27812   1.753  11.330   4.035 -0.1495  0.0927  0.0533
12344W        W27813   0.227   3.479   4.895 -0.2995  0.0343  0.1042
12345W        W27814  16.435  12.104   1.082 -0.0302 -0.1127 -0.1228
12346W        W27815   0.252  12.153   3.005 -0.3187 -0.0360  0.0772
12347W        W27816  16.766   2.350   5.498  0.0009 -0.0996  0.2366
12348W        W27817  10.089   9.135  13.849 -0.0812 -0.0508  0.1647
12349W        W27818   5.117  10.969  12.965  0.1864  0.0445  0.3118
12350W        W27819   4.166  10.947   2.223 -0.4843  0.2301 -0.0026
12351W        W27820   4.038  11.707   2.326 -0.2928  0.1635  0.0472
12352W        W27821  14.616   9.642  14.841 -0.1812 -0.3280  0.0764
12353W        W27822   7.440  11.376   4.692  0.3432  0.0291 -0.0793
12354W        W27823  10.773   4.501   5.840  0.2884 -0.4115  0.1049
12355W        W27824  13.704  10.440   4.319 -0.0755  0.0506  0.3807
12356W        W27825   0.034  12.172  15.364  0.0844  0.2471  0.0119
12357W        W27826  12.069   8.156   0.060  0.2130  0.0325  0.3154
12358W        W27827  17.414  13.570   1.206 -0.1033  0.0200  0.0409
12359W        W27828   4.071   7.565  14.798  0.2957  0.2242  0.1211
12360W        W27829   5.719   8.249  14.621 -0.0749  0.0650 -0.0336
12361W        W27830   3.105   2.617  12.542  0.3962  0.1573  0.1043
12362W        W27831   5.139  17.004   3.654  0.0406  0.1686  0.2890
12363W        W27832  16.285   7.592  12.771 -0.0477  0.1800 -0.3534
12364W        W27833  14.524  12.890  13.697 -0.0440  0.3108  0.3217
12365W        W27834   4.330  18.059   2.114  0.0639  0.0638  0.2152
12366W        W27835   7.884   1.598  14.817 -0.0210 -0.0098  0.5216
12367W        W27836   7.329  10.655  14.621 -0.0640 -0.0549  0.0493
12368W        W27837  10.140  11.603  14.908  0.0757 -0.0678  0.0395
12369W        W27838   6.359   5.673   2.332 -0.1471  0.0390  0.2261
12370W        W27839   2.035  11.204   9.889 -0.3125 -0.1213 -0.1943
12371W        W27840  14.814  16.092   3.226 -0.3352 -0.2188 -0.0766
12372W        W27841   8.853  13.195  15.186  0.2156 -0.0261  0.0163
12373W        W27842  17.789   1.760  12.500  0.0891 -0.2127 -0.0063
12374W        W27843   2.580   0.638   3.978 -0.0269  0.1186  0.2754
12375W        W27844  18.117  10.201   4.051  0.2375  0.1055 -0.1617
12376W        W27845   7.308  13.679  15.103  0.0279  0.1069 -0.0418
12377W        W27846  14.710  12.125   1.701  0.4361 -0.0679 -0.1055
12378W        W27847   7.322   5.847   2.283  0.2546 -0.0694  0.0655
12379W        W27848   9.301   9.867   2.268 -0.1649 -0.2238  0.1987
12380W        W27849   3.070   4.564  15.931  0.2825 -0.0923 -0.0308
12381W        W27850   2.329  15.413   2.877 -0.1955  0.0176 -0.0844
12382W        W27851   2.707  13.115   2.562  0.0633 -0.1689  0.0958
12383W        W27852   9.465   2.288  14.713 -0.3171 -0.1652  0.0578
12384W        W27853  12.931  13.531  11.072 -0.0989  0.1714 -0.1836
12385W        W27854   6.611   0.098  12.278  0.1086  0.0368 -0.3692
12386W        W27855   0.133   3.226   2.557 -0.1705  0.2842  0.3440
12387W        W27856  14.922   4.068   5.000  0.2194 -0.0570 -0.3038
12388W        W27857  14.051  18.276  12.931 -0.0839 -0.1575  0.0394
12389W        W27858  15.150   0.965  12.041 -0.3416  0.1327 -0.3154
12390W        W27859   0.497   0.721  14.603  0.0477 -0.0848  0.0204
12391W        W27860   7.525  14.188  12.644  0.2442  0.1851  0.0321
12392W        W27861   1.503  18.062  12.672  0.1051 -0.0942 -0.2315
12393W        W27862   0.402  15.496  10.813  0.1591  0.0343  0.0760
12394W        W27863   9.076  10.606   4.633  0.0780  0.2214 -0.0967
12395W        W27864   8.302   3.261  13.388 -0.3004  0.0738  0.0220
12396W        W27865   1.882   6.971   0.371 -0.2639 -0.1973  0.1105
12397W        W27866   2.306   0.912   1.596  0.1626  0.0431  0.1076
12398W        W27867  11.245  12.349  13.426 -0.0075 -0.0871 -0.2102
12399W        W27868  16.022  14.423   1.568 -0.1300  0.0358 -0.0245
12400W        W27869   6.368  10.215  12.008 -0.0254  0.1101 -0.2604
12401W        W27870   4.385   7.584   0.704 -0.0972 -0.1965 -0.2073
12402W        W27871   0.682  10.415   3.139  0.0547 -0.0540  0.1450
12403W        W27872  15.758   6.040   4.419 -0.1217 -0.1149 -0.0838
12404W        W27873   9.853  12.759  14.712 -0.3690 -0.1449  0.0113
12405W        W27874  17.643  15.836   2.113 -0.1403 -0.4052  0.1883
12406W        W27875  13.004  13.857   4.847 -0.0408  0.2808  0.2111
12407W        W27876   6.452   9.110   4.997  0.2898 -0.0078  0.0474
12408W        W27877  17.480  13.047   1.302  0.1400 -0.0906  0.1659
12409W        W27878   8.509  10.287   3.087 -0.2386 -0.0543  0.0667
12410W        W27879  10.867   5.051   3.607  0.0316 -0.1524  0.0794
12411W        W27880   5.399  13.154  13.570  0.1354 -0.0435  0.1184
12412W        W27881   6.069   6.491  12.295  0.1431 -0.1140  0.0098
12413W        W27882   3.803  13.701  12.998  0.0830 -0.0796 -0.0759
12414W        W27883  13.016   7.289   4.886  0.0612  0.0658 -0.0099
12415W        W27884   0.807  17.175   5.136 -0.0882 -0.0109 -0.0568
12416W        W27885   7.195   8.126   4.978  0.0575  0.0410  0.0699
12417W        W27886  17.845  12.691   3.418  0.0917 -0.0411 -0.0459
12418W        W27887  10.910   3.490  13.547 -0.2454  0.1030  0.0811
12419W        W27888   9.769  15.154   0.252 -0.1035  0.3455  0.0007
12420W        W27889  15.411   9.313  15.966 -0.2224  0.0513 -0.1942
12421W        W27890   7.138   2.658   1.147  0.1012  0.1409  0.0622
12422W        W27891  14.430   5.252  15.703 -0.1353  0.1154 -0.0300
12423W        W27892  16.210  13.102  15.572 -0.0362 -0.0921 -0.0327
12424W        W27893  11.459  15.130   0.951 -0.0215 -0.0352  0.2477
12425W        W27894   1.085   2.310   3.380  0.0667 -0.3225 -0.2175
12426W        W27895  11.009   6.343   3.837 -0.1387 -0.2389 -0.0837
12427W        W27896   4.784  16.203  11.406  0.0960  0.3708 -0.0584
12428W        W27897   5.567  16.712  13.690  0.0714  0.3440 -0.1679
12429W        W27898  17.681  10.144   1.125  0.4461  0.2726  0.2411
12430W        W27899   3.077  16.687  15.254 -0.1156  0.0159  0.3249
12431W        W27900  13.695   5.425   0.348  0.3381  0.0905  0.5880
12432W        W27901  12.148  14.486   2.981 -0.0328 -0.3804  0.1454
12433W        W27902  15.778  13.661  14.846 -0.0454  0.0490  0.0427
12434W        W27903  13.609  12.277  14.921  0.0657  0.2128  0.1439
12435W        W27904   0.982   5.717   5.055  0.1056  0.2913 -0.2039
12436W        W27905  10.851   7.659  15.531  0.3361  0.0689  0.0690
12437W        W27906  11.364   3.297   5.156 -0.0577 -0.0400  0.0358
12438W        W27907  14.207  18.019   5.395 -0.0729 -0.0699  0.1719
12439W        W27908   3.300  16.610  13.558 -0.0949  0.1248  0.1065
12440W        W27909  11.769   5.491  14.978 -0.0700 -0.0944  0.0591
12441W        W27910   4.047  11.685  14.570 -0.1467 -0.1865  0.0325
12442W        W27911  10.649  14.563  13.893  0.1462 -0.1391 -0.3045
12443W        W27912   5.491   8.212  12.841  0.1768  0.2810  0.0049
12444W        W27913   5.224   9.771   1.149 -0.2388 -0.1413  0.2076
12445W        W27914   6.412   9.405   5.777  0.2617 -0.0197  0.0979
12446W        W27915  11.878  12.653   5.883  0.0897 -0.2943 -0.0702
12447W        W27916  14.951   0.652  11.703  0.0818 -0.0150  0.0281
12448W        W27917   5.067   1.107  13.268  0.0871  0.0502  0.4770
12449W        W27918   7.084  13.943  15.451  0.2632  0.0615 -0.1026
12450W        W27919  15.293   6.617   5.921 -0.1608  0.3163 -0.1686
12451W        W27920  11.759   0.880   2.471 -0.1955 -0.2044 -0.2471
12452W        W27921   4.433  18.141   2.921 -0.0085 -0.2291  0.0913
12453W        W27922   7.789   8.267   4.254  0.1393  0.0077  0.1636
12454W        W27923   9.188   1.064   4.399 -0.1015  0.0073 -0.0737
12455W        W27924  17.825  16.158   4.349 -0.0122  0.1486 -0.0538
12456W        W27925   0.416   7.858  14.173  0.0683  0.1263 -0.3252
12457W        W27926  10.143   1.369  11.286  0.1123 -0.2105 -0.2242
12458W        W27927   5.723  12.210   5.033 -0.1335 -0.0088 -0.1405
12459W        W27928   1.127   3.714   3.079 -0.1770  0.0030  0.0800
12460W        W27929   5.270   5.395  15.243 -0.1673  0.2745 -0.0248
12461W        W27930  13.100   9.203  12.975  0.0437  0.1161  0.1720
12462W        W27931  11.229   1.695  11.786  0.1154 -0.3514 -0.1754
12463W        W27932   8.465  13.153  11.119  0.3003  0.0389  0.0412
12464W        W27933   9.179   8.750  14.260 -0.0425 -0.2133 -0.1886
12465W        W27934  14.267  17.165   3.647  0.1679  0.0065 -0.1399
12466W        W27935   0.388   5.680   3.849 -0.2971  0.0751  0.2417
12467W        W27936   9.330   4.082  12.504 -0.0591  0.0315 -0.0182
12468W        W27937  17.931   3.301   1.531 -0.3848  0.1074 -0.0561
12469W        W27938   7.075   4.134   4.577  0.1478  0.1422 -0.0888
12470W        W27939   2.970   7.308  13.255 -0.1084  0.0875 -0.1253
12471W        W27940   7.352   7.744   1.121 -0.0974  0.1834 -0.0506
12472W        W27941   9.250  17.503  15.213 -0.5141 -0.1586 -0.2811
12473W        W27942  14.035   6.267   4.761  0.1667 -0.0364  0.0222
12474W        W27943   2.788   7.756   1.714 -0.1692 -0.1507  0.1343
12475W        W27944   1.433   7.061  15.531  0.3408 -0.1085 -0.1964
12476W        W27945   0.257   2.488  11.244  0.3203  0.0033  0.1825
12477W        W27946   2.895   3.728  13.910 -0.0618 -0.1265  0.0311
12478W        W27947   2.605   2.687  11.936 -0.0900  0.1274 -0.1729
12479W        W27948  16.236  17.887  14.776  0.1738  0.1067 -0.0057
12480W        W27949   1.337  16.101  12.426 -0.0345  0.0493 -0.0058
12481W        W27950   8.728  17.880   0.684  0.3390  0.0670  0.1228
12482W        W27951  11.269  12.462   2.568 -0.0575 -0.0007 -0.2726
12483W        W27952  14.887   5.960  15.343 -0.3047 -0.2396 -0.0288
12484W        W27953   1.688  11.169   2.678  0.4206 -0.1189 -0.0500
12485W        W27954   9.217  13.159   4.598  0.2080  0.2791  0.1213
12486W        W27955  14.346   8.268   4.369 -0.3135  0.0164 -0.1526
12487W        W27956  14.493  11.206   4.310 -0.3404 -0.1229 -0.1818
12488W        W27957   2.814   7.959   0.844  0.0522 -0.0364 -0.1242
12489W        W27958  16.118   5.703  15.444  0.2016  0.1188  0.2093
12490W        W27959   4.923   7.462  14.245  0.0150 -0.1068 -0.4573
12491W        W27960   2.579  17.849   4.827 -0.0114 -0.1880  0.2452
12492W        W27961  18.277  11.708   1.906  0.2011 -0.3428 -0.1110
12493W        W27962  18.093   2.341  13.948  0.0650  0.1666  0.1666
12494W        W27963   7.113   5.009  14.188  0.3178 -0.2469  0.3956
12495W        W27964  10.115  16.429   0.168 -0.2206  0.0864 -0.1219
12496W        W27965   0.692   9.964   0.332  0.2389 -0.0935  0.2652
12497W        W27966   8.966  11.494   0.745  0.0590 -0.1164 -0.0186
12498W        W27967  14.542   4.130   2.774 -0.1387  0.3660 -0.2880
12499W        W27968   8.651   6.870  12.001  0.1061 -0.0483  0.1751
12500W        W27969  11.491   2.020  14.992  0.0199  0.0093 -0.0175
12501W        W27970  10.059   3.874  12.889 -0.2351 -0.0006  0.0246
12502W        W27971  17.105   6.649   0.446 -0.0282  0.0188  0.2049
12503W        W27972  16.755  12.633   4.299 -0.1995 -0.1478 -0.1559
12504W        W27973   5.041   0.196  13.364  0.0470 -0.1927  0.0807
12505W        W27974  12.602  15.014  15.287 -0.1433  0.1714 -0.2577
12506W        W27975  10.394   6.472  10.553 -0.1391  0.0503 -0.1318
12507W        W27976  17.192  14.117   0.432 -0.2368 -0.2336  0.1267
12508W        W27977   1.578   1.099  15.923 -0.1481  0.2079 -0.1552
12509W        W27978  17.657  13.628   2.075 -0.2172  0.4244  0.0142
12510W        W27979  14.383  12.357   3.279  0.3119 -0.1232 -0.1977
12511W        W27980   0.660   0.014   2.173  0.1218 -0.1750  0.2588
12512W        W27981   2.332  13.629  14.875 -0.2092  0.3445 -0.2535
12513W        W27982  10.511   0.659   0.270  0.0212  0.0345 -0.0160
12514W        W27983   9.262   4.705  13.508 -0.0590 -0.2030 -0.1367
12515W        W27984   8.913   8.728   4.965  0.0164 -0.1493 -0.0641
12516W        W27985   7.310   0.361   5.010 -0.0026 -0.0713 -0.0227
12517W        W27986  10.388  17.593  15.030  0.2307 -0.1476 -0.2374
12518W        W27987   9.743   0.337  11.240  0.0562  0.1592  0.1436
12519W        W27988  12.660  16.160  15.127 -0.2888 -0.3707  0.0982
12520W        W27989   9.322   4.354   5.015 -0.1559 -0.0504 -0.0717
12521W        W27990   4.078   5.871  15.212  0.2530  0.1796 -0.0774
12522W        W27991   4.845  12.217   0.460 -0.0978  0.2415  0.0318
12523W        W27992   2.670   8.765  12.867 -0.1134  0.0351 -0.0635
12524W        W27993  10.747  14.895  13.404  0.1638 -0.3064 -0.0246
12525W        W27994   5.292   5.067   0.150  0.0688 -0.0145 -0.1982
12526W        W27995  13.147   6.986  10.515 -0.1014 -0.0976 -0.0002
12527W        W27996  15.178  10.617  11.022  0.0397  0.0274  0.2815
12528W        W27997   1.335   2.887  11.082  0.4980  0.0094  0.0862
12529W        W27998  11.815   1.929   2.829  0.0643 -0.2317 -0.2037
12530W        W27999   1.718  16.474  15.136  0.0853 -0.1484 -0.2094
12531W        W28000   1.468   0.765   2.033  0.0880  0.3031 -0.1636
12532W        W28001   2.368   4.752   3.702  0.2429  0.0042  0.2554
12533W        W28002   8.062  17.602   2.671  0.1487 -0.0867 -0.2411
12534W        W28003  10.051  16.423  13.684  0.4199 -0.0543 -0.0459
12535W        W28004  14.360   7.662  12.306 -0.0089  0.0498 -0.1796
12536W        W28005  13.787   9.913   4.348 -0.2091 -0.0351 -0.0843
12537W        W28006   6.917  16.180   2.977 -0.1236  0.2593  0.0983
12538W        W28007  11.908   1.252  12.052  0.1490  0.1944 -0.1013
12539W        W28008  11.096  13.680  15.402  0.0142 -0.0795  0.2521
12540W        W28009  11.636  15.913   4.559  0.3095 -0.1660 -0.0242
12541W        W28010  15.897   6.813   2.305  0.0160  0.3297 -0.0085
12542W        W28011   6.306  12.632   4.560 -0.2601 -0.2826 -0.1015
12543W        W28012   1.959  13.058  15.846 -0.0645  0.2126  0.0748
12544W        W28013   6.356   4.644   4.163  0.2349 -0.1600 -0.0999
12545W        W28014   2.039   9.015  12.766 -0.1287 -0.3292 -0.0162
12546W        W28015   6.879   5.937   4.199  0.2416  0.0107 -0.1045
12547W        W28016  17.902   9.566  11.310 -0.0299 -0.1687  0.2455
12548W        W28017  10.996   0.548   4.087  0.1675  0.1540  0.0113
12549W        W28018  11.195  14.566   2.226  0.1354  0.3878  0.0431
12550W        W28019   6.449  17.200   4.808  0.0023  0.3750 -0.2530
12551W        W28020  17.894  15.227  14.526  0.0954  0.1094  0.3106
12552W        W28021   6.862   5.631  11.975  0.0929  0.0167  0.3481
12553W        W28022   2.182   2.839  14.878  0.2004  0.2182 -0.0383
12554W        W28023  12.311   6.169   2.868 -0.1322  0.2972 -0.0062
12555W        W28024   5.387  17.686  16.072 -0.2478  0.1841  0.0363
12556W        W28025   1.561   0.595   2.885 -0.0384  0.0764 -0.1529
12557W        W28026  14.969   8.024   0.722  0.0271  0.0296 -0.1661
12558W        W28027  11.883  15.764  15.397  0.2179 -0.0216 -0.0263
12559W        W28028  18.254  13.767  13.290  0.0877 -0.2931  0.0508
12560W        W28029   6.700  16.108   0.108 -0.4731  0.0406  0.1257
12561W        W28030   0.904  17.906   2.095 -0.5439 -0.0494  0.3106
12562W        W28031   2.624   8.754  13.560  0.0665 -0.1178 -0.1537
12563W        W28032   7.734   4.329   5.350  0.0553 -0.2256  0.0862
12564W        W28033   5.819  17.018  14.318  0.1543  0.0343 -0.0553
12565W        W28034   5.306  14.284  13.141 -0.1518 -0.0459 -0.0461
12566W        W28035  17.605   5.491   2.749  0.0739  0.0827 -0.0193
12567W        W28036   8.445  10.783   0.117  0.0126 -0.3213  0.0073
12568W        W28037   3.718  10.619   6.309  0.0872  0.2640 -0.1322
12569W        W28038  16.328   5.620   2.652 -0.1101  0.3411  0.0205
12570W        W28039  11.462  10.619  13.187 -0.0715 -0.0221 -0.2857
12571W        W28040  17.601   8.649  13.875  0.2207  0.1886 -0.2872
12572W        W28041   0.844  13.827   2.217  0.2242 -0.0717 -0.0961
12573W        W28042  14.707   6.731   4.920  0.2878  0.0471 -0.2981
12574W        W28043   0.610   8.149   2.988 -0.1255  0.0377 -0.1329
12575W        W28044  16.154  13.353   1.898 -0.1510 -0.1488 -0.2281
12576W        W28045  17.964  16.090  15.816  0.0459 -0.1170 -0.0447
12577W        W28046   0.141  13.175   4.182 -0.1067  0.2047  0.0163
12578W        W28047  16.575  18.243   5.291 -0.1598  0.3184 -0.1214
12579W        W28048   7.135   4.459   3.368 -0.1762  0.1022 -0.0252
12580W        W28049  17.607   8.705   0.646  0.1702  0.1262  0.1817
12581W        W28050   4.839  11.094   4.715 -0.0722  0.1141 -0.0267
12582W        W28051   8.188  11.660  11.358  0.0918  0.2877  0.1258
12583W        W28052   8.301   2.190   0.022  0.0446  0.1881  0.0845
12584W        W28053  15.801   3.337  15.364  0.0528  0.0488  0.1065
12585W        W28054  13.859   0.204  15.853  0.3375  0.1043  0.2367
12586W        W28055   3.141   4.146   3.287 -0.1842 -0.1199  0.0406
12587W        W28056   8.419   7.255   3.478  0.0769 -0.0510  0.1277
12588W        W28057  15.874  16.395   5.091 -0.0261  0.1855 -0.3255
12589W        W28058  16.375   8.103  11.479  0.0013 -0.0868  0.2225
12590W        W28059  13.862  17.142   0.654 -0.0310 -0.0420 -0.2117
12591W        W28060  11.368   3.582  13.436 -0.0800  0.5555  0.0755
12592W        W28061  13.618   7.731  14.252  0.2938  0.0903  0.3033
12593W        W28062  15.001  18.092  11.136  0.0653 -0.2666  0.0977
12594W        W28063   4.325   5.357  11.655 -0.0345  0.0301  0.2686
12595W        W28064   6.626   8.792   0.497 -0.1949  0.0301 -0.1116
12596W        W28065  10.824  14.199  11.227 -0.0032  0.5069  0.1047
12597W        W28066   2.747  10.927  12.753  0.0901  0.3433 -0.1242
12598W        W28067  16.447   8.559   0.514 -0.1401  0.0635  0.0535
12599W        W28068   4.800   1.743  13.358  0.0538  0.2727  0.0428
12600W        W28069  14.654   4.143   4.560 -0.1451  0.0860 -0.0441
12601W        W28070  10.873   4.034  11.039 -0.1730  0.2024 -0.0030
12602W        W28071  14.196  11.529  10.211 -0.3349  0.2441  0.1128
12603W        W28072  18.124  12.492   5.334  0.0527 -0.6866  0.1025
12604W        W28073  16.318  17.824   0.050 -0.2500 -0.1380 -0.0062
12605W        W28074   7.813   9.685  15.594 -0.0356 -0.2522  0.0498
12606W        W28075   5.335   3.530   1.802 -0.2627 -0.1254 -0.1657
12607W        W28076   1.316   1.252   2.076  0.0182  0.1310  0.0518
12608W        W28077  16.466  10.228   1.059  0.1595 -0.0719  0.0205
12609W        W28078  18.089  14.588   1.103 -0.2198 -0.1925  0.2158
12610W        W28079   4.802  11.018  15.530  0.0889  0.0795 -0.0719
12611W        W28080  16.847   3.198  13.754  0.1394  0.1196 -0.2968
12612W        W28081   9.050  11.634  10.882  0.0210  0.1109 -0.1992
12613W        W28082  11.037  14.722  10.920 -0.2000 -0.1185  0.2228
12614W        W28083   9.198   6.768   4.341  0.1191 -0.1994  0.0328
12615W        W28084   5.284  10.241   0.206  0.2012 -0.1822 -0.0451
12616W        W28085  16.227  14.821  12.958  0.2104 -0.2745  0.1793
12617W        W28086  14.192   8.588   3.286 -0.0286 -0.0355 -0.2148
12618W        W28087  11.324   3.052   0.795  0.0666  0.1989  0.2220
12619W        W28088  14.416  16.791  14.471 -0.4004 -0.1561  0.1298
12620W        W28089   9.751   8.587  11.595 -0.0990 -0.0332 -0.2041
12621W        W28090   7.428  16.271  14.695 -0.0022  0.1122  0.1322
12622W        W28091  17.361   9.931   1.964  0.0717  0.0879  0.1121
12623W        W28092   6.187  11.516   4.424  0.0000 -0.3609 -0.1460
12624W        W28093  11.688   4.973   0.733 -0.1197 -0.1379  0.2030
12625W        W28094  14.420  14.490  12.267 -0.2415 -0.0357 -0.0022
12626W        W28095  16.282   1.344   2.556  0.0582 -0.5623 -0.1950
12627W        W28096   3.032  12.978   0.878  0.0772 -0.1108  0.1281
12628W        W28097  13.613   7.029   4.331 -0.1154 -0.2403 -0.0060
12629W        W28098   1.448  10.653   0.477 -0.3311 -0.1068  0.6119
12630W        W28099  14.886   2.800  15.915  0.0383  0.1340 -0.4280
12631W        W28100   9.126   3.207   1.342  0.1576 -0.0570  0.3292
12632W        W28101   7.938  12.979   2.517  0.0611  0.2802 -0.0789
12633W        W28102  18.179  16.195   1.462 -0.3018 -0.0244  0.4377
12634W        W28103   0.208  12.467  10.643  0.0145  0.2433 -0.2210
12635W        W28104   3.790  13.981  15.189  0.1763  0.2353 -0.0402
12636W        W28105  15.081   3.389   2.683  0.0616 -0.0733  0.0685
12637W        W28106  16.521   5.297   0.624 -0.0816  0.1452  0.1867
12638W        W28107  16.961  10.847  14.682  0.0571 -0.4108  0.0934
12639W        W28108  12.993  13.910   4.208  0.0447  0.1085  0.2277
12640W        W28109  12.324  13.373   1.224 -0.1706  0.4014 -0.1770
12641W        W28110   3.460  16.432   3.015  0.1651  0.1794 -0.1770
12642W        W28111   7.913   2.547  15.979 -0.2465  0.0715 -0.0286
12643W        W28112   7.208  14.482  12.908 -0.0020  0.0278  0.0918
12644W        W28113   5.476   5.556   2.792 -0.0134 -0.1766 -0.2562
12645W        W28114   6.357  11.536  12.532 -0.1931 -0.1432 -0.0014
12646W        W28115  10.088  14.432   5.583 -0.1552 -0.1470 -0.0981
12647W        W28116  12.407   8.650   2.366  0.1679 -0.3331 -0.1800
12648W        W28117   3.657   6.941  10.650 -0.1377  0.1375 -0.1321
12649W        W28118   0.304   6.618  13.793 -0.3310  0.1411 -0.0301
12650W        W28119  13.052  10.520   3.885 -0.1612 -0.2881 -0.0860
12651W        W28120   6.811   2.385  11.082 -0.1884  0.1603  0.3382
12652W        W28121   0.816   5.726  14.942  0.0584  0.1110 -0.0899
12653W        W28122   0.800   7.280   2.790 -0.1786 -0.2011  0.1436
12654W        W28123  11.612   4.575   5.490 -0.0355 -0.0216  0.0541
12655W        W28124  10.479   5.104   2.313  0.1150 -0.0784  0.2596
12656W        W28125  14.892  13.552  15.011 -0.0569  0.0537 -0.0734
12657W        W28126  17.371  12.373   3.536 -0.3333  0.3315  0.1673
12658W        W28127  17.959  13.824   5.387 -0.0293 -0.0337  0.0045
12659W        W28128  13.618   8.592  12.383  0.1526  0.1418 -0.0198
12660W        W28129   8.288   2.135   4.471 -0.2174  0.2000  0.0727
12661W        W28130  11.402  16.287   3.677 -0.0356  0.0231  0.0903
12662W        W28131  10.172   2.030  16.010 -0.0728 -0.1514  0.0803
12663W        W28132  18.022  11.670   4.983  0.2074  0.0958  0.0361
12664W        W28133   8.026   1.128  10.355  0.1495 -0.0172 -0.2637
12665W        W28134   5.172   0.628  13.202  0.0210  0.0180 -0.1391
12666W        W28135  14.961  17.296  11.421  0.2272 -0.1126 -0.2388
12667W        W28136  14.748   4.206  13.959 -0.1352 -0.1168 -0.1011
12668W        W28137   6.691   8.508  13.675 -0.0564 -0.0944  0.1569
12669W        W28138   1.146   3.317   4.033 -0.2536 -0.2442  0.1675
12670W        W28139   7.302   7.765   0.341  0.2445  0.1161 -0.0820
12671W        W28140   2.582   6.631   0.933 -0.1658  0.1106 -0.2741
12672W        W28141  15.055   4.936   2.672  0.1968  0.3322 -0.3118
12673W        W28142  18.128  13.206   3.484 -0.0199  0.1215 -0.0132
12674W        W28143  11.135  18.161   3.537  0.2307  0.0170  0.0292
12675W        W28144   1.514   8.301  13.658  0.2135 -0.3324  0.1108
12676W        W28145   3.059   7.731   3.867 -0.1431 -0.0718  0.1356
12677W        W28146  14.291   1.906  13.710 -0.1508 -0.0050  0.1063
12678W        W28147   0.574  15.873   5.114 -0.0937  0.0173  0.7593
12679W        W28148   1.329   8.349   5.412  0.0288  0.6489 -0.1433
12680W        W28149   1.174  13.555   2.495 -0.0675  0.2671 -0.1468
12681W        W28150   9.425  12.417   2.606  0.0746  0.0303  0.1649
12682W        W28151  17.782  16.750   5.057 -0.0025 -0.5078 -0.0817
12683W        W28152  16.838   1.862  14.972  0.3200 -0.1603 -0.1434
12684W        W28153   6.621   1.437   3.584 -0.0320  0.0405  0.0698
12685W        W28154   2.138  17.385  14.804  0.1615  0.0375  0.0012
12686W        W28155   1.513  12.186   2.764 -0.0150  0.2007 -0.1611
12687W        W28156  15.557   5.801   2.279  0.1356  0.0112 -0.0405
12688W        W28157   6.518  10.681  10.462 -0.0995 -0.1009  0.1842
12689W        W28158  14.960   0.611   3.817  0.2195  0.3396  0.3289
12690W        W28159  13.992   1.801   6.719 -0.5855 -0.1987 -0.3577
12691W        W28160   1.074  17.831   2.585  0.0665  0.0780 -0.1846
12692W        W28161   1.895  14.142   2.171 -0.1020  0.1630 -0.0471
12693W        W28162   1.068  13.334  10.134 -0.4343  0.2480  0.4140
12694W        W28163  12.431  13.500  14.115  0.0174  0.0633  0.1373
12695W        W28164  15.814  11.088   4.462 -0.0071 -0.1456  0.0404
12696W        W28165   1.233  13.100  11.179  0.1006 -0.0810  0.2791
12697W        W28166   9.254  17.941  16.042 -0.0489 -0.1930 -0.2457
12698W        W28167   3.279  12.164  14.970 -0.1715  0.0147  0.1571
12699W        W28168   6.419   9.805  12.970  0.0341  0.2911 -0.3827
12700W        W28169  11.008   4.927  12.220 -0.1416  0.2863  0.0597
12701W        W28170  12.828  17.177  12.682  0.0555 -0.0767  0.2604
12702W        W28171   2.114  15.218  15.187  0.1748 -0.1146 -0.0464
12703W        W28172  11.315  17.436   1.732 -0.1529 -0.2419  0.3580
12704W        W28173  17.882   5.843   3.967 -0.3335  0.1627  0.0203
12705W        W28174   9.976   9.922  14.481  0.0619 -0.1131 -0.1085
12706W        W28175  16.944  13.920  10.532 -0.0776  0.1057  0.2239
12707W        W28176   0.470  15.213  15.386  0.0368  0.1096  0.2074
12708W        W28177   1.193   5.451   2.877  0.1046 -0.0523 -0.4102
12709W        W28178  13.371   3.338  10.871 -0.0765  0.2698 -0.1312
12710W        W28179  11.734   1.348  12.525  0.1291  0.0277 -0.1729
12711W        W28180   4.682   2.149  15.919 -0.0426 -0.0447 -0.0590
12712W        W28181  15.562   7.040   3.103 -0.3973 -0.0308 -0.3849
12713W        W28182  13.345   8.271   3.897 -0.1244  0.1179  0.0302
12714W        W28183  14.802  11.052   1.638  0.2506  0.0872  0.0893
12715W        W28184   5.853  11.860  14.505  0.0428 -0.1778 -0.0891
12716W        W28185   0.159   2.603  12.475 -0.2811  0.0377 -0.1115
12717W        W28186  13.334  16.334   2.658  0.3154  0.0336  0.0120
12718W        W28187   1.476   8.686   5.770  0.0473 -0.1577 -0.3664
12719W        W28188   8.694  12.333  13.944  0.1564  0.0669  0.0200
12720W        W28189   9.226  13.470  10.715 -0.1237 -0.0364  0.0092
12721W        W28190   5.235  14.711  12.016  0.0336 -0.1897 -0.2095
12722W        W28191   9.112  17.931  13.253  0.2207 -0.0471 -0.0619
12723W        W28192  10.726   7.352   5.382  0.0053 -0.1048 -0.0256
12724W        W28193   5.852   8.779   1.459  0.2827 -0.0391  0.2112
12725W        W28194   1.211   3.748  16.171 -0.1223  0.1840  0.2224
12726W        W28195   8.347  17.878   4.600  0.2666  0.3971 -0.0798
12727W        W28196   7.656  15.120   1.841  0.0196  0.3367  0.0479
12728W        W28197   0.040   1.169  15.279  0.1008 -0.2087 -0.0286
12729W        W28198  17.035  14.021  16.014 -0.1571  0.1332 -0.0360
12730W        W28199   9.939  16.427  11.609 -0.1019 -0.1685 -0.2052
12731W        W28200  14.733   3.734   3.030  0.1395  0.0819  0.1090
12732W        W28201  11.638   0.835  11.922 -0.1045 -0.1402 -0.3167
12733W        W28202  17.564   2.506  12.101 -0.0541 -0.1055  0.1288
12734W        W28203   1.425  11.223  12.916  0.1623 -0.2703  0.2658
12735W        W28204   9.162   8.889   4.533 -0.0974  0.0001 -0.0744
12736W        W28205   0.474   2.818   4.170  0.3245  0.1999  0.4407
12737W        W28206  12.771   8.328  10.684 -0.0450  0.0228  0.2099
12738W        W28207   2.371   9.269   3.074 -0.2019  0.2188 -0.0974
12739W        W28208  14.977   5.434   3.555  0.2871  0.2921 -0.1618
12740W        W28209   6.059  15.443  15.111  0.0651 -0.1161  0.2787
12741W        W28210  10.906   8.413  14.064  0.0853 -0.2133  0.0211
12742W        W28211   6.831   8.045  15.313  0.2884 -0.0576 -0.1001
12743W        W28212  17.487   0.767   4.148 -0.4718 -0.0123 -0.0666
12744W        W28213   4.604   7.315   2.163 -0.3799 -0.0286 -0.1522
12745W        W28214   2.578   2.771  12.411  0.4276 -0.1310 -0.2275
12746W        W28215   5.308   8.087   2.329 -0.3287  0.1881  0.1356
12747W        W28216  12.687   5.284  10.693 -0.1569 -0.2846 -0.0644
12748W        W28217   1.182  10.752   1.468  0.1078  0.4112 -0.0458
12749W        W28218   6.340  12.641   4.058  0.1996 -0.2181  0.0068
12750W        W28219   1.662   2.410   0.677  0.1345 -0.0022  0.0677
12751W        W28220  13.375  15.533   0.241 -0.2551 -0.2675  0.0299
12752W        W28221  12.670  13.514   2.300 -0.3406 -0.0172 -0.0293
12753W        W28222   3.064   8.996   1.724 -0.0428  0.1236 -0.1897
12754W        W28223   9.905  14.281  12.720 -0.0045  0.1205 -0.0498
12755W        W28224   2.665  14.841   0.519  0.1911  0.1544 -0.3123
12756W        W28225   3.963   1.759   5.031 -0.1154 -0.0360  0.2968
12757W        W28226   9.208  12.148   4.548  0.1764  0.0912  0.2196
12758W        W28227   3.504  14.963   1.634  0.0927 -0.3163  0.1702
12759W        W28228   3.773  15.239  12.728  0.1818  0.0295 -0.1616
12760W        W28229   4.120   4.900   5.521 -0.2994 -0.1343  0.2147
12761W        W28230   3.940   4.443   4.315 -0.0665 -0.2828  0.1433
12762W        W28231   4.587   4.768  12.857  0.1053  0.1657  0.1382
12763W        W28232   3.807   7.464  11.783  0.1263 -0.2703  0.2518
12764W        W28233  15.489   0.165   0.881 -0.1069 -0.0833 -0.1995
12765W        W28234   2.641  16.477   3.347  0.0159 -0.2793 -0.0380
12766W        W28235   0.222   8.622   5.920  0.1992  0.1297 -0.1941
12767W        W28236  12.666  10.222  13.628  0.0299 -0.1036 -0.3512
12768W        W28237  17.589   9.106   1.867  0.0213 -0.3699 -0.0661
12769W        W28238   5.585   7.319   5.520  0.1587 -0.0310 -0.0073
12770W        W28239   5.199   7.138   3.650  0.1625 -0.4022  0.3127
12771W        W28240  14.800   0.703  14.922 -0.1632 -0.1490  0.2249
12772W        W28241  10.722  14.323   1.375 -0.0905 -0.2327 -0.2788
12773W        W28242   6.644   7.620  15.568 -0.4017 -0.1050 -0.0076
12774W        W28243  16.860   3.977  10.672 -0.1974  0.3285 -0.1666
12775W        W28244   9.107  11.766   4.264  0.0931  0.0954  0.2759
12776W        W28245   1.980  10.633   0.190 -0.0795 -0.0313 -0.1186
12777W        W28246   2.078  13.886   0.180  0.2278 -0.0269 -0.0386
12778W        W28247   6.152   4.682   3.633  0.4446 -0.0278 -0.1085
12779W        W28248  10.144   3.571  14.658 -0.1448  0.1226 -0.3120
12780W        W28249  11.164  13.190  11.876 -0.0066  0.0048 -0.1118
12781W        W28250  11.716   3.032  11.164  0.3394  0.1178  0.1336
12782W        W28251  10.973   2.156  13.042 -0.1969 -0.2053  0.0196
12783W        W28252  15.856  14.049  14.323 -0.2530 -0.2566 -0.0834
12784W        W28253  10.083   1.670   1.123  0.1066  0.0505  0.1154
12785W        W28254  13.631  10.593   0.867  0.1918 -0.0503  0.0075
12786W        W28255  13.361  10.312  11.137 -0.4254 -0.0560  0.0538
12787W        W28256  17.686   9.809   2.304 -0.0861  0.2369 -0.0448
12788W        W28257  11.196   5.704  12.530  0.0784 -0.0852 -0.1549
12789W        W28258  16.175   3.003  12.572  0.2812 -0.1988 -0.0804
12790W        W28259   1.591   4.425   2.152 -0.0035  0.1956  0.0132
12791W        W28260  14.054   2.974   9.903 -0.1116  0.1493 -0.2641
12792W        W28261   5.964   5.628   5.080  0.2252  0.2523  0.2533
12793W        W28262   0.751  18.208   0.910  0.0263  0.3229  0.2162
12794W        W28263  10.602  10.080  13.657 -0.2841 -0.3000 -0.1882
12795W        W28264   0.449   8.506   4.339 -0.1057  0.1814  0.2622
12796W        W28265   1.365   8.622   1.565  0.1036  0.2180 -0.3098
12797W        W28266  15.417  11.672  10.591 -0.2535  0.0342  0.0312
12798W        W28267   3.861   4.546  11.298 -0.3447  0.0173 -0.2156
12799W        W28268   6.735  11.651   1.405 -0.1610 -0.1971  0.2387
12800W        W28269  13.711  12.530   0.065 -0.0081 -0.3643 -0.0643
12801W        W28270   3.710   2.143   4.371 -0.1068  0.1122 -0.0739
12802W        W28271   2.885   0.013   5.065  0.0154  0.0501  0.1133
12803W        W28272  16.477  11.184   2.360  0.0996 -0.2271 -0.2862
12804W        W28273   7.496  16.453   2.654 -0.0979 -0.1831 -0.0014
12805W        W28274   4.405   7.854  12.157 -0.0509  0.0068 -0.1499
12806W        W28275   7.555   8.498   3.858  0.2464  0.0437  0.2334
12807W        W28276   0.612   5.819  12.463 -0.1635 -0.1273 -0.1760
12808W        W28277   9.285   2.519  12.887  0.0176  0.0533 -0.0829
12809W        W28278   6.528   8.983   1.553 -0.1780 -0.1384  0.2928
12810W        W28279  10.368  17.030   1.845 -0.1294  0.0153 -0.1058
12811W        W28280   4.332   1.277  15.050 -0.0472 -0.1656 -0.2491
12812W        W28281   0.012  13.190   1.188 -0.2623  0.0433 -0.0676
12813W        W28282  13.542  16.747   2.418  0.0747  0.1997 -0.3548
12814W        W28283   5.190   8.512  12.618  0.0118  0.0034  0.1902
12815W        W28284   5.427  14.977   4.148  0.0546  0.2020 -0.0094
12816W        W28285   6.005   0.548  11.180  0.0252  0.2768  0.3302
12817W        W28286   0.726   9.827   4.574  0.5018  0.1637 -0.0229
12818W        W28287   4.210  13.915  12.141 -0.3084 -0.1812 -0.0105
12819W        W28288  18.014   7.898  12.798  0.0654  0.0699 -0.1550
12820W        W28289  11.490   1.276   2.104 -0.1241  0.4398 -0.2132
12821W        W28290   1.952   8.463  13.756  0.0672  0.0552 -0.2411
12822W        W28291  13.856   4.276   4.748 -0.0462  0.0112  0.1628
12823W        W28292  10.779   6.279   0.993 -0.3342  0.0609  0.2046
12824W        W28293   5.850   4.897  15.617  0.0038 -0.0215  0.2620
12825W        W28294  14.385  13.504  15.136  0.2274 -0.2470 -0.1910
12826W        W28295  12.298   2.594  13.150  0.0847  0.0113 -0.0064
12827W        W28296  13.734  17.473  15.485  0.0563 -0.2181 -0.1460
12828W        W28297   0.899   4.612  14.303 -0.0313 -0.0215 -0.2135
12829W        W28298  14.457   8.503   2.101 -0.1427 -0.1172  0.2864
12830W        W28299   6.166  10.740  10.776  0.5838 -0.1981 -0.0053
12831W        W28300   8.160   3.501  12.495  0.1866  0.0009 -0.2204
12832W        W28301  16.555   4.176   1.147  0.0289 -0.1367 -0.2238
12833W        W28302   9.542  17.451   1.688  0.0420 -0.0082  0.1456
12834W        W28303  15.447   7.821   0.483 -0.0245  0.3562 -0.0548
12835W        W28304   4.823   4.347   0.981 -0.0073  0.1849  0.4743
12836W        W28305  17.145   5.098  12.109  0.1028  0.1865  0.0831
12837W        W28306   4.506   5.230   2.413 -0.2141  0.0259 -0.0101
12838W        W28307  10.410  18.158   0.313  0.0616 -0.0020  0.0921
12839W        W28308   0.071  15.462   1.878  0.1145  0.1076  0.1607
12840W        W28309   3.566   3.761  12.194  0.2127 -0.0417  0.1207
12841W        W28310   6.565  13.585   4.077  0.0507 -0.1681 -0.1008
12842W        W28311  11.112   0.560   1.591  0.2775 -0.3783 -0.1804
12843W        W28312   3.608  16.979   4.253  0.0472  0.0059  0.0080
12844W        W28313  16.827  16.693  13.475  0.2278 -0.1191  0.1087
12845W        W28314  18.278  15.389   0.999 -0.0507 -0.2472  0.1083
12846W        W28315   7.953   2.563  14.728 -0.3023 -0.0901 -0.0250
12847W        W28316  13.680   9.665  15.370  0.5230  0.1221 -0.0181
12848W        W28317  15.980   5.672   5.146  0.1216  0.1981  0.1299
12849W        W28318  17.756   4.560  15.506  0.0998 -0.0377 -0.3079
12850W        W28319  15.458  11.199   0.784  0.2118  0.1194 -0.1367
12851W        W28320  11.814   4.694   1.414 -0.0298 -0.1396  0.0452
12852W        W28321   3.435   5.708  14.603 -0.0493  0.0540 -0.0366
12853W        W28322  17.858  15.192  11.276  0.0287  0.1348 -0.1995
12854W        W28323  14.443  11.396  14.239 -0.2302 -0.0170 -0.0364
12855W        W28324   7.754  17.565  12.353  0.0812 -0.0587 -0.2539
12856W        W28325   8.213  16.213   4.953 -0.2350 -0.0153 -0.1010
12857W        W28326  11.410   8.078   5.555 -0.0300 -0.0291  0.0292
12858W        W28327   3.792  11.083  15.978 -0.0406  0.0536 -0.2620
12859W        W28328  15.776  15.126  12.701  0.1595 -0.0646 -0.0312
12860W        W28329  15.616   8.620  15.119 -0.1101  0.1385 -0.1233
12861W        W28330  12.140   0.043   3.705  0.0827 -0.2187 -0.0995
12862W        W28331   6.110  12.706  13.458  0.3761 -0.0128  0.0188
12863W        W28332   1.756   5.985  14.696  0.2195  0.1254  0.1129
12864W        W28333   2.981   0.899  16.007  0.1356  0.0341 -0.2543
12865W        W28334   2.674   9.443   1.095  0.1881  0.0692 -0.2756
12866W        W28335  16.669   8.011  12.464 -0.0726 -0.2459 -0.0251
12867W        W28336  10.290  13.079  14.805  0.0124  0.4217 -0.0077
12868W        W28337   1.894  17.637  13.435 -0.0043 -0.1074  0.0025
12869W        W28338   2.771   6.039   5.253  0.0300 -0.2954 -0.0644
12870W        W28339  18.288   9.334   4.282 -0.1896 -0.1361  0.2632
12871W        W28340  12.889  13.358  13.833 -0.1498 -0.0874  0.2121
12872W        W28341  16.054   5.143  14.586 -0.0029  0.1888  0.1769
12873W        W28342  14.815   3.198   1.255 -0.2900 -0.2116  0.0707
12874W        W28343   9.520  14.466  13.164  0.1114  0.1595 -0.1279
12875W        W28344   1.115   7.495  10.871  0.3727 -0.0922  0.0216
12876W        W28345  12.815   1.870  13.257  0.1208 -0.0696 -0.0988
12877W        W28346   4.982   3.430   5.211 -0.2535 -0.3244 -0.5617
12878W        W28347  12.058  10.432   4.368  0.1599 -0.1525  0.4285
12879W        W28348   9.024   6.701  15.583 -0.0949  0.1200  0.0327
12880W        W28349  17.954   2.662  10.858  0.1475  0.2341  0.2535
12881W        W28350  18.244   5.841  10.849 -0.0421  0.0720  0.2301
12882W        W28351  12.032   4.499  10.538 -0.1761 -0.1150  0.1320
12883W        W28352   2.676  15.449   2.560  0.3306 -0.2226  0.2119
12884W        W28353   2.502   0.957  15.847 -0.4485  0.0851  0.5510
12885W        W28354   9.330  11.144  15.166  0.0238  0.3658  0.0096
12886W        W28355   4.214  13.974  14.804  0.0303  0.0391  0.0643
12887W        W28356   3.153   8.381  11.024 -0.0974  0.0847 -0.1037
12888W        W28357  10.533   9.770   5.661  0.0767 -0.1427 -0.0710
12889W        W28358   8.737   4.323  15.551 -0.1227  0.2931  0.0222
12890W        W28359  10.480  16.545   2.294 -0.1134 -0.0752  0.3246
12891W        W28360  14.794  17.207   5.558 -0.0801  0.3303 -0.2594
12892W        W28361  16.640   5.328   1.740  0.0130  0.0392  0.0605
12893W        W28362   5.593   3.133  11.990 -0.4384  0.1954  0.0550
12894W        W28363   3.511  15.995   3.421  0.2469 -0.1379 -0.3469
12895W        W28364   4.129   8.854  15.809 -0.2201 -0.3255 -0.2820
12896W        W28365   2.242   4.547   4.551 -0.1383 -0.1426  0.0927
12897W        W28366   9.902  11.424  13.396 -0.1742 -0.1391 -0.2408
12898W        W28367  10.869  11.648  11.841  0.0326  0.0112  0.2690
12899W        W28368  14.427   5.780   0.407  0.1654  0.0546  0.2650
12900W        W28369   5.796   8.591  11.308  0.2785  0.1326  0.0173
12901W        W28370  16.093   0.281   3.187 -0.1010 -0.0593 -0.0989
12902W        W28371   0.070  16.997   3.986 -0.2053 -0.1802 -0.1013
12903W        W28372   1.222   1.501  13.127 -0.0999  0.3363  0.1586
12904W        W28373  10.478  15.495   4.013  0.0190 -0.2008  0.1757
12905W        W28374   5.023  15.667  10.901 -0.2711  0.2871 -0.3081
12906W        W28375   7.779   2.979   5.577  0.2614 -0.2454  0.0042
12907W        W28376  13.256   2.822   0.758 -0.0746 -0.2356  0.0647
12908W        W28377   3.318  12.030  11.006 -0.1097 -0.0510  0.2310
12909W        W28378   9.855   6.855  16.036  0.1746 -0.0419 -0.2651
12910W        W28379   3.003   3.045  16.007  0.1681 -0.1951 -0.0345
12911W        W28380   7.732  12.411  12.044 -0.0708  0.2833  0.0942
12912W        W28381  11.107  14.177  12.151  0.0701 -0.0847 -0.1138
12913W        W28382   2.428   5.502   2.144  0.0755 -0.2590 -0.1772
12914W        W28383   7.294   0.111   3.637 -0.1561 -0.0991  0.3121
12915W        W28384   1.467   4.456   4.035  0.1792 -0.3828 -0.0424
12916W        W28385   4.226  14.505  12.959 -0.1836 -0.0850 -0.1697
12917W        W28386   5.468   7.017   4.898  0.0003 -0.0009  0.0817
12918W        W28387   0.470   7.549   0.960 -0.1797 -0.2330 -0.4498
12919W        W28388   1.627  12.790  12.947 -0.1443  0.0049  0.0975
12920W        W28389  17.043  14.657   3.292 -0.3333 -0.0242  0.0403
12921W        W28390  12.742  10.144   3.989 -0.0631 -0.0244  0.1983
12922W        W28391   2.189   1.369   4.565 -0.2247 -0.1891  0.1166
12923W        W28392   4.957   1.200   5.270  0.2084  0.0405  0.0700
12924W        W28393  14.209  13.777  15.614 -0.3179 -0.0251 -0.1663
12925W        W28394   0.697  11.083   5.557 -0.5297 -0.1291  0.1973
12926W        W28395   4.408   7.780  13.554  0.1008 -0.0260 -0.1045
12927W        W28396  17.378   2.508   0.396  0.1713 -0.2261 -0.2005
12928W        W28397  10.160   6.172   3.470 -0.2476  0.0223 -0.1422
12929W        W28398   0.014   1.703   0.416 -0.0137  0.0057 -0.0552
12930W        W28399   9.096   9.544   3.913 -0.4761  0.2061 -0.1626
12931W        W28400   7.814   4.451  13.942  0.1083  0.2922  0.0541
12932W        W28401   5.467   9.386  14.565 -0.0211  0.2388  0.2174
12933W        W28402   6.488  13.714  15.192  0.1260  0.0702 -0.0047
12934W        W28403  16.044  17.116  13.450 -0.3948 -0.0794  0.0843
12935W        W28404   8.397  13.326  14.780 -0.0608  0.2422 -0.1155
12936W        W28405   1.433   3.684   5.500 -0.0423 -0.0963 -0.2401
12937W        W28406   0.039  12.844  11.392 -0.2113 -0.0193 -0.2079
12938W        W28407   5.994   8.948  12.406 -0.2302  0.1772 -0.4520
12939W        W28408  10.758  13.551  13.399  0.1475  0.0731 -0.1794
12940W        W28409  15.073   9.738  15.554 -0.5108 -0.1653 -0.3215
12941W        W28410  16.864  11.619   2.428  0.2654  0.0797  0.1366
12942W        W28411   0.361  15.728   0.898  0.1686 -0.0149  0.0032
12943W        W28412   3.320   9.636  11.460  0.1575 -0.0094  0.1293
12944W        W28413  12.232  14.084  15.864  0.1299  0.1478 -0.3765
12945W        W28414   6.044   4.690   0.055  0.0807  0.1841  0.1376
12946W        W28415   6.064  11.005   2.277 -0.0814 -0.0340  0.0516
12947W        W28416  10.892  17.937   3.938 -0.1641  0.1203 -0.0292
12948W        W28417  10.292  15.362   3.416  0.1975 -0.0278  0.2086
12949W        W28418  16.513  14.383  14.999 -0.2509  0.1053 -0.3016
12950W        W28419   2.483   0.141   0.070  0.1434 -0.0788 -0.3531
12951W        W28420  13.823  17.440  16.043 -0.3452 -0.2081 -0.4816
12952W        W28421   1.163   3.008  14.989  0.0790 -0.0879 -0.0817
12953W        W28422  14.505  17.227   2.542  0.3388  0.3891  0.2191
12954W        W28423   0.524  11.024   2.169 -0.2674 -0.0202  0.0924
12955W        W28424  13.564   8.637   5.365 -0.1098  0.0347 -0.2964
12956W        W28425   0.292   2.020   5.208  0.0142  0.2155 -0.1328
12957W        W28426   9.335   0.080  11.225 -0.0505 -0.1382 -0.1329
12958W        W28427   8.819   3.903  15.887 -0.1854 -0.2137  0.1352
12959W        W28428  15.074  15.842   0.930 -0.0779  0.2625  0.0843
12960W        W28429   6.572   7.682   2.441  0.0312  0.0766  0.1338
12961W        W28430   6.904  10.506  14.907 -0.2174  0.1778 -0.0376
12962W        W28431  11.820   8.693   5.009 -0.1646  0.3686  0.1592
12963W        W28432   6.024  11.989   1.456  0.0385  0.1606 -0.3207
12964W        W28433  17.702   7.012  15.942  0.0342 -0.2622  0.1733
12965W        W28434  16.054  15.229   2.941  0.2388  0.2030 -0.0216
12966W        W28435   8.340  17.445   0.075 -0.2024  0.2087  0.3261
12967W        W28436   2.265   6.608  15.279 -0.0779  0.3176 -0.1896
12968W        W28437  17.106  11.530  12.667 -0.0497 -0.2050 -0.3301
12969W        W28438   7.919  15.843   4.823 -0.2539 -0.2840 -0.1335
12970W        W28439  17.852  15.787   1.339  0.0219 -0.3582 -0.2354
12971W        W28440  12.424   5.427  11.137  0.0383 -0.2968 -0.0281
12972W        W28441  14.922  11.388  13.543 -0.0789 -0.0447 -0.3662
12973W        W28442   0.163  11.376   0.479  0.0217 -0.3867  0.3692
12974W        W28443  14.584  16.746  12.111 -0.0463  0.1619  0.1024
12975W        W28444  17.350  10.500   0.854  0.0237  0.0129 -0.3376
12976W        W28445  13.531   3.030  13.086  0.3173  0.2760 -0.0189
12977W        W28446  11.608   8.400   4.390 -0.0432  0.1010  0.1733
12978W        W28447  11.234   7.509   1.596 -0.3285  0.1528  0.1116
12979W        W28448  13.684  13.933  12.832 -0.5128 -0.2085  0.0575
12980W        W28449   2.688   8.311  14.395  0.0061  0.2136 -0.0636
12981W        W28450  14.425   3.223  13.292  0.1575 -0.4391  0.4249
12982W        W28451   6.398  14.074   4.341 -0.1936 -0.0057  0.0903
12983W        W28452  13.500   3.267   2.807  0.5135  0.3862  0.2121
12984W        W28453  13.301  17.520  12.748 -0.3050  0.0620 -0.0970
12985W        W28454   2.860  15.899  14.573 -0.1835  0.1590  0.4502
12986W        W28455  16.941  10.978  15.899 -0.0008 -0.0135 -0.3912
12987W        W28456  16.692   6.875   3.611 -0.0589  0.0428  0.0939
12988W        W28457   4.920   9.250   3.162  0.1327  0.2175 -0.0224
12989W        W28458   8.347  11.736  14.596  0.1351 -0.3097  0.2928
12990W        W28459   3.568   9.590   0.493 -0.0494  0.2211  0.1315
12991W        W28460   3.078  13.214  12.868  0.0195 -0.0448 -0.2173
12992W        W28461  18.091  10.326   4.513 -0.1941  0.1534  0.1085
12993W        W28462   6.767  13.745   2.135  0.0718  0.3769  0.2638
12994W        W28463   1.861  10.832  10.728  0.0444  0.3854 -0.2954
12995W        W28464  12.285  14.530  14.400  0.3549 -0.2514  0.3418
12996W        W28465   5.994   6.342   2.087 -0.1239  0.1175  0.1951
12997W        W28466   3.712  13.380  11.997 -0.1460 -0.1352 -0.0976
12998W        W28467  14.273   1.614   3.025  0.0485 -0.1867 -0.1474
12999W        W28468  18.111  14.030   2.901 -0.3682 -0.2353  0.1261
13000W        W28469   4.840  11.541   0.077 -0.1282 -0.2461  0.0724
13001W        W28470   2.533  12.225   2.643 -0.0367  0.0345  0.2993
13002W        W28471   7.709   2.474  12.363 -0.0477  0.0191 -0.1046
13003W        W28472   7.837  13.789  13.298  0.0076  0.1223 -0.2052
13004W        W28473  17.532  15.539  14.635 -0.1464  0.0002 -0.1844
13005W        W28474   2.975   9.041   5.610  0.0468 -0.2072 -0.0858
13006W        W28475  14.467  14.122   5.069  0.1707  0.1515  0.1970
13007W        W28476  13.969   2.178  14.810  0.2154 -0.0065 -0.1312
13008W        W28477  12.624   4.262   2.664 -0.0185 -0.0296  0.0625
13009W        W28478   2.551  14.393  15.102 -0.0000 -0.1088 -0.2762
13010W        W28479  15.855  13.107  14.175 -0.1261  0.1032  0.1795
13011W        W28480   1.866  10.884   0.736 -0.0176 -0.0687 -0.0860
13012W        W28481   5.467   9.023   2.471 -0.1995  0.1117  0.2458
13013W        W28482   0.988   3.997  11.869 -0.1631  0.5110 -0.1692
13014W        W28483  16.683   4.880  12.287  0.1626 -0.2270  0.0491
13015W        W28484   6.815   8.541   1.969 -0.1949  0.0450  0.0375
13016W        W28485  14.393   8.515   0.149  0.3904 -0.1795  0.3759
13017W        W28486  12.705  10.397   2.511 -0.1668  0.0628 -0.0761
13018W        W28487  15.858   9.426   4.438 -0.0169 -0.4081  0.1519
13019W        W28488   9.278   9.522   0.578 -0.2944 -0.0691 -0.1426
13020W        W28489   3.975  11.688   4.568  0.0834  0.0687  0.1105
13021W        W28490   8.395  10.640   1.104  0.1372  0.3139 -0.1102
13022W        W28491  13.796   4.974  13.691 -0.2986 -0.0846 -0.0859
13023W        W28492   4.836   1.813  14.352 -0.1066  0.2360  0.1267
13024W        W28493  17.021   2.731  16.148 -0.1074  0.3449  0.2425
13025W        W28494  15.375   2.659  13.819 -0.0582  0.3314  0.0157
13026W        W28495  12.730   9.985  13.164  0.0827  0.1838  0.0816
13027W        W28496   8.346  12.817  13.814 -0.2617  0.2512 -0.1252
13028W        W28497   8.430  15.859   4.634  0.1589  0.0814  0.0310
13029W        W28498   3.240   4.295   2.512  0.0290 -0.4223 -0.1087
13030W        W28499   8.073   4.721  12.742  0.1505 -0.1242 -0.0835
13031W        W28500  13.897  13.813   4.422  0.2701 -0.0988  0.0876
13032W        W28501   9.997   0.156   3.774 -0.0428 -0.1564  0.1199
13033W        W28502  12.492   2.763   0.060 -0.0854  0.2334  0.1778
13034W        W28503  12.025   5.332  13.765 -0.0427 -0.1409  0.2244
13035W        W28504   8.237  13.453   1.121  0.1060  0.2399  0.0246
13036W        W28505   8.171   9.398  14.335 -0.0706 -0.0572  0.2573
13037W        W28506  15.540   1.281   1.912 -0.1926 -0.0204  0.0806
13038W        W28507  13.188  16.798  15.990  0.0747  0.3269 -0.0431
13039W        W28508  13.209  10.540   3.210 -0.3974 -0.2086  0.0759
13040W        W28509   6.411   3.649  14.727 -0.2991  0.3020 -0.0101
13041W        W28510  14.248   8.398  14.222  0.0504  0.0915  0.3478
13042W        W28511  17.627  17.340  14.578 -0.6116  0.0525  0.0860
13043W        W28512  14.892  16.724  14.307  0.0317 -0.0215  0.0896
13044W        W28513   0.782  13.698   4.535  0.0592 -0.0391 -0.2065
13045W        W28514   8.959  13.688   1.869  0.0956 -0.2765 -0.1860
13046W        W28515  17.654   9.943   3.685  0.0721  0.0250  0.0294
13047W        W28516  10.391  13.333  13.009 -0.0923 -0.3420  0.1901
13048W        W28517   5.262  15.529   2.098 -0.0679  0.1085 -0.3389
13049W        W28518  12.912   2.580  10.650 -0.2095  0.3962 -0.2101
13050W        W28519   0.574  14.897  13.274  0.0619 -0.0749  0.1023
13051W        W28520   1.540  15.826   0.307 -0.2322  0.1471 -0.1479
13052W        W28521   9.993   5.357   1.530  0.1010  0.1420 -0.0801
13053W        W28522  15.979   8.233   4.662 -0.2100  0.1116 -0.0858
13054W        W28523   4.475   0.353   2.835 -0.2629  0.0338 -0.1193
13055W        W28524  15.027  10.274   5.246 -0.3189 -0.1031  0.0135
13056W        W28525  15.863  13.247   3.073  0.2047 -0.1671  0.2226
13057W        W28526   5.668  15.511  11.838 -0.2794 -0.2921  0.1164
13058W        W28527   4.521   0.866   1.854  0.0521  0.2628 -0.0777
13059W        W28528   8.064  10.465   0.171  0.0348 -0.2084 -0.1960
13060W        W28529   4.083   7.988  12.631 -0.0062  0.1873  0.0220
13061W        W28530   3.310  14.584  12.888  0.1794 -0.1866 -0.2827
13062W        W28531  17.199   3.713  10.940  0.0985 -0.2494  0.0580
13063W        W28532  10.001  18.134   3.312 -0.0417  0.3916  0.0256
13064W        W28533   5.121  12.422  12.480 -0.0619  0.1348 -0.2319
13065W        W28534  13.105  16.790   3.777  0.3258  0.0028  0.1893
13066W        W28535   1.761  10.377   4.893 -0.2461 -0.0629  0.1405
13067W        W28536  17.355  13.477   0.683  0.1074 -0.2989 -0.2283
13068W        W28537  17.635   3.869   0.078  0.1150  0.2188 -0.1148
13069W        W28538  12.492   1.215  14.843 -0.0543  0.1092 -0.2732
13070W        W28539  15.873  12.918   4.978  0.0350  0.1344 -0.0113
13071W        W28540  18.236   2.730   3.926  0.2281 -0.0777 -0.0215
13072W        W28541   8.303  14.060  15.576  0.1463 -0.2540 -0.1629
13073W        W28542   2.197   2.156  15.069  0.2086 -0.2381  0.0254
13074W        W28543   2.112   8.225   1.169  0.1134  0.0276  0.2927
13075W        W28544  13.570  15.808   5.696 -0.0575 -0.0829  0.0638
13076W        W28545  17.343   8.549   5.020  0.0243 -0.3433 -0.0967
13077W        W28546  12.691   1.936   5.280  0.2690 -0.1569 -0.2176
13078W        W28547   9.664  13.231   1.376  0.1310  0.3881 -0.0373
13079W        W28548  12.380  13.493   6.007 -0.1156  0.2779  0.1727
13080W        W28549   1.926   4.710   1.979  0.2854  0.0853  0.0473
13081W        W28550  11.862   3.198  15.545 -0.1975 -0.1608 -0.3005
13082W        W28551   2.893  14.522   2.099 -0.1171 -0.0449  0.1449
13083W        W28552   7.390   8.946  11.181 -0.0047 -0.2383 -0.2050
13084W        W28553   2.295   7.451  11.577 -0.1720 -0.1062  0.0544
13085W        W28554  16.360   8.740  10.925  0.1003 -0.0686  0.0408
13086W        W28555   1.892  16.254   0.534  0.2233  0.2333 -0.0522
13087W        W28556  10.493   5.857  14.939  0.0271 -0.3597 -0.1511
13088W        W28557  10.783   9.898  15.034  0.1609 -0.0079 -0.1219
13089W        W28558  10.671  15.557  13.603 -0.0779  0.1458 -0.1220
13090W        W28559  12.839  11.105   3.387  0.1916  0.0738 -0.1146
13091W        W28560   9.337   9.846  11.883  0.2231  0.0662  0.4127
13092W        W28561  12.831   5.713  11.569 -0.1635  0.2851 -0.0776
13093W        W28562   4.824   6.904  14.958 -0.0291 -0.0939 -0.1754
13094W        W28563   0.943  16.174  14.832 -0.2700 -0.0752  0.1006
13095W        W28564  14.565  16.745   5.737 -0.1863  0.5119  0.0281
13096W        W28565   2.125   3.977  13.447  0.2154 -0.3830  0.1734
13097W        W28566  13.004   7.456  12.359 -0.2688 -0.2429 -0.1045
13098W        W28567  15.734  12.126   1.082 -0.1620 -0.0978 -0.1673
13099W        W28568  13.135  16.935   1.152 -0.1553 -0.3347  0.0494
13100W        W28569   4.410  15.971  12.664 -0.2276  0.0445  0.4340
13101W        W28570   8.785   4.719  13.963 -0.1244 -0.1446 -0.1967
13102W        W28571  10.945  15.162   2.902 -0.0416  0.0359  0.0375
13103W        W28572   5.176   1.084   0.786 -0.0470  0.3026 -0.3903
13104W        W28573   2.964   7.257   6.066  0.1002  0.0423  0.1026
13105W        W28574  10.575   7.126   0.328  0.0632  0.3578  0.1686
13106W        W28575  11.841   8.040   2.070  0.2253  0.0248  0.3010
13107W        W28576  15.779  10.582   2.495  0.2357  0.0747 -0.4717
13108W        W28577  16.723   1.810  12.029 -0.0305 -0.0873 -0.2408
13109W        W28578  13.805  15.342   3.249 -0.0826 -0.0186 -0.1349
13110W        W28579  15.220   4.470   4.103 -0.0469  0.4685 -0.6212
13111W        W28580  15.742  16.126  13.486  0.2393  0.2996 -0.1405
13112W        W28581   5.650   7.185   4.486  0.1242 -0.0996 -0.1175
13113W        W28582  18.276   8.572   6.369 -0.0263 -0.4409  0.2584
13114W        W28583   6.837   1.845   1.760  0.1109  0.3104 -0.0397
13115W        W28584  16.852   6.718  11.311 -0.2660 -0.0869  0.1323
13116W        W28585   8.014   4.683   0.690  0.0426  0.0113  0.0436
13117W        W28586  18.079   7.109   1.032  0.1502  0.3647 -0.2571
13118W        W28587   6.474  12.737  14.584  0.1298 -0.0929 -0.3441
13119W        W28588  15.863   1.376   2.288 -0.1255  0.3058  0.4845
13120W        W28589   8.786   8.119   2.946  0.2541 -0.1166  0.0233
13121W        W28590  15.977   8.262  14.475 -0.0991  0.1892 -0.0775
13122W        W28591   1.310  10.255  12.860 -0.1921 -0.0244  0.2500
13123W        W28592  16.023   9.365   2.002 -0.0524  0.2307  0.0901
13124W        W28593   4.454  14.106  13.769  0.0007  0.2132 -0.1105
13125W        W28594  14.904  14.229  14.768  0.0235 -0.2172 -0.0004
13126W        W28595   2.004   7.383   3.952  0.0495  0.2906  0.1657
13127W        W28596   9.511   2.647   2.257  0.2392  0.0506  0.2559
13128W        W28597  16.868   0.286  12.215 -0.1996  0.2576  0.0932
13129W        W28598   7.644  16.698   5.388  0.1089 -0.0816 -0.1947
13130W        W28599  13.299   4.486   4.759  0.1202  0.0711  0.3761
13131W        W28600  13.453   4.117  15.538  0.4420 -0.1496 -0.3185
13132W        W28601  11.985  12.196  15.415 -0.1000 -0.3359 -0.2310
13133W        W28602   2.785  15.949  10.767 -0.0114  0.0469  0.3215
13134W        W28603   2.006  14.666   2.828  0.1669  0.2700  0.0665
13135W        W28604   3.992  18.231   0.659 -0.0407  0.4135  0.1833
13136W        W28605  17.947   8.668  15.777  0.0552 -0.0470 -0.0436
13137W        W28606   8.117  10.303  14.599 -0.2548  0.0634  0.0226
13138W        W28607   6.239  10.427   2.510 -0.2032 -0.0735  0.1918
13139W        W28608  15.385   0.120   4.576  0.4540 -0.2290  0.1220
13140W        W28609   0.312  12.600  12.501  0.2192 -0.0708 -0.0745
13141W        W28610   8.859   1.065   1.664  0.3355  0.0338  0.0419
13142W        W28611  16.547  10.024  11.495 -0.0804  0.2405  0.0429
13143W        W28612  12.776  11.411   2.374 -0.0777  0.1784  0.2997
13144W        W28613  12.039   1.727  14.449 -0.1110  0.0246 -0.0527
13145W        W28614   3.066  14.983   1.872 -0.0801 -0.2515 -0.1590
13146W        W28615  13.831  12.036  15.930 -0.1704  0.2281 -0.1818
13147W        W28616  10.127   6.444  11.772 -0.1772  0.3389  0.0524
13148W        W28617   5.915  17.124  11.494  0.3100 -0.0636  0.2226
13149W        W28618   1.672  16.270  12.064  0.3272 -0.0240 -0.0290
13150W        W28619   6.103  17.557   4.502  0.1964  0.2073  0.0735
13151W        W28620  16.030   2.766  10.879 -0.0425  0.1625  0.1075
13152W        W28621  17.411  11.084  14.109  0.0152 -0.0069  0.0972
13153W        W28622  15.446   2.280   3.629  0.1709  0.3341  0.2452
13154W        W28623   0.322  13.058   5.986  0.0490 -0.2034  0.1597
13155W        W28624   8.400   9.748   1.088 -0.1655  0.0827  0.1343
13156W        W28625   1.883   9.689   4.541 -0.2578  0.0411  0.0506
13157W        W28626   4.785   4.753   4.614 -0.2385 -0.0941 -0.1178
13158W        W28627  11.353  11.707   1.408  0.0245  0.0728 -0.0638
13159W        W28628  11.035   0.483  11.427  0.0519  0.1673 -0.1960
13160W        W28629  17.857   6.917  14.817  0.1193  0.2670 -0.1900
13161W        W28630  17.189  11.255   2.443  0.1394 -0.0228  0.1606
13162W        W28631  10.300  17.718   2.515  0.0995  0.2848  0.0744
13163W        W28632  15.903  12.482   4.642  0.0316  0.0085 -0.0128
13164W        W28633   8.657  14.346   5.024 -0.0235  0.0364  0.0086
13165W        W28634   3.380   1.585   1.376 -0.1399  0.0299  0.1248
13166W        W28635   8.501  12.621   3.825  0.1418  0.0272  0.0804
13167W        W28636   2.771  17.885   0.756  0.0493  0.2867  0.2650
13168W        W28637  15.993   6.417  11.449  0.0486 -0.0055  0.2377
13169W        W28638   0.076  15.091   5.753 -0.1086 -0.0563  0.2775
13170W        W28639  12.209   7.781  12.267  0.1275 -0.1067 -0.3797
13171W        W28640   5.804  10.649  15.184  0.0699 -0.2123 -0.1436
13172W        W28641   2.943   7.291  14.326 -0.0601  0.0145 -0.2115
13173W        W28642  12.490   0.369  12.926 -0.0498  0.0348  0.0437
13174W        W28643   0.504  12.555   5.867 -0.0819 -0.1372 -0.0181
13175W        W28644  14.774  14.343   3.510  0.0780  0.1129 -0.2551
13176W        W28645   0.557   7.881   4.318  0.1767  0.0030  0.0810
13177W        W28646   7.121   8.670  11.727  0.0209  0.1904 -0.0914
13178W        W28647   7.940   7.195   4.865 -0.0721  0.0050  0.2222
13179W        W28648  15.066   3.767   3.492 -0.0070  0.1712  0.4024
13180W        W28649  17.062  17.671  11.551  0.2513  0.0508 -0.0273
13181W        W28650  10.106  11.352   4.728 -0.0855 -0.1222  0.2603
13182W        W28651  15.772  10.373  15.342  0.1647  0.0250  0.1200
13183W        W28652   1.814   5.050   0.252 -0.0030 -0.4225  0.3913
13184W        W28653   8.626  10.173   0.956 -0.0496 -0.1031  0.1828
13185W        W28654  15.557   3.480   2.522  0.0885 -0.0512  0.1740
13186W        W28655  16.357  11.564  14.741  0.0993 -0.1005 -0.4599
13187W        W28656   5.004   8.839   1.365  0.1089  0.1149 -0.1698
13188W        W28657   9.241  11.260  13.464 -0.1143 -0.0419  0.0746
13189W        W28658   9.039   8.186   1.458 -0.2807 -0.0885 -0.0537
13190W        W28659   6.895   0.251   3.238  0.1176  0.0372  0.3098
13191W        W28660  15.407   1.001   3.082  0.1358  0.2796  0.0566
13192W        W28661   8.863  10.000   5.984  0.0095  0.0697 -0.3066
13193W        W28662   2.629   3.255   2.547 -0.0736  0.0682 -0.1238
13194W        W28663  13.737   5.429  11.486 -0.2271 -0.1596  0.1751
13195W        W28664  17.114  17.343  12.347  0.1987 -0.1530 -0.4724
13196W        W28665   5.586  11.475  14.516  0.1440 -0.2845  0.4549
13197W        W28666  13.088   9.807  15.917 -0.0309 -0.2611 -0.0004
13198W        W28667  11.214   7.593   4.669 -0.1639  0.1080  0.1277
13199W        W28668  11.849  16.685   5.149  0.3412 -0.0738 -0.1668
13200W        W28669  10.345   5.608   2.041 -0.3159  0.1818 -0.0743
13201W        W28670   3.273  17.158  12.634 -0.1665  0.0597 -0.2113
13202W        W28671  16.114   2.150  13.850  0.3563  0.1188 -0.0126
13203W        W28672  17.223  12.526  16.002  0.1077  0.2415 -0.1474
13204W        W28673   0.842   4.072  15.954  0.2767  0.2711 -0.3835
13205W        W28674   1.671  17.730  14.386 -0.0790 -0.0037  0.0005
13206W        W28675  16.362  16.449  11.652 -0.0649  0.1243 -0.2760
13207W        W28676   1.176  10.990  12.581  0.0152 -0.0281  0.0390
13208W        W28677   1.436  13.382   5.058  0.2966 -0.3368 -0.3059
13209W        W28678   3.410  17.950  11.400 -0.4085  0.0246  0.3381
13210W        W28679  14.810   5.472  12.361 -0.1704  0.2380 -0.1676
13211W        W28680   8.106   1.456   3.601 -0.0039 -0.2321  0.1216
13212W        W28681   6.554   3.795   3.786  0.1099 -0.1596  0.0703
13213W        W28682   8.302   4.971   5.616 -0.1534  0.2662  0.3624
13214W        W28683  11.419  14.620   0.985  0.1144  0.0260 -0.2839
13215W        W28684  12.210   8.823   3.244 -0.1177 -0.1475  0.2395
13216W        W28685   2.133  14.232   2.647 -0.0313  0.3747 -0.0805
13217W        W28686   7.939  15.710  11.529  0.1443 -0.1710  0.1240
13218W        W28687   8.130   6.276   3.397  0.0679 -0.0185  0.0920
13219W        W28688  10.675   6.485  15.994 -0.1256 -0.1163  0.1070
13220W        W28689  10.485   0.102  12.294  0.1026  0.4489 -0.0604
13221W        W28690   0.145  10.309  12.003 -0.1610 -0.0986 -0.3664
13222W        W28691  17.219  13.682   2.755 -0.1632 -0.0168  0.2617
13223W        W28692   7.646   4.936  11.229 -0.1111  0.1010 -0.0630
13224W        W28693  15.056   4.500  14.164 -0.0000 -0.0952 -0.0532
13225W        W28694   1.290  12.993  12.518 -0.2958  0.0679 -0.0399
13226W        W28695  10.648  10.553  14.275  0.2123  0.0364  0.1587
13227W        W28696  17.819   4.945   2.364  0.0417  0.1647  0.0778
13228W        W28697  11.444  16.774   3.746  0.2624 -0.0287  0.0420
13229W        W28698  11.429   2.648   3.269  0.1116  0.1101 -0.0593
13230W        W28699  12.132  15.216  13.594 -0.0870  0.3775  0.0935
13231W        W28700  17.613  18.236   5.056 -0.0326 -0.2052 -0.0014
13232W        W28701  18.075   5.165   5.693 -0.0753 -0.0517 -0.1555
13233W        W28702  13.471   4.631  10.684  0.0215  0.1671 -0.0572
13234W        W28703  17.797  14.976  13.295  0.0710  0.0991 -0.2479
13235W        W28704   8.957   9.133  12.643  0.0705 -0.1119  0.0885
13236W        W28705  10.564  14.331  13.408  0.1728 -0.0161 -0.1993
13237W        W28706  11.391   9.249   4.377 -0.2706  0.1296  0.0081
13238W        W28707   4.506   0.975   3.971 -0.2033  0.1595  0.1085
13239W        W28708   5.529  11.257  15.040  0.1038 -0.0456 -0.0514
13240W        W28709   4.458  13.879   5.186  0.3327 -0.5054  0.3234
13241W        W28710  13.317  13.658   5.256 -0.1810 -0.0544 -0.1344
13242W        W28711   1.200  12.376  11.894 -0.1639 -0.0317  0.1182
13243W        W28712   6.009   1.438  15.830 -0.1460 -0.2618  0.1821
13244W        W28713   1.993  18.110  15.584  0.0923  0.0129 -0.0698
13245W        W28714   8.772   3.109  13.285 -0.2352 -0.1254  0.0257
13246W        W28715  15.047   5.794   3.157 -0.0525 -0.2216 -0.0436
13247W        W28716  17.728   2.641   3.116  0.2119  0.0082  0.3973
13248W        W28717  18.089   4.202   2.686 -0.1339  0.0387  0.0120
13249W        W28718  14.968   4.836   3.217  0.3549  0.0556  0.2876
13250W        W28719   7.535  16.394   3.621 -0.0606 -0.0465  0.2288
13251W        W28720  10.818   7.563   0.458 -0.0922  0.2037  0.0248
13252W        W28721   4.585   6.700   2.089  0.0998  0.2064  0.2097
13253W        W28722  13.496  16.253  15.729  0.0194  0.0990  0.2033
13254W        W28723   9.275  12.179  14.945 -0.3382  0.1473  0.2127
13255W        W28724  12.724   7.005   0.592  0.0618 -0.1796  0.2269
13256W        W28725  15.994   7.247  15.038  0.0229  0.2033 -0.0143
13257W        W28726   0.579   7.921  13.606  0.0630 -0.0860  0.1080
13258W        W28727   2.687  15.318  10.716  0.1186 -0.0514 -0.1741
13259W        W28728   9.594   4.656  14.236 -0.1812 -0.0540  0.1904
13260W        W28729   4.789   4.993   0.190 -0.2492 -0.0345  0.1127
13261W        W28730   3.384  10.288  15.935 -0.0405 -0.1026 -0.0076
13262W        W28731  16.772   0.807   5.174  0.1693 -0.0780  0.1102
13263W        W28732   5.701   0.496   5.501  0.0667 -0.2558  0.1621
13264W        W28733  12.742   0.991   1.216 -0.1836 -0.0933  0.1387
13265W        W28734   2.915   3.643   3.292 -0.0254 -0.0737  0.0752
13266W        W28735   5.897   0.069  16.175 -0.2119 -0.2556  0.3331
13267W        W28736   5.604  11.212   2.936 -0.2080 -0.1066 -0.3060
13268W        W28737  14.338   6.571  11.419 -0.1178 -0.3214 -0.3909
13269W        W28738  11.444   9.174   0.962 -0.2154 -0.2809 -0.1627
13270W        W28739  12.598   8.135   4.897  0.1305 -0.5418  0.1199
13271W        W28740   7.026   4.877  14.649 -0.1212  0.0605  0.2823
13272W        W28741   3.331  14.803   1.191 -0.0863 -0.0711 -0.0258
13273W        W28742   7.513   4.698  14.318  0.2763  0.0308 -0.3390
13274W        W28743   8.201  17.878   5.145 -0.2511 -0.0014  0.1567
13275W        W28744   4.528   6.572   1.199  0.0710  0.3670 -0.1444
13276W        W28745   8.239   5.284   1.229 -0.4812  0.2839 -0.1204
13277W        W28746   8.954   4.510   4.212  0.1706  0.0237 -0.0070
13278W        W28747  14.440  14.510   3.190 -0.0964 -0.1180 -0.1288
13279W        W28748   3.638  18.264  11.739 -0.1228  0.1066 -0.4505
13280W        W28749   5.932  15.154   4.816 -0.0324  0.1239  0.0240
13281W        W28750  10.523   7.600   1.622  0.0030  0.0373 -0.0074
13282W        W28751   6.552  13.874   4.806 -0.1918  0.2749 -0.2688
13283W        W28752  12.214   6.117   4.446 -0.1854  0.1895  0.0754
13284W        W28753   9.965   4.389   3.834  0.2205  0.1715  0.2510
13285W        W28754   5.313  11.607  11.904 -0.0543  0.0972  0.0418
13286W        W28755   4.050   5.268  10.841 -0.2693  0.2949 -0.1796
13287W        W28756  12.529   0.058  10.172  0.4584  0.0793  0.3618
13288W        W28757  13.287   7.583   0.467 -0.3384 -0.0072  0.0208
13289W        W28758  17.361  10.575  12.694  0.2215  0.0302 -0.2424
13290W        W28759   8.222  16.982  15.302 -0.1902  0.0131  0.0062
13291W        W28760   9.965  13.114  15.702  0.0839 -0.1168 -0.0953
13292W        W28761  13.553  16.304   5.599  0.4965 -0.2562 -0.2374
13293W        W28762  14.538   6.507  12.407  0.1560  0.3629  0.1713
13294W        W28763  10.259   7.545   2.063  0.0901 -0.1366 -0.0777
13295W        W28764   2.936   5.123   1.365 -0.0474 -0.3806  0.1798
13296W        W28765  17.257   8.349  14.238 -0.3389  0.0957 -0.0442
13297W        W28766   0.066   0.395   1.372 -0.1038  0.1832 -0.0148
13298W        W28767  16.587   0.629   1.438 -0.2127  0.0163 -0.2731
13299W        W28768  12.024  11.638   4.453  0.0315  0.1779 -0.0939
13300W        W28769   0.457   3.638   1.673  0.2688 -0.1088 -0.1118
13301W        W28770   6.427   6.737  13.272 -0.0452 -0.2595 -0.1936
13302W        W28771   7.467  16.349  13.727 -0.0461  0.0577  0.1466
13303W        W28772  18.272  14.491   3.597  0.0511 -0.1035  0.0813
13304W        W28773  14.023  17.110  15.677  0.0517  0.1328  0.2363
13305W        W28774   1.449   0.576  12.628  0.0296 -0.2626  0.1988
13306W        W28775   3.695  15.531  14.845 -0.0379 -0.0404 -0.0918
13307W        W28776   3.399  11.842   0.841 -0.0961  0.2351 -0.0621
13308W        W28777   5.359  17.766   3.096 -0.0995 -0.0420  0.0689
13309W        W28778  18.206   0.053   3.481  0.2741  0.1640 -0.1315
13310W        W28779  15.158  13.173  11.652  0.2265  0.1099  0.4756
13311W        W28780   6.858   7.240  14.105 -0.0540 -0.1056  0.0163
13312W        W28781  13.882  16.060   4.272  0.0063 -0.0124  0.0919
13313W        W28782  12.107   2.538   2.141  0.0682  0.1313  0.1276
13314W        W28783   7.152   9.781  10.902  0.0286  0.0487  0.0056
13315W        W28784   9.400   4.766  15.280 -0.4054 -0.0771  0.0855
13316W        W28785  10.576  14.791   1.184  0.1047  0.2421 -0.3063
13317W        W28786   7.164  11.653  15.888 -0.1379  0.5102  0.0796
13318W        W28787   7.022   6.591   1.297 -0.2451 -0.0666  0.0983
13319W        W28788  15.218  10.323   0.853 -0.1834 -0.1004 -0.0719
13320W        W28789  17.139  14.313  13.308  0.5445 -0.0900  0.2576
13321W        W28790  16.263  10.577   3.408  0.2501  0.0228  0.2533
13322W        W28791   9.008  11.294   2.192 -0.2035  0.1343  0.1004
13323W        W28792   0.025  17.631   2.982  0.0942  0.0016  0.3525
13324W        W28793   8.677  12.302  14.968 -0.2043 -0.1833 -0.1753
13325W        W28794   7.982  12.786  14.567 -0.0644 -0.2203  0.1317
13326W        W28795  17.053   5.543   4.928  0.1132  0.1875 -0.3624
13327W        W28796   8.160  11.373   3.304  0.3266 -0.2198  0.0439
13328W        W28797   9.460  13.008  14.517 -0.1799  0.2873 -0.0080
13329W        W28798   3.376  12.947   0.452 -0.0602 -0.1086 -0.0521
13330W        W28799   4.364   2.942   1.853 -0.2591  0.1455 -0.0505
13331W        W28800   4.262   0.161  13.080  0.4006  0.1746  0.1421
13332W        W28801  11.068  15.970   3.393 -0.0798 -0.0844  0.2691
13333W        W28802   6.382   8.099  13.257  0.0290 -0.1267 -0.3900
13334W        W28803  13.043  16.666   4.766  0.1772  0.1015 -0.1044
13335W        W28804   8.983   2.080  15.020  0.1728  0.0364 -0.0271
13336W        W28805  17.740  10.524   3.772  0.0040  0.1932 -0.2591
13337W        W28806   3.356  13.560   4.409  0.1642 -0.3337  0.0452
13338W        W28807   9.051  12.956   0.214 -0.3077 -0.1230 -0.2339
13339W        W28808  14.788   5.879   2.327 -0.1139  0.3489  0.3131
13340W        W28809   1.206  18.101   0.707  0.1311  0.0650 -0.5374
13341W        W28810   8.572   4.006   2.890 -0.2108 -0.4523 -0.0054
13342W        W28811   8.176   0.405  12.689 -0.0509 -0.0482  0.1150
13343W        W28812  14.190   7.394  11.177 -0.0761  0.2931 -0.0391
13344W        W28813   2.282  12.986  11.013 -0.0468  0.0582 -0.1101
13345W        W28814  14.115   9.541  15.711 -0.1858 -0.2149 -0.1144
13346W        W28815   8.320  13.130   2.832 -0.2186  0.0666  0.4804
13347W        W28816  14.721   7.728  11.883 -0.2502 -0.0765 -0.1871
13348W        W28817  12.816   6.709   4.480 -0.0716 -0.0177  0.1035
13349W        W28818   6.250  11.496  12.043 -0.3573 -0.0703  0.1027
13350W        W28819   3.222  17.121   0.236 -0.0097 -0.2795  0.1518
13351W        W28820  13.697  18.141  11.706 -0.0714  0.3535 -0.1978
13352W        W28821  12.573   0.074  10.681 -0.1480 -0.0214 -0.0319
13353W        W28822  11.107  11.626   3.733 -0.1384 -0.1500  0.1737
13354W        W28823   1.643   2.656   2.485  0.1427  0.0396 -0.0386
13355W        W28824  14.847  15.298  15.049  0.2249 -0.0482 -0.1130
13356W        W28825   5.264  16.911  12.943  0.3243  0.1087  0.0868
13357W        W28826  16.586  13.320  15.378  0.0905  0.3406 -0.2711
13358W        W28827  10.355  13.797  10.370  0.0265  0.0241  0.2255
13359W        W28828   1.298  17.340  12.819  0.1098  0.1559 -0.1830
13360W        W28829   0.502  16.956  13.697 -0.3005  0.1581 -0.0743
13361W        W28830  16.203  12.922   1.013 -0.0274 -0.0681  0.0167
13362W        W28831  13.571   1.285   3.626  0.0142 -0.0016  0.2032
13363W        W28832   9.677   6.027  14.675  0.1680  0.0935 -0.1789
13364W        W28833  17.550   7.312   2.191  0.3085  0.3809 -0.1502
13365W        W28834  14.049   4.301  12.121  0.3473 -0.0873  0.0967
13366W        W28835   6.692   4.998  15.015  0.0027 -0.1865 -0.0909
13367W        W28836  18.259  11.648   4.576 -0.4074  0.2618 -0.0718
13368W        W28837   0.473  12.107  15.052 -0.4080 -0.2078  0.0051
13369W        W28838   9.017  11.793   2.208 -0.2229 -0.3939  0.2407
13370W        W28839   3.743   9.639  13.431  0.0759 -0.0651 -0.2232
13371W        W28840  15.571   1.842  15.418 -0.0330 -0.1118 -0.2012
13372W        W28841   4.521   5.724  13.440  0.0261 -0.0784  0.1033
13373W        W28842   6.978  13.376  11.223 -0.1319  0.0920  0.1707
13374W        W28843   5.790  13.644   2.655  0.0990 -0.0550 -0.0049
13375W        W28844   5.116   6.480  14.082 -0.2324  0.0770  0.2503
13376W        W28845  15.792   0.998   3.371  0.0323 -0.1654  0.3812
13377W        W28846   4.107  12.210  15.858  0.3389  0.0808 -0.1746
13378W        W28847  11.350  14.353  15.388 -0.4269  0.0844  0.2098
13379W        W28848   7.874  14.873  11.576  0.0760 -0.0268  0.0600
13380W        W28849  11.172   2.431  13.752 -0.1801 -0.1904  0.1908
13381W        W28850  17.784   7.801  13.865  0.1228 -0.0635  0.1486
13382W        W28851  15.061   6.021   1.085 -0.0151 -0.0168  0.1458
13383W        W28852  11.025   7.709   5.537  0.0704 -0.1959 -0.3110
13384W        W28853  12.632   1.538   2.378  0.3313 -0.3050  0.1777
13385W        W28854  17.576   5.995  16.049 -0.2317 -0.1259 -0.2504
13386W        W28855   3.383  13.404  11.284 -0.1571  0.0209 -0.0492
13387W        W28856   4.238   3.567  10.330 -0.3232  0.0229  0.1643
13388W        W28857   4.135  10.153   2.223  0.1359 -0.0827  0.0310
13389W        W28858  14.617   9.112   3.259 -0.0603  0.2255  0.1140
13390W        W28859   3.580   8.099  15.755  0.1465  0.3208  0.0189
13391W        W28860  17.047   0.724   3.338  0.0449  0.1212 -0.3017
13392W        W28861   8.034   5.136  15.417  0.0043 -0.0358 -0.3383
13393W        W28862  11.500   1.111  14.843  0.3831  0.0055 -0.0375
13394W        W28863  10.003   0.305   0.035 -0.0048  0.1575  0.0180
13395W        W28864   2.035   0.898  15.584  0.0759  0.2421  0.0484
13396W        W28865   9.572   6.319   2.277 -0.0721  0.1000  0.0794
13397W        W28866   3.913  16.970   2.519 -0.1904 -0.2525 -0.2597
13398W        W28867  12.618   6.198   0.807  0.2708  0.0006 -0.1570
13399W        W28868   0.003  17.621  12.375  0.1175 -0.0061  0.2977
13400W        W28869   5.017   4.739  12.076  0.0954 -0.0084 -0.1944
13401W        W28870  16.044   4.504  13.809  0.1025  0.0133 -0.1643
13402W        W28871  15.044   0.096   1.232 -0.0353  0.0868 -0.0619
13403W        W28872   5.788   5.875   2.174 -0.0302 -0.0311 -0.2132
13404W        W28873   4.685   2.865   0.927 -0.2397  0.3955 -0.1064
13405W        W28874   3.844  11.256  14.429  0.1686 -0.1290  0.0524
13406W        W28875  15.349  16.903  16.067  0.2644 -0.1422 -0.2818
13407W        W28876  17.193   5.605   0.028  0.0479  0.0136 -0.0035
13408W        W28877   5.868   0.905  11.500 -0.1858 -0.0569 -0.0283
13409W        W28878   8.661  15.552  15.225  0.3434 -0.0635  0.0459
13410W        W28879  15.380   6.827   0.564 -0.2473  0.1254 -0.0473
13411W        W28880  16.480  15.621   5.172  0.2128  0.0614 -0.0558
13412W        W28881   2.089  13.090   0.765  0.2707 -0.0874  0.1464
13413W        W28882   4.472  10.447   1.258  0.0271  0.0013 -0.0002
13414W        W28883  10.625   2.439   0.782 -0.1281  0.1490 -0.1386
13415W        W28884  14.437   5.000  15.282  0.0854 -0.2033  0.2564
13416W        W28885  10.775   2.608  16.125 -0.5376 -0.0868  0.0533
13417W        W28886   3.615  15.928   4.700 -0.0331 -0.0096  0.0874
13418W        W28887   9.636   0.318   4.312  0.2583 -0.1337  0.2088
13419W        W28888  15.612   7.372  11.972 -0.0326 -0.2338  0.1774
13420W        W28889   8.122  13.536  15.725 -0.0934  0.1135  0.0013
13421W        W28890  13.071  12.122   3.152 -0.2719 -0.3054 -0.0075
13422W        W28891  15.292   9.648  13.229 -0.1380  0.3683  0.1246
13423W        W28892  12.306  17.193  12.872  0.1628 -0.1864 -0.0067
13424W        W28893  18.284   5.565  14.996 -0.3472  0.1489  0.2044
13425W        W28894  14.563  14.887   0.801 -0.0834 -0.0405  0.0089
13426W        W28895   1.544   4.454  12.321  0.1401 -0.1224  0.0566
13427W        W28896  14.809  17.084   4.122 -0.1615 -0.0890 -0.0487
13428W        W28897   8.615  11.948  13.611 -0.2472  0.1315  0.0718
13429W        W28898   6.056  13.233   1.130  0.0291 -0.0885  0.0651
13430W        W28899   5.942  10.647   3.813 -0.2467  0.0690 -0.0769
13431W        W28900  12.204   5.983  16.160 -0.1733  0.0733  0.1256
13432W        W28901   5.005  10.461   5.345 -0.3462 -0.0875 -0.3012
13433W        W28902   2.213  10.731   1.917  0.2307 -0.0198  0.1600
13434W        W28903   7.318   9.962  13.961 -0.1017 -0.3129 -0.2535
13435W        W28904   8.375   6.280   0.116 -0.1139  0.1427  0.0127
13436W        W28905   5.833   9.195  13.518 -0.1432 -0.0954  0.0045
13437W        W28906  16.581   9.220  14.828 -0.1068  0.0912  0.1532
13438W        W28907   0.411   1.002  15.840  0.4173 -0.0232 -0.1720
13439W        W28908  15.852   2.367   1.264 -0.1945 -0.1109  0.4625
13440W        W28909   7.496  11.233  14.070  0.0611 -0.0594  0.1177
13441W        W28910   7.815   8.978   4.585 -0.2029 -0.1887  0.0310
13442W        W28911   7.802   9.634  11.704 -0.1469  0.1038 -0.3960
13443W        W28912  12.150  17.421   2.018 -0.0642  0.0865  0.3376
13444W        W28913   8.485  13.112  13.281 -0.0084  0.0018  0.2134
13445W        W28914   5.251  17.064   0.645  0.0636 -0.1172 -0.1218
13446W        W28915  13.585  15.333   1.609 -0.0210  0.2420  0.2183
13447W        W28916   2.262  13.767   1.035  0.3353  0.1631 -0.0207
13448W        W28917   4.253  17.835  12.371  0.0004 -0.1644 -0.3244
13449W        W28918  13.367  13.754   4.492 -0.3387 -0.0057 -0.3282
13450W        W28919  13.723  17.997  15.789  0.2030  0.2056 -0.1067
13451W        W28920  14.761   3.554  12.915  0.1445  0.2345 -0.0444
13452W        W28921   7.375  15.049   3.382 -0.0240  0.2297 -0.2211
13453W        W28922   6.537   7.123  13.684 -0.2567 -0.1916 -0.0698
13454W        W28923   4.946   8.453   1.034 -0.1600 -0.0046  0.1280
13455W        W28924   7.463   3.967   3.969 -0.2465 -0.3183 -0.0559
13456W        W28925   6.641   2.213  13.476 -0.1267 -0.0985 -0.0215
13457W        W28926   0.964   4.819   4.289  0.0334  0.0212 -0.0737
13458W        W28927  16.565   5.554  14.547  0.0563 -0.0838  0.0363
13459W        W28928   5.850   9.328   6.151  0.0758 -0.0913 -0.0814
13460W        W28929  15.982   2.045   3.491  0.0811  0.1576  0.0003
13461W        W28930   9.998   8.634  13.535  0.0156  0.0101 -0.5481
13462W        W28931  14.908   6.745   0.375 -0.0392  0.0651 -0.4302
13463W        W28932  11.359   1.243  11.553 -0.0225 -0.0303  0.0924
13464W        W28933   6.321   5.047  15.465 -0.1304  0.1890  0.0760
13465W        W28934  15.602  12.430  11.944 -0.3982 -0.2292  0.2159
13466W        W28935   6.060  16.617   4.209  0.0402  0.1915 -0.0598
13467W        W28936  16.139  17.226  14.662 -0.2389  0.2238 -0.1725
13468W        W28937   7.614  10.351  15.508 -0.1142  0.2221  0.1484
13469W        W28938   9.547   8.475   3.905  0.0920 -0.4287 -0.1286
13470W        W28939  17.554   6.309   2.202  0.1694  0.1120 -0.1637
13471W        W28940   2.365  15.358  16.039 -0.2491  0.0117 -0.2835
13472W        W28941   8.052   3.793  10.348 -0.0889 -0.0424  0.2955
13473W        W28942   9.734   3.305  11.863  0.2329  0.0214 -0.0492
13474W        W28943  12.726   3.305   5.465 -0.0762  0.2472 -0.0836
13475W        W28944  16.497   8.712   2.853  0.1781  0.0172 -0.0716
13476W        W28945   5.319  15.729  14.415  0.0237 -0.0838 -0.1457
13477W        W28946   2.408   1.006  11.868  0.1123 -0.0484  0.0469
13478W        W28947  15.223  16.741  12.936 -0.0999 -0.1637 -0.0496
13479W        W28948  15.074   0.177   0.646 -0.0327  0.1636 -0.0744
13480W        W28949   4.676   3.316   0.656  0.1578  0.0688 -0.1215
13481W        W28950   9.195   9.556   1.094 -0.4943  0.1853 -0.3274
13482W        W28951  17.710  15.778  15.458  0.1881 -0.0767 -0.1238
13483W        W28952   8.578  12.141   3.621 -0.0551 -0.1537 -0.3396
13484W        W28953  15.235   9.107   1.528  0.0944  0.1346  0.2240
13485W        W28954  14.996   2.813  11.754 -0.2788  0.1128  0.2117
13486W        W28955   7.027  10.917   5.930 -0.1445 -0.1770 -0.2229
13487W        W28956   6.244  14.122   2.127  0.0542  0.2199  0.2599
13488W        W28957   9.290  15.092   0.865  0.1876 -0.5254  0.1720
13489W        W28958  11.674   4.925   3.403 -0.2127  0.0386 -0.1187
13490W        W28959   2.644   3.375  11.784 -0.0964  0.1220  0.1474
13491W        W28960   2.954  14.239  13.919  0.2333 -0.0533 -0.1887
13492W        W28961   2.774   4.241  12.783  0.1326 -0.1420 -0.0182
13493W        W28962  15.524   2.061   4.066 -0.0166 -0.2875  0.0818
13494W        W28963  11.193   8.484  11.474 -0.0157 -0.2766  0.0344
13495W        W28964   3.498   4.356   2.918 -0.0547 -0.3353  0.0151
13496W        W28965   2.951   2.976  13.395 -0.0066  0.2108  0.1249
13497W        W28966  14.588  13.293   3.342  0.2362  0.3568 -0.0553
13498W        W28967   2.963   5.957  13.810 -0.1427  0.0974  0.2798
13499W        W28968  13.791  14.192   1.619 -0.0019  0.1496  0.0695
13500W        W28969  13.874  10.769   1.328 -0.0827 -0.1517  0.2908
13501W        W28970   6.594  17.670  10.340  0.2007 -0.1675  0.1071
13502W        W28971   7.046  17.416  14.813  0.1852 -0.1453  0.1983
13503W        W28972   4.885   3.072   4.867 -0.2001  0.0134 -0.0595
13504W        W28973   1.917   3.818  12.993  0.0555  0.2517 -0.0118
13505W        W28974  12.614  15.373   0.793  0.0853  0.0931 -0.1935
13506W        W28975  10.716   5.699  16.117 -0.2449  0.1133  0.2419
13507W        W28976  12.879   0.831   0.255 -0.1262  0.1948 -0.1910
13508W        W28977  15.873   4.839  12.636 -0.0452  0.2458  0.2375
13509W        W28978  12.587   6.368   4.766 -0.4084  0.0061 -0.1625
13510W        W28979   0.890  10.772   2.438  0.0857  0.0924  0.0090
13511W        W28980  11.059  11.642   5.097 -0.0867 -0.0139  0.0473
13512W        W28981  14.836  16.684   4.971 -0.4632  0.3540  0.0167
13513W        W28982   5.468   1.380   3.382 -0.1879  0.1131  0.6470
13514W        W28983  10.358  12.673   1.454  0.2332  0.0499 -0.1965
13515W        W28984  10.013   7.068  14.638 -0.2122 -0.0926 -0.0778
13516W        W28985   9.904  13.001  11.997 -0.2424  0.3009 -0.1349
13517W        W28986   9.213   6.138   3.148  0.2560 -0.0354  0.0903
13518W        W28987  14.240  14.307   6.023  0.0323 -0.0332 -0.1330
13519W        W28988  10.988   8.986  14.250 -0.0280  0.2857 -0.1043
13520W        W28989  14.011  16.896   2.260 -0.1315 -0.1574 -0.0655
13521W        W28990  12.179   5.705  15.078  0.0067 -0.0566  0.0246
13522W        W28991   4.685   9.511  12.126 -0.3317  0.1201  0.2137
13523W        W28992   8.279   1.965  14.091  0.0488  0.0991 -0.0640
13524W        W28993   6.425   7.141  14.268 -0.0061  0.0231 -0.0419
13525W        W28994  12.920  12.690   5.027 -0.0930  0.0239 -0.1623
13526W        W28995  13.316   2.140   2.191 -0.1268  0.3060 -0.0409
13527W        W28996  10.875   4.890   1.048 -0.2215  0.1987 -0.0228
13528W        W28997  12.755   0.623   0.824 -0.2514 -0.0782  0.0636
13529W        W28998  18.054  10.698   3.284  0.2930 -0.0942 -0.1815
13530W        W28999  14.277   8.103   1.372  0.0076  0.1840  0.0558
13531W        W29000  11.176  15.080  13.773  0.0926 -0.1709  0.0898
13532W        W29001   8.572   8.947  11.082  0.2218 -0.1016  0.1317
13533W        W29002   1.616   3.010  11.821  0.2371 -0.1858 -0.2004
13534W        W29003   0.108  17.213  13.454  0.0724 -0.2160  0.1643
13535W        W29004  15.659  13.742   5.576  0.2017 -0.0335 -0.0475
13536W        W29005   4.640  14.198   5.510  0.3689  0.3119 -0.1968
13537W        W29006  14.131  13.304  16.049 -0.1905 -0.2082 -0.0929
13538W        W29007  14.400  17.260   0.671  0.1038 -0.0283 -0.3387
13539W        W29008  18.176   8.267  16.008 -0.1511  0.4592 -0.3372
13540W        W29009  11.142   8.063   1.999 -0.0647 -0.0811  0.0849
13541W        W29010  10.033  12.643  10.429  0.0256  0.0972  0.1279
13542W        W29011   4.549  18.189  10.269  0.0935  0.1694  0.0069
13543W        W29012  11.729   7.738  15.672  0.1988 -0.0414 -0.1973
13544W        W29013  15.858   1.605   3.206 -0.0099  0.2386  0.1298
13545W        W29014  17.738  13.371   4.988 -0.1557  0.2402  0.2241
13546W        W29015  11.412   6.973  13.121 -0.1825  0.0173 -0.1766
13547W        W29016  17.615  15.791   5.086  0.1136  0.0827  0.2176
13548W        W29017  10.502   3.896  14.883  0.1065 -0.2023  0.0323
13549W        W29018   4.940   0.678  11.489  0.0298  0.0028  0.0733
13550W        W29019  11.418   4.763  11.605  0.1145 -0.2195 -0.2699
13551W        W29020   8.121  11.203  12.619  0.2650 -0.0126 -0.0287
13552W        W29021  16.118   0.185  14.001 -0.1594 -0.0774  0.1471
13553W        W29022  15.626  14.980   3.480 -0.1523  0.1932  0.0985
13554W        W29023  11.545   1.613   0.644  0.3668 -0.2799  0.2067
13555W        W29024   3.341  18.102   4.435 -0.1069  0.0983 -0.0584
13556W        W29025  11.961   9.384   4.535  0.0871  0.0037 -0.2135
13557W        W29026   2.518   5.667   2.643 -0.2998  0.1171 -0.2497
13558W        W29027  12.161  15.286  15.077 -0.0631 -0.0815  0.1127
13559W        W29028   5.172   7.435   5.059 -0.0042 -0.1450  0.0928
13560W        W29029   2.455   7.665   3.078  0.2420 -0.0967 -0.0150
13561W        W29030   5.632   9.166   4.117 -0.0867  0.2283 -0.1502
13562W        W29031   7.268  17.577  12.427  0.2548  0.1325  0.0580
13563W        W29032  10.657  16.115   3.131  0.0823 -0.1332  0.0818
13564W        W29033   6.366   4.143  10.843 -0.0362  0.1528 -0.0786
13565W        W29034   2.896  10.539  15.063 -0.3083  0.2137 -0.2697
13566W        W29035  14.301  17.105  12.514  0.0056  0.2399  0.1314
13567W        W29036   2.270   7.772   0.891 -0.1598 -0.2919 -0.2676
13568W        W29037   6.863   7.373   0.121 -0.0902  0.1197 -0.0920
13569W        W29038  16.324   9.677   1.196 -0.1141  0.1983  0.1604
13570W        W29039  10.408  14.647  12.543 -0.0105 -0.1210  0.0427
13571W        W29040  15.752  12.539  14.099  0.1451 -0.2905  0.1653
13572W        W29041  10.926   5.107   5.147 -0.2509 -0.0615  0.0372
13573W        W29042   3.517   8.936  15.515 -0.1754 -0.1319  0.1900
13574W        W29043  12.294   1.766   3.696 -0.2976 -0.0695 -0.0229
13575W        W29044   9.078   6.380   2.669  0.4780 -0.1230 -0.0592
13576W        W29045   8.701   8.747  14.199  0.1483 -0.1856  0.0541
13577W        W29046   0.133  13.271  14.675  0.1029 -0.1208 -0.1167
13578W        W29047   8.932   9.838   0.217  0.0083 -0.0263  0.3344
13579W        W29048  11.286   0.677   5.504  0.2068  0.0519 -0.0884
13580W        W29049  18.163   5.398  11.917 -0.1107 -0.0773 -0.1968
13581W        W29050   4.496   0.381   1.124 -0.2580 -0.1683  0.3529
13582W        W29051   4.849  14.345  13.981 -0.1995  0.2252  0.3133
13583W        W29052   0.465   9.417   3.942 -0.1153 -0.2309  0.1128
13584W        W29053   0.705   1.140   5.477  0.1475  0.2819  0.0620
13585W        W29054  14.041  14.462   0.601  0.2563  0.1916  0.1850
13586W        W29055  12.567   8.635   5.585  0.0149 -0.1350  0.1190
13587W        W29056   1.048   0.903  12.216 -0.1211  0.0447  0.2221
13588W        W29057  14.671   8.320  10.325 -0.1174  0.2262 -0.0325
13589W        W29058   1.547  13.009  16.151 -0.1131 -0.3497 -0.1590
13590W        W29059   0.862   1.329   3.873 -0.0004 -0.3032  0.0811
13591W        W29060   1.972  17.203   4.208  0.1955  0.0039 -0.1518
13592W        W29061  13.570   1.431  11.321 -0.1456 -0.1030 -0.0813
13593W        W29062   0.833  10.257   2.243  0.0131 -0.1270 -0.1746
13594W        W29063  17.965   2.320  12.446 -0.0973  0.0215  0.0219
13595W        W29064   9.135   1.442  15.246 -0.2764  0.2351 -0.0647
13596W        W29065   3.647   9.455  14.265  0.0138  0.2229  0.0227
13597W        W29066   5.340   2.526  11.688 -0.4563  0.2757  0.1894
13598W        W29067   2.669  13.695   0.109 -0.0998 -0.0536  0.2479
13599W        W29068  15.764  18.290   3.472  0.0392  0.1149 -0.0245
13600W        W29069   8.751  14.017   3.029 -0.1951 -0.4240  0.2163
13601W        W29070   4.264   3.408  12.981  0.1479  0.2969  0.2300
13602W        W29071   3.720   8.051   3.127 -0.0530  0.0497 -0.0798
13603W        W29072   4.855   7.478   3.732  0.3443  0.4170 -0.0689
13604W        W29073  11.003   1.516   5.550 -0.2218  0.0486 -0.1424
13605W        W29074  10.811   4.741  14.374 -0.0308  0.0882  0.1075
13606W        W29075   8.827  16.656  11.893  0.2347 -0.1169  0.1569
13607W        W29076  13.066   4.861  13.354 -0.3298  0.0061 -0.0637
13608W        W29077  15.131  15.837  13.975  0.0157  0.4989  0.0227
13609W        W29078   9.299   5.897  14.357  0.0130  0.3619 -0.0415
13610W        W29079   7.460   3.838   4.466  0.0561  0.1538  0.2554
13611W        W29080   8.314  11.478  14.160 -0.0492  0.2229 -0.0509
13612W        W29081   0.764   1.708  10.734 -0.0538 -0.0282 -0.1368
13613W        W29082  15.444   2.979   2.464  0.0810  0.2084 -0.2269
13614W        W29083   5.107   7.219   4.546 -0.1336 -0.0549 -0.4077
13615W        W29084  13.964  17.367   4.034  0.0828  0.0058 -0.2134
13616W        W29085  14.229   3.635   5.374  0.3130 -0.0667  0.1992
13617W        W29086  11.287  10.972  11.264  0.1952 -0.0511  0.1291
13618W        W29087   4.486   2.594  15.473 -0.1424  0.0502 -0.2323
13619W        W29088   0.815  15.927  11.567  0.0594 -0.0523 -0.3996
13620W        W29089  15.741   1.400  10.417  0.1616  0.1799  0.0152
13621W        W29090  10.704  16.074  12.610 -0.2742  0.0224  0.1143
13622W        W29091   4.076   1.816  15.893 -0.2675 -0.1385 -0.0579
13623W        W29092   1.629   5.249  12.894 -0.0563 -0.1413  0.1729
13624W        W29093  16.161   0.956  15.492  0.1716 -0.3992  0.0434
13625W        W29094   5.480   6.585  11.902 -0.0217 -0.1249  0.3231
13626W        W29095   8.951   1.899  15.542 -0.1536  0.2220 -0.3945
13627W        W29096  11.603  16.981   5.494 -0.0326  0.0185 -0.0713
13628W        W29097   5.042  18.121  11.736  0.0147 -0.1441  0.1250
13629W        W29098  18.050  10.463  13.999  0.1589 -0.2428  0.1706
13630W        W29099  17.339   6.570   5.526  0.0926  0.1038 -0.0348
13631W        W29100   7.761   5.200   3.393 -0.0227 -0.1328 -0.0449
13632W        W29101   5.745   0.403  14.416 -0.3215 -0.1380  0.2639
13633W        W29102  15.317   0.283   2.559  0.0042  0.0810 -0.5647
13634W        W29103  14.735   8.559   4.480 -0.2043 -0.2273  0.2007
13635W        W29104  11.095   1.333   4.693 -0.2070 -0.3442 -0.0496
13636W        W29105   0.879   5.279   0.613  0.0366 -0.1351 -0.0297
13637W        W29106  14.675   0.681   1.911 -0.2936  0.1361 -0.5723
13638W        W29107  14.592  17.623  13.427  0.0256 -0.1711  0.0008
13639W        W29108   7.390   5.476  11.232  0.1578 -0.1152  0.0006
13640W        W29109  10.225   3.799   0.121 -0.1241  0.3744  0.1135
13641W        W29110   1.662  11.925  13.980  0.3687 -0.0477  0.2383
13642W        W29111  10.234   7.121  13.545 -0.0690 -0.2469 -0.0221
13643W        W29112   1.410   5.005   4.078 -0.0975  0.0713 -0.2616
13644W        W29113  17.183   5.799  15.543 -0.1583  0.1579  0.2063
13645W        W29114  11.587  13.039  14.288  0.2207  0.1571  0.1097
13646W        W29115   8.526  13.971   4.661  0.1459 -0.0087  0.1082
13647W        W29116   9.834   7.506  12.175  0.2897 -0.1304 -0.2139
13648W        W29117  16.055  13.919   0.651 -0.1746 -0.0903 -0.1654
13649W        W29118  11.731  13.710   2.052  0.0496  0.0471  0.0698
13650W        W29119  15.702   2.555  14.745 -0.2114  0.0516  0.0145
13651W        W29120  14.560   1.494  13.445  0.0668 -0.2445 -0.3202
13652W        W29121   3.041  14.583  14.980  0.0345  0.0492 -0.2509
13653W        W29122   0.996   4.100   6.032 -0.0752 -0.1601 -0.0937
13654W        W29123  16.306  11.619  10.939 -0.2990 -0.3904 -0.1977
13655W        W29124   3.870   6.519   3.236 -0.0160 -0.1893 -0.2376
13656W        W29125   0.951   5.877   3.187 -0.0376  0.0125  0.0875
13657W        W29126  12.380  12.930   5.838 -0.4241  0.2607  0.1509
13658W        W29127   1.857  11.211   0.343  0.0335  0.0292 -0.0458
13659W        W29128   1.818  14.397  10.932  0.2126 -0.1727  0.1620
13660W        W29129   9.237   1.542   3.290 -0.0835  0.0439 -0.3019
13661W        W29130   7.713   6.942  12.356  0.1543 -0.2053  0.0194
13662W        W29131  10.307   5.081   1.818  0.0503 -0.2424 -0.1582
13663W        W29132  13.769   4.300  14.304  0.0750  0.4422 -0.0778
13664W        W29133  15.566   8.853  13.772  0.0360 -0.0952 -0.3852
13665W        W29134   1.617  18.133  13.559 -0.1608  0.1932  0.3718
13666W        W29135  13.174   9.034   5.425 -0.1736 -0.0801  0.0083
13667W        W29136  14.386   3.435   4.516  0.4380 -0.0881  0.0581
13668W        W29137   8.152   6.537  11.793 -0.2813  0.2137  0.1482
13669W        W29138   7.453  11.597  15.127 -0.1131  0.1669  0.0901
13670W        W29139   1.774  14.435   0.251 -0.0480  0.0842  0.0377
13671W        W29140   8.662  11.873  12.055 -0.2490  0.1728 -0.1360
13672W        W29141   0.799   4.137  14.468  0.1296  0.1299 -0.4702
13673W        W29142  11.241   6.483   2.078  0.2103  0.0664 -0.0097
13674W        W29143   6.733  16.830   1.354 -0.0016  0.1892  0.0372
13675W        W29144  10.935  16.584   1.763 -0.1149  0.1473 -0.0866
13676W        W29145  12.175  18.165  13.325 -0.0433  0.3509 -0.2944
13677W        W29146   3.524   8.496  14.500  0.0137  0.0182 -0.0287
13678W        W29147   7.924   5.303  13.707  0.1879 -0.0440 -0.2288
13679W        W29148   6.749   7.832   0.201 -0.3492 -0.0751  0.0080
13680W        W29149   5.944  18.164   3.932 -0.3216  0.0161 -0.0830
13681W        W29150  12.636   1.274  15.376 -0.1408 -0.0664  0.1629
13682W        W29151   5.398   6.858   4.186  0.0406 -0.0513  0.1283
13683W        W29152   4.197   0.387   0.741 -0.1968  0.2334  0.0588
13684W        W29153   4.595  17.237  11.756 -0.0023  0.5477 -0.1189
13685W        W29154   2.380   4.448  12.616 -0.2879  0.0918 -0.0658
13686W        W29155  15.584   0.338  11.480  0.1562 -0.0990  0.2051
13687W        W29156   0.914   1.841  13.016  0.1613  0.1397  0.0476
13688W        W29157  16.784   8.720  12.168  0.0768 -0.0064  0.1020
13689W        W29158  17.337   0.095  15.571 -0.5730 -0.0609 -0.1249
13690W        W29159  14.860  16.716   0.184  0.1308  0.1526 -0.0559
13691W        W29160  12.100   4.051   5.990 -0.1481  0.2229 -0.2396
13692W        W29161   1.031  14.268   0.026 -0.2646  0.0301  0.0398
13693W        W29162  13.785   5.011   1.652  0.0461 -0.2156  0.1853
13694W        W29163   6.033  13.715  11.969 -0.1229 -0.3563  0.4108
13695W        W29164   0.925  17.301   1.904  0.1143 -0.1025  0.1101
13696W        W29165  10.045   3.040  15.776 -0.1244 -0.2543 -0.0453
13697W        W29166   2.742   3.353   1.143 -0.3339 -0.1541 -0.0392
13698W        W29167   6.215  16.133  12.783 -0.1968 -0.1438 -0.2116
13699W        W29168  15.958   7.403   5.232 -0.2242  0.0535  0.1705
13700W        W29169   7.681  15.050   2.860 -0.0312 -0.2014 -0.1662
13701W        W29170   1.170   2.337  11.584  0.2354  0.0558 -0.1007
13702W        W29171  15.383   1.700   4.897  0.1801 -0.0099  0.2175
13703W        W29172   7.548   5.482   4.495 -0.1056 -0.0331  0.0137
13704W        W29173   9.708  16.731   0.148 -0.0455  0.1764 -0.3095
13705W        W29174  15.858   4.332   1.195 -0.0831 -0.3186 -0.1818
13706W        W29175  14.400  11.382  12.973  0.0797 -0.0140  0.4527
13707W        W29176   8.035   2.799  15.587 -0.6731 -0.2942  0.0336
13708W        W29177  14.036  14.140   4.788 -0.2220  0.0430 -0.0739
13709W        W29178  11.739   8.083  10.466  0.1774 -0.1971  0.1482
13710W        W29179  16.477   7.158  14.374  0.2308  0.3142  0.2198
13711W        W29180  15.159   5.916   3.665 -0.1239 -0.1841  0.2107
13712W        W29181   0.255   3.881  12.734  0.1823  0.2842  0.2094
13713W        W29182   6.824   0.812   3.287 -0.0455  0.1213  0.1286
13714W        W29183  13.343  11.571  15.986 -0.1592 -0.1726 -0.3782
13715W        W29184  14.050   8.204   0.477  0.1498  0.2273 -0.0745
13716W        W29185   9.464   2.678  10.970  0.0989 -0.1330  0.1249
13717W        W29186  13.712   2.108  14.337 -0.1060  0.0945 -0.1655
13718W        W29187   6.760   6.289   3.426  0.0684 -0.1847 -0.2199
13719W        W29188   8.374   0.675  15.196 -0.1393 -0.0498  0.2192
13720W        W29189  16.246  13.200  14.539 -0.1910  0.3104  0.4462
13721W        W29190   2.030   5.729   2.308  0.2253 -0.0434 -0.1545
13722W        W29191  11.221   9.584   0.830 -0.1610 -0.0773  0.0176
13723W        W29192  17.906  16.956  14.125  0.4351 -0.0778 -0.5629
13724W        W29193   6.865   6.631   3.877  0.3512 -0.0194 -0.2738
13725W        W29194   2.682   4.990  11.915 -0.3145  0.1694 -0.3110
13726W        W29195   5.173  14.879   2.722 -0.5490  0.0155  0.1077
13727W        W29196  16.794   9.466  12.726  0.2732 -0.3726  0.0391
13728W        W29197  14.010   5.573   2.763 -0.0041 -0.0198  0.0150
13729W        W29198   7.145   3.420   4.248 -0.0899  0.0659  0.1843
13730W        W29199   1.042   8.135  13.556 -0.1447  0.1745  0.0865
13731W        W29200  13.608   3.038   3.222 -0.0850 -0.0113  0.1748
13732W        W29201   8.862   9.678   2.304  0.1956 -0.2383  0.4070
13733W        W29202  12.993   0.716  12.848 -0.1859  0.0077  0.0380
13734W        W29203  10.863  18.301  11.307  0.3831  0.1713 -0.1939
13735W        W29204   7.641  12.814  11.675  0.1161  0.0069 -0.0509
13736W        W29205  16.078  15.974  11.172 -0.0036  0.1810  0.0866
13737W        W29206  14.685  17.260  14.317  0.1170  0.3176  0.2694
13738W        W29207   3.145  15.365  12.517 -0.0751  0.1552 -0.1381
13739W        W29208   0.251  11.970   4.070 -0.2223 -0.1566 -0.2463
13740W        W29209  14.894  13.177   2.499 -0.1100 -0.0533 -0.1179
13741W        W29210  11.329   8.021  15.681  0.0056 -0.2266  0.0851
13742W        W29211   1.729   7.662   4.418 -0.3267 -0.1771  0.4862
13743W        W29212   0.339   6.138   1.540 -0.4237  0.0478  0.0923
13744W        W29213   9.790   1.214   0.174  0.0249  0.2891  0.1447
13745W        W29214  10.475   9.013  14.126 -0.0572 -0.2803 -0.1498
13746W        W29215   9.414  15.628  11.639  0.1080  0.3249  0.6423
13747W        W29216   4.704   1.521  11.089 -0.0754 -0.0755 -0.2764
13748W        W29217  17.567   7.003   2.675  0.1085 -0.0470  0.1961
13749W        W29218  12.019  11.666  13.352  0.0407  0.0804 -0.1774
13750W        W29219  10.941  16.498  13.615  0.0357 -0.0956 -0.1070
13751W        W29220  16.799   4.563  12.688  0.0773 -0.0080 -0.0216
13752W        W29221   6.194  15.531   4.181 -0.0236  0.0348  0.2821
13753W        W29222  12.083  16.174  11.756 -0.0705 -0.2358 -0.0835
13754W        W29223   5.418   7.900  11.387  0.1461  0.0031  0.1695
13755W        W29224  17.705  17.637  14.996 -0.0881 -0.2161  0.5699
13756W        W29225   4.278   7.067  14.902  0.1858  0.1174  0.0320
13757W        W29226  14.135  10.535  13.713  0.0340  0.0378 -0.1822
13758W        W29227   8.664   6.954  15.411  0.0348 -0.5101 -0.1171
13759W        W29228  16.946  13.121   2.359 -0.1909  0.0509 -0.1052
13760W        W29229   8.554   9.714  11.427  0.1096 -0.1944  0.0996
13761W        W29230   4.810  10.340  13.610  0.0781  0.3057  0.0637
13762W        W29231  12.513  15.704   3.486 -0.0930  0.1209 -0.2086
13763W        W29232  13.938  15.693   2.373 -0.0480  0.0440  0.1711
13764W        W29233   2.932  15.694   1.574  0.0439 -0.3310 -0.0702
13765W        W29234   7.713  10.609   5.233  0.2106 -0.6644  0.0336
13766W        W29235   0.349   3.084  11.669  0.2831  0.0021 -0.1759
13767W        W29236   4.428  15.912  11.606  0.0331  0.2299  0.0116
13768W        W29237   1.526  14.826   0.065 -0.0331 -0.3706 -0.3218
13769W        W29238   1.165  13.350   3.718  0.2011  0.1165  0.1096
13770W        W29239   1.638  13.993   5.184  0.1860  0.0597  0.0891
13771W        W29240  12.927   1.173   2.729 -0.0857  0.1661  0.2698
13772W        W29241   1.772  17.606  12.863  0.1169  0.0867 -0.3915
13773W        W29242   1.452   5.258   6.097 -0.4438  0.1761 -0.1422
13774W        W29243   6.768   0.080  11.116  0.0098  0.1151 -0.1699
13775W        W29244  14.268   9.696   2.645 -0.0621 -0.0762 -0.1179
13776W        W29245   2.153  13.210  12.831 -0.1343  0.0418 -0.0479
13777W        W29246   6.923  14.355   1.091 -0.0452  0.1432 -0.3867
13778W        W29247  17.663   6.618  13.330 -0.2390 -0.2565  0.0960
13779W        W29248  14.734   2.791   3.898 -0.0925 -0.0537 -0.1517
13780W        W29249   1.419   4.066  13.640 -0.1177  0.0778  0.5431
13781W        W29250   9.720   6.873   3.641 -0.2766 -0.2397  0.2545
13782W        W29251  12.186  11.596   3.127  0.2730 -0.0217 -0.0824
13783W        W29252  10.864   1.805  15.695 -0.2232  0.1612 -0.0111
13784W        W29253   5.739   8.066  15.669 -0.1319 -0.2769  0.0221
13785W        W29254   8.574   6.002  12.402  0.1361  0.1423 -0.2521
13786W        W29255   4.911  15.217  12.223 -0.1543 -0.3386 -0.0322
13787W        W29256  17.709  16.823  12.843  0.0228 -0.0796  0.1693
13788W        W29257   4.762  12.396   0.964 -0.1993 -0.0172  0.1771
13789W        W29258  16.679  15.961  14.454  0.0575  0.1309  0.2093
13790W        W29259   3.337   4.675   6.193  0.0523 -0.1007  0.1755
13791W        W29260  11.545   9.320   4.833  0.2481 -0.3043 -0.2205
13792W        W29261   1.043   5.021   1.396 -0.1426  0.3195  0.4105
13793W        W29262  13.564   4.117   6.017 -0.0059 -0.0492  0.2171
13794W        W29263  17.026   5.218   3.954 -0.1421 -0.1690 -0.2812
13795W        W29264   0.385   3.491   0.352  0.3437  0.0736  0.1933
13796W        W29265  11.997   8.555   2.031  0.1308  0.0438  0.0730
13797W        W29266  10.884  12.824  10.997 -0.2768  0.2036 -0.0510
13798W        W29267   3.071   9.060  13.482 -0.1892 -0.1164 -0.1577
13799W        W29268   3.562   5.233   4.959 -0.0574  0.2877 -0.2376
13800W        W29269  14.603   1.280   5.429 -0.0479  0.1222 -0.0458
13801W        W29270   8.927   0.535  12.366 -0.2319  0.2626 -0.1130
13802W        W29271  10.599   4.065  13.110  0.2068 -0.0552 -0.1212
13803W        W29272   0.313  16.387   2.170  0.3837  0.2480  0.1571
13804W        W29273   5.186   0.935   3.211 -0.2318  0.0282  0.0799
13805W        W29274  14.811  12.936   1.709 -0.1553 -0.1190  0.1873
13806W        W29275  17.593  11.802   3.164 -0.1728 -0.1877  0.1926
13807W        W29276   6.635   2.368  15.212  0.2409  0.0863 -0.0796
13808W        W29277   8.097  12.080  15.855  0.2015  0.1965  0.0499
13809W        W29278   6.533  10.585   0.567 -0.0878  0.0039 -0.0902
13810W        W29279  10.722  10.642  10.431  0.0550 -0.3269 -0.0691
13811W        W29280   9.086  18.291   4.835  0.2554 -0.1533 -0.0430
13812W        W29281   2.980  15.942  11.219 -0.0450  0.0511  0.2001
13813W        W29282   8.759   5.400  11.938  0.0104 -0.1505  0.2633
13814W        W29283  17.039  18.262  12.626  0.0434  0.2309  0.0200
13815W        W29284   6.301  17.399   5.495 -0.0121 -0.1770  0.3271
13816W        W29285   5.951  12.542  10.820 -0.0924 -0.3220 -0.0636
13817W        W29286  10.531  12.980  11.381  0.0539  0.1504  0.0426
13818W        W29287   3.448  12.135  11.466  0.0318 -0.1259 -0.0542
13819W        W29288  11.575   5.557   5.095 -0.0409  0.0336  0.0387
13820W        W29289   4.569   5.238   3.792  0.2885 -0.3777 -0.1835
13821W        W29290   1.079   1.228   3.471  0.1880  0.0100  0.1778
13822W        W29291   0.985   3.731  13.587 -0.2832 -0.2763 -0.0080
13823W        W29292  12.857  10.539   1.885 -0.0349  0.1796 -0.1605
13824W        W29293  12.450  15.235   2.436  0.3218 -0.1109 -0.1360
13825W        W29294   6.063   6.115   3.663  0.1153  0.2487 -0.2493
13826W        W29295   8.828   4.739  15.293  0.1590  0.0822 -0.1696
13827W        W29296   1.480   6.399   2.918 -0.3633 -0.0235  0.1090
13828W        W29297  14.000   4.974   5.110 -0.0497  0.0590 -0.0533
13829W        W29298   8.225   9.224  13.291  0.1418  0.0988 -0.2719
13830W        W29299  13.010  12.799   1.234 -0.0605  0.2374  0.0719
13831W        W29300  17.236   5.678   0.891  0.2518 -0.1828 -0.0981
13832W        W29301  15.299   7.286  13.886 -0.2755 -0.2886  0.2927
13833W        W29302  12.317   9.461   1.270 -0.1500  0.1910  0.0754
13834W        W29303  18.082   3.478   5.088  0.0122  0.3478  0.0761
13835W        W29304   6.424   6.312   5.455 -0.1305 -0.2353  0.0086
13836W        W29305  15.258  12.862   4.293 -0.4605  0.1449 -0.0607
13837W        W29306  17.316   7.460  14.319  0.0116  0.0647 -0.1960
13838W        W29307  14.218   6.445   1.626 -0.2835 -0.0688  0.1625
13839W        W29308   4.440   3.328  15.818 -0.0737 -0.0189 -0.0705
13840W        W29309   0.183   8.172  11.889 -0.1025  0.3371 -0.0810
13841W        W29310   4.091  13.617  11.716 -0.0898  0.2489 -0.1944
13842W        W29311  13.602   8.594  11.760 -0.1511 -0.0756 -0.0642
13843W        W29312  17.173   6.488   5.004 -0.0299  0.0359 -0.2037
13844W        W29313  16.031   6.781  15.165 -0.0392 -0.0496  0.1908
13845W        W29314  13.109  13.644   2.240  0.2732  0.0509  0.0411
13846W        W29315  12.444   4.596  12.045  0.0504 -0.4030  0.1426
13847W        W29316   4.178   1.597   1.406 -0.0570  0.0166  0.1397
13848W        W29317   2.831   2.974  14.169 -0.4132  0.0505  0.1687
13849W        W29318  10.640  16.299  16.105  0.2284  0.3362 -0.2369
13850W        W29319  17.133   1.808   0.011 -0.0856  0.2765  0.3392
13851W        W29320   3.581  12.864  11.208  0.0811 -0.2279 -0.0179
13852W        W29321  17.577   5.523   4.616  0.1414 -0.0273 -0.0920
13853W        W29322   4.432  12.885  14.456  0.0720 -0.1999  0.1263
13854W        W29323  15.069  10.278   4.571  0.1191  0.2792  0.0282
13855W        W29324   3.723   5.971  12.284 -0.0984 -0.1957 -0.0252
13856W        W29325   2.114   0.581   0.316  0.3698  0.1530 -0.0406
13857W        W29326   4.955   1.221  12.791 -0.0300  0.0966  0.0110
13858W        W29327   8.524  13.342  11.572  0.2554 -0.5018  0.1078
13859W        W29328  17.641  14.746  12.453  0.1719  0.1038 -0.0347
13860W        W29329  12.947   0.584  13.962 -0.1054 -0.0229 -0.0060
13861W        W29330   5.729   9.688  13.266 -0.1634 -0.1204  0.1304
13862W        W29331   7.330  14.332  14.469  0.1379 -0.0189  0.0668
13863W        W29332  16.882  16.864   2.377  0.1493  0.0803  0.2132
13864W        W29333   7.250  13.650   4.578 -0.0179  0.0248  0.2374
13865W        W29334   7.070  13.148  12.367  0.2975 -0.2535 -0.0355
13866W        W29335  18.226  11.804   2.471 -0.3297  0.1781  0.0747
13867W        W29336   5.788   9.310   0.628 -0.1436 -0.0223 -0.3237
13868W        W29337   6.980  15.472  15.041 -0.0582  0.0578 -0.0612
13869W        W29338  14.532   9.494   3.563 -0.2491  0.1367 -0.0918
13870W        W29339  15.633   7.659  13.108  0.1761 -0.0443  0.1324
13871W        W29340  12.819  11.219   5.279 -0.0631 -0.1945 -0.1683
13872W        W29341   0.904  17.597  14.886  0.3509  0.1789  0.0023
13873W        W29342   2.905   5.876   1.989 -0.1860 -0.1228 -0.0739
13874W        W29343   7.739  12.499   2.573 -0.0250 -0.2118  0.2291
13875W        W29344  17.980   0.743  15.176 -0.0171 -0.2820 -0.0978
13876W        W29345   1.494  16.076   5.036 -0.1590  0.2417 -0.1373
13877W        W29346   2.086  11.223   1.962  0.1959  0.0307 -0.1294
13878W        W29347  17.822   6.560   1.815  0.1871  0.0721 -0.0739
13879W        W29348   2.581  12.370   4.215 -0.0638 -0.1365 -0.3190
13880W        W29349  10.855  18.064   0.055 -0.0886 -0.0686 -0.1065
13881W        W29350   4.598   0.504   4.719  0.0730  0.0537 -0.0443
13882W        W29351   8.908   3.238   0.580  0.0763 -0.0471 -0.1623
13883W        W29352   9.572   0.218  14.575 -0.0784 -0.3417  0.1962
13884W        W29353   7.814  11.008   3.975 -0.1781  0.2974 -0.1744
13885W        W29354   9.976  11.994   2.001  0.0707  0.2159  0.1713
13886W        W29355   1.258   8.399  12.660  0.0220 -0.0952  0.4022
13887W        W29356  15.972  14.810   1.093  0.0861  0.4201 -0.0617
13888W        W29357  14.343   9.912  12.260 -0.1994 -0.1327 -0.0960
13889W        W29358   1.703  16.181   4.569  0.0996 -0.2591 -0.2160
13890W        W29359  10.818  14.499   3.418 -0.0914 -0.1235 -0.1525
13891W        W29360   4.467   1.678  13.720  0.0444 -0.0624  0.1774
13892W        W29361  10.022  16.608   1.978  0.1313 -0.0338 -0.3531
13893W        W29362   9.396  13.940  15.442 -0.0478  0.1757 -0.1451
13894W        W29363  16.613   7.746   1.380  0.2511 -0.2231 -0.0127
13895W        W29364  11.332   6.002   5.256 -0.0640  0.0904  0.0693
13896W        W29365   1.881   2.422  10.203  0.1273  0.0930 -0.2586
13897W        W29366   0.547   8.369  14.053 -0.1013 -0.0022 -0.1926
13898W        W29367   9.616  16.166   2.261  0.0198 -0.0273  0.4194
13899W        W29368   4.073  18.084  13.308  0.1267  0.0645  0.1187
13900W        W29369  13.129   0.293  15.738 -0.2865  0.0792 -0.0557
13901W        W29370   1.850   8.150  12.134  0.2581  0.2542 -0.0058
13902W        W29371   3.821  12.581  12.827  0.2035  0.0353  0.2206
13903W        W29372  18.226   8.765  12.855 -0.1075 -0.0989 -0.1641
13904W        W29373  10.609   4.156   4.544 -0.0169 -0.2664  0.2585
13905W        W29374  11.723   6.897  11.703 -0.2501  0.2397 -0.0731
13906W        W29375   3.093  17.719  14.310  0.0057 -0.2485 -0.3103
13907W        W29376  15.923  13.169  11.390  0.1034 -0.1452  0.0244
13908W        W29377   1.703   8.652  12.787 -0.1038 -0.1052  0.0914
13909W        W29378  15.886  17.786  12.233 -0.1198  0.0689  0.3394
13910W        W29379  17.109   8.967   0.974  0.2571 -0.1546 -0.1238
13911W        W29380   3.039   5.282  14.922  0.3090 -0.1751  0.1139
13912W        W29381  14.197   2.999   3.420 -0.2624  0.0662  0.0568
13913W        W29382  13.959   5.246  14.269  0.1655 -0.1700  0.3507
13914W        W29383  12.137   1.462  15.520  0.3204 -0.0386  0.0437
13915W        W29384   3.958   4.354  13.255 -0.1280 -0.1077  0.2002
13916W        W29385  11.595   5.157   1.394  0.0034  0.0925 -0.2307
13917W        W29386   0.235   9.086   5.760 -0.1843 -0.2821 -0.2506
13918W        W29387   4.052   1.846  11.637  0.1578 -0.1074  0.0414
13919W        W29388  14.173  14.089  12.242  0.1301 -0.0138  0.0755
13920W        W29389   8.791  15.927  11.297  0.1590  0.1865  0.0192
13921W        W29390  18.178   4.974  10.537  0.1297  0.1229 -0.3499
13922W        W29391   4.918  14.014  12.046  0.0918  0.1895 -0.0335
13923W        W29392   1.230  11.723   4.210 -0.1918 -0.4591  0.3458
13924W        W29393  12.714  16.930   2.652  0.1366  0.1790  0.0424
13925W        W29394  18.112  12.448  14.016 -0.0887 -0.0207  0.4200
13926W        W29395  17.202  15.618   4.094  0.1245  0.1554  0.2351
13927W        W29396   8.193   3.197  12.030  0.2966 -0.0522 -0.0195
13928W        W29397   3.102   3.145   2.700 -0.1583 -0.0164 -0.0877
13929W        W29398  11.248   6.808  14.749 -0.1147  0.1065 -0.2639
13930W        W29399  17.009   3.839   4.184  0.1795 -0.1429  0.1691
13931W        W29400   0.922   7.946  13.980  0.1551 -0.0086  0.0527
13932W        W29401  15.634  15.891  14.053 -0.1074 -0.1856  0.0976
13933W        W29402   9.391   1.714  14.929 -0.0458  0.1618 -0.2972
13934W        W29403  13.366  11.944  11.461 -0.0898 -0.1475 -0.0875
13935W        W29404   2.905   3.494  14.849 -0.0779  0.0253 -0.3276
13936W        W29405  13.820   5.841   4.645  0.0382  0.0072 -0.1904
13937W        W29406   1.764  14.358  15.208  0.0239 -0.2997  0.1488
13938W        W29407  15.881   4.672   5.893 -0.0222  0.2449 -0.1710
13939W        W29408   9.283   4.040  15.835  0.1803  0.0795  0.0817
13940W        W29409   4.804  14.015  11.492 -0.0344 -0.2080  0.6084
13941W        W29410   3.209  10.023  11.998 -0.3126 -0.0883  0.1927
13942W        W29411  12.994   7.346  14.635 -0.2573 -0.1351  0.0604
13943W        W29412   5.651   3.421   2.554 -0.0880 -0.3153  0.0162
13944W        W29413   2.686   2.645   4.271 -0.2825 -0.1572  0.0662
13945W        W29414   5.194  17.040   4.720  0.1316  0.0577  0.0577
13946W        W29415  15.849  12.814   2.819 -0.1039 -0.3948  0.1796
13947W        W29416   7.604  12.959  10.549  0.1630 -0.2119 -0.1180
13948W        W29417  15.135   5.032   1.350 -0.0203  0.1472  0.0157
13949W        W29418   6.857   7.610  15.018 -0.2291 -0.0947 -0.2655
13950W        W29419   7.862  11.827   0.121 -0.3021 -0.0269 -0.0671
13951W        W29420  16.994   5.523  13.392 -0.0463 -0.0245  0.0426
13952W        W29421   9.934  12.267  14.803  0.0405  0.2705 -0.3298
13953W        W29422   2.245  17.875  13.078 -0.2697 -0.1983  0.1961
13954W        W29423  16.118  15.589   1.930  0.3972  0.0082  0.0785
13955W        W29424   1.923  11.631   2.960  0.2065  0.1719 -0.0491
13956W        W29425  10.710   3.624  11.838 -0.0455  0.1575 -0.1298
13957W        W29426  15.922  14.924  10.813  0.0988 -0.2307 -0.0983
13958W        W29427  14.600   5.877   0.930 -0.1058 -0.3639 -0.0070
13959W        W29428   5.453   5.548  11.222  0.1196 -0.0122  0.0869
13960W        W29429   2.335   2.497   3.397  0.1854 -0.4662  0.1466
13961W        W29430   8.302   1.686  15.968 -0.1062 -0.1765  0.0254
13962W        W29431   8.787  16.515   3.351 -0.0314  0.0115 -0.1735
13963W        W29432  14.805   3.402  13.660 -0.0065 -0.0837 -0.3516
13964W        W29433   4.120   0.008   0.165  0.1600  0.1652  0.3045
13965W        W29434  17.275  16.294  13.362 -0.3570  0.0332 -0.2010
13966W        W29435  10.022   1.350  14.538  0.0971  0.0404  0.0422
13967W        W29436  11.936  13.480  11.449  0.1828  0.0153 -0.5387
13968W        W29437  16.733   4.619  16.121 -0.0725 -0.2337 -0.2183
13969W        W29438  12.165   8.248   0.640  0.0135  0.2939 -0.1545
13970W        W29439  15.111  12.827   5.604  0.3236 -0.0138  0.3182
13971W        W29440   8.826   6.174  11.489 -0.0887  0.2277 -0.2491
13972W        W29441   7.208  18.188  10.986 -0.0797 -0.1055  0.2465
13973W        W29442   1.640  13.719   2.191  0.0517  0.2468 -0.0310
13974W        W29443  12.094   0.951   0.217 -0.0096  0.2426 -0.1796
13975W        W29444  12.723   2.102   0.971 -0.1887  0.0157 -0.1002
13976W        W29445   8.043   2.222  10.944  0.1466 -0.1820 -0.3384
13977W        W29446   0.753   3.516  16.045 -0.3861 -0.1712 -0.0280
13978W        W29447  17.150  10.969   3.348  0.0717 -0.2402  0.0326
13979W        W29448  11.208   5.633   2.158 -0.0474  0.0866  0.0372
13980W        W29449   3.731  13.132  15.751 -0.4663  0.0511  0.0481
13981W        W29450  14.264   6.958   3.659  0.1220 -0.0344 -0.0742
13982W        W29451   5.124   1.246  11.557  0.2314  0.0627  0.0292
13983W        W29452  16.294   3.899  14.765  0.2572  0.1721 -0.1104
13984W        W29453  17.563  10.637  15.989 -0.1510 -0.3085 -0.1745
13985W        W29454   0.998  10.726   5.190 -0.0237  0.1546  0.1175
13986W        W29455   6.912   3.456   3.463  0.1649 -0.0514  0.2700
13987W        W29456   5.701   3.361  12.447  0.2317 -0.1387 -0.1470
13988W        W29457  15.267  13.235   2.109  0.1356 -0.0847  0.0791
13989W        W29458   0.928   3.821  14.984  0.0707 -0.3508 -0.2921
13990W        W29459   7.740   4.489  11.530  0.2326  0.0932  0.1628
13991W        W29460   6.306  13.192  13.972  0.2370 -0.3014 -0.1509
13992W        W29461  12.104   4.846   1.035 -0.0177  0.1352 -0.1043
13993W        W29462   0.051  14.030  15.184  0.2277 -0.2858 -0.1207
13994W        W29463   2.237  10.741   5.789  0.0226 -0.0209  0.0083
13995W        W29464   3.098   0.565  14.861 -0.2794  0.1810 -0.0822
13996W        W29465   9.510  18.263   3.935 -0.0659 -0.3056  0.1776
13997W        W29466   2.131  10.895  15.606 -0.4019  0.0546  0.2302
13998W        W29467  13.653  16.848   3.043 -0.1785 -0.3318 -0.0428
13999W        W29468  12.258   3.799  12.126 -0.1751 -0.1640  0.2740
14000W        W29469  16.873  11.944   1.989  0.0793 -0.2624  0.3190
14001W        W29470  17.054  16.258  14.501 -0.0297  0.4039  0.1358
14002W        W29471   3.601   6.334   5.622  0.1638  0.3866  0.2475
14003W        W29472  14.717   6.654  10.908  0.1227 -0.0760  0.1400
14004W        W29473   4.350  10.404   1.743  0.1395 -0.0338 -0.0116
14005W        W29474   8.615   7.456  12.585  0.1109 -0.0159 -0.2878
14006W        W29475   8.318  11.405   2.836 -0.2827  0.0655  0.0209
14007W        W29476  12.651   5.314   0.438 -0.1119 -0.1443 -0.0799
14008W        W29477   6.558   7.650  14.050 -0.1293 -0.3487  0.0097
14009W        W29478   8.888  15.226   1.817  0.2290  0.1036  0.2125
14010W        W29479   7.253   0.855  13.455  0.0052 -0.0879 -0.3109
14011W        W29480  14.930  11.084  14.065 -0.2553  0.2949 -0.0639
14012W        W29481   3.391  12.121  15.593 -0.0678 -0.0733  0.2252
14013W        W29482  16.016  11.853  14.489  0.0916  0.0681 -0.1450
14014W        W29483   4.060  13.337   3.722 -0.0569 -0.0220  0.1518
14015W        W29484   4.374  15.795  13.777  0.2805  0.3614  0.0818
14016W        W29485   8.449  17.273  14.594  0.2312  0.2025 -0.1826
14017W        W29486  11.412   0.952  15.597  0.0374 -0.0992 -0.1980
14018W        W29487   1.465  14.195   3.389 -0.0145  0.1467 -0.0555
14019W        W29488   9.707   8.059   2.807  0.0641 -0.0917  0.1130
14020W        W29489  13.857   2.306  16.172 -0.0819 -0.1202  0.1158
14021W        W29490   5.066   7.584   1.415  0.1245 -0.0646 -0.0048
14022W        W29491   9.362  16.155  12.573 -0.0914 -0.1116 -0.1879
14023W        W29492  10.009   9.041   2.088  0.2337 -0.0267  0.1667
14024W        W29493   6.413   4.376   2.483  0.0164 -0.1116  0.0721
14025W        W29494  10.954   7.210   4.116 -0.2269  0.2438  0.2893
14026W        W29495   2.159   8.351  12.824 -0.0375 -0.0539 -0.2776
14027W        W29496   0.497  17.264   3.730  0.3534 -0.3333 -0.2311
14028W        W29497  11.831   6.300  11.552 -0.0079  0.4641 -0.1739
14029W        W29498   4.150  13.194  16.039 -0.1251 -0.2586  0.1751
14030W        W29499   1.092  17.554  11.558 -0.1764 -0.0119 -0.0639
14031W        W29500   8.776   0.515   1.820  0.3096  0.2109  0.2902
14032W        W29501  18.149  17.946   1.901  0.0189 -0.0738  0.0826
14033W        W29502   2.848  11.862  11.846 -0.2881  0.0027  0.1498
14034W        W29503   5.704  12.105  15.424 -0.0073  0.0986  0.1136
14035W        W29504   4.294   5.692   1.235  0.1987  0.0321  0.0159
14036W        W29505   2.389   0.132   3.644 -0.1006  0.0950  0.0820
14037W        W29506   8.031  12.261   2.985 -0.0194  0.0909 -0.0787
14038W        W29507   9.616   9.301   1.931  0.2162  0.6206  0.0608
14039W        W29508   2.885   1.864  11.347 -0.2189  0.2469  0.0561
14040W        W29509  15.860   2.199   2.949  0.2688  0.0683 -0.0959
14041W        W29510   8.098  14.830   1.983 -0.2636  0.1366  0.6968
14042W        W29511   1.824  15.274  12.551 -0.0101 -0.0400  0.1837
14043W        W29512   3.203   3.707  11.336 -0.2714  0.0877 -0.1887
14044W        W29513   3.614  12.976   2.567 -0.1031 -0.1080 -0.1339
14045W        W29514   8.647   7.646   4.127 -0.1623  0.3847 -0.0045
14046W        W29515  14.931   8.126   4.635  0.1871  0.0610 -0.0660
14047W        W29516  11.304  15.400  14.799 -0.1230  0.3214 -0.1478
14048W        W29517  16.594   1.344  11.749 -0.4218  0.2328 -0.0950
14049W        W29518   2.069   0.517  14.348 -0.1274 -0.0274 -0.1493
14050W        W29519   6.906   0.234   4.730  0.1127  0.0957 -0.3530
14051W        W29520   1.332   9.965  12.448  0.1029 -0.0036  0.1014
14052W        W29521   5.291   2.878   3.053  0.0346 -0.1895  0.1644
14053W        W29522  15.777   2.927  11.747 -0.0648  0.1651 -0.1367
14054W        W29523   0.659   2.921  13.769 -0.1197 -0.1473  0.1979
14055W        W29524  14.642  15.469   3.019  0.0928  0.1692 -0.3098
14056W        W29525   5.661   5.729   0.167  0.2266 -0.0451  0.1239
14057W        W29526  12.066  14.062  11.506  0.0586  0.1165 -0.0292
14058W        W29527   2.341  12.959   3.057 -0.0791 -0.2971  0.0381
14059W        W29528   9.814  18.145   4.311 -0.0813  0.1872 -0.0240
14060W        W29529   6.943   7.992  13.340  0.1181  0.0887  0.0869
14061W        W29530   8.141   8.221   1.442 -0.1442 -0.1191  0.2631
14062W        W29531  10.951   7.816  15.043  0.0528 -0.1885  0.1731
14063W        W29532  10.822  14.809   3.842  0.1053  0.0023 -0.1010
14064W        W29533  10.777  16.941   3.057  0.3732  0.1371  0.0155
14065W        W29534  14.729  18.280   3.559 -0.0627 -0.0783 -0.2313
14066W        W29535   0.173  14.444  16.144 -0.0018  0.0382 -0.1536
14067W        W29536   1.379   1.161  11.002  0.5074 -0.1673  0.1906
14068W        W29537  10.830   8.146  15.416  0.2142 -0.0278  0.1600
14069W        W29538   3.830  16.616  13.073  0.1688 -0.0164  0.1805
14070W        W29539   4.664  13.832   3.021  0.3389 -0.2888  0.0813
14071W        W29540   6.185  17.446   3.663  0.1180  0.1446  0.2656
14072W        W29541  10.663  13.475  11.622  0.0619 -0.0415 -0.3027
14073W        W29542   0.583   8.488   4.811 -0.1848 -0.0613  0.0351
14074W        W29543   1.029  17.904  12.663 -0.4071 -0.2074 -0.0203
14075W        W29544  17.329   8.384   4.512 -0.0224 -0.0823  0.0670
14076W        W29545   0.183   4.212   5.471  0.0048 -0.1608  0.0085
14077W        W29546  16.864   9.860  14.975 -0.0418 -0.0955  0.0462
14078W        W29547  13.913   9.734   5.606  0.1791  0.0712 -0.0599
14079W        W29548  13.826  10.520   1.757 -0.1151 -0.0604  0.1811
14080W        W29549  10.644   3.247   3.545  0.4269  0.1860  0.0633
14081W        W29550  12.843  17.778  15.749 -0.1060 -0.4079  0.0128
14082W        W29551   6.791   6.913  11.709  0.0547 -0.0073 -0.1861
14083W        W29552  13.152   9.044  14.984 -0.3234 -0.1658  0.2833
14084W        W29553   7.290  14.534  12.360  0.2620  0.1751  0.2953
14085W        W29554  18.038  16.039  14.789  0.0747  0.0725 -0.2331
14086W        W29555   4.494  13.717   2.471 -0.2747  0.0036  0.2115
14087W        W29556   9.733   8.267   5.166  0.0152 -0.3223  0.3166
14088W        W29557   0.909  16.956  12.753 -0.4210  0.0374  0.2514
14089W        W29558   7.867  12.932  14.105  0.3824 -0.1958  0.0032
14090W        W29559   3.434   2.934   0.130 -0.4029 -0.1005 -0.0353
14091W        W29560  12.320   6.340  13.796  0.1421 -0.2506  0.0809
14092W        W29561   7.326   0.463  12.041 -0.1249 -0.1078  0.3811
14093W        W29562  17.565  17.081   4.673 -0.0774  0.0699 -0.2888
14094W        W29563   4.777   6.126  13.701  0.2945 -0.1489  0.3367
14095W        W29564  11.951  13.410   5.728  0.1339  0.0124 -0.0169
14096W        W29565   3.351   9.902   2.162  0.0192  0.2597 -0.0651
14097W        W29566   4.407   9.752  13.772  0.1050 -0.0060 -0.1849
14098W        W29567   4.529  18.222   0.923  0.1945  0.1229 -0.0328
14099W        W29568   5.182   9.838  13.310  0.1725 -0.0626  0.1109
14100W        W29569   6.769   7.611   1.108 -0.3465  0.2780  0.0810
14101W        W29570  13.075   9.948   5.070 -0.0123  0.0463 -0.2306
14102W        W29571  13.318  13.513   3.676  0.1111 -0.1797 -0.1823
14103W        W29572   3.084  10.118  11.408 -0.1856  0.3546  0.0733
14104W        W29573   8.653   6.334  12.005 -0.2664 -0.1726 -0.0333
14105W        W29574   7.481   1.382   1.188 -0.0614 -0.1281 -0.2025
14106W        W29575  12.455  11.652  14.824  0.1641  0.2879  0.2520
14107W        W29576  14.288   4.550   4.926  0.1012 -0.1502  0.1505
14108W        W29577  11.968  16.570   3.671  0.0070  0.3299  0.0511
14109W        W29578  18.030  11.966  12.714 -0.0040 -0.1302  0.2266
14110W        W29579   9.451   8.946  12.933 -0.2356 -0.1787  0.2043
14111W        W29580   9.094  17.913   2.905 -0.0506 -0.2435 -0.0608
14112W        W29581   1.878  15.815   5.811  0.1866 -0.0153 -0.3084
14113W        W29582   9.046  18.145  13.736  0.1556  0.0345  0.1636
14114W        W29583   3.720   6.297  15.339  0.1358  0.0967  0.2095
14115W        W29584  13.116   5.385  12.946 -0.1189  0.1141 -0.1083
14116W        W29585  14.211   2.566  15.881  0.1026 -0.2798 -0.2425
14117W        W29586   1.615  11.427   3.337 -0.0301  0.1997  0.0209
14118W        W29587   6.974  18.109   1.965  0.0628  0.2816 -0.0127
14119W        W29588   6.446   5.702  12.267 -0.1750 -0.2172 -0.1381
14120W        W29589  11.651   0.720  14.201  0.1691 -0.1850 -0.0149
14121W        W29590   3.637  12.338  13.808 -0.2680 -0.0359  0.2332
14122W        W29591  17.471   2.957   4.078 -0.0062  0.1091  0.1657
14123W        W29592  11.958  14.335   1.003  0.2198  0.1170  0.0207
14124W        W29593  15.129  15.129  11.665 -0.1609  0.0441 -0.0711
14125W        W29594   9.053  16.754   5.245 -0.2927  0.1490  0.0140
14126W        W29595   9.111  13.464  15.498  0.4666 -0.2369 -0.0618
14127W        W29596   0.135  17.536  14.347 -0.2857  0.1964 -0.1113
14128W        W29597  17.547   8.827  16.008 -0.1378 -0.1800  0.4392
14129W        W29598  14.543   5.103  11.339  0.1198  0.2408  0.0293
14130W        W29599   1.698  17.073  12.550  0.1799 -0.0984  0.3000
14131W        W29600  17.327   3.598  15.882  0.1018 -0.0179  0.1176
14132W        W29601   9.171   9.037   1.863 -0.4926  0.0449 -0.2358
14133W        W29602  14.151  17.990   2.125  0.0449 -0.2198  0.2612
14134W        W29603  12.225  15.609   5.252 -0.1078 -0.0428 -0.5026
14135W        W29604   7.888  10.923  10.593 -0.0678  0.0085 -0.1434
14136W        W29605  15.091   4.417  13.637  0.0316  0.0273  0.2396
14137W        W29606   4.317  14.195   2.943 -0.0987 -0.1990  0.0890
14138W        W29607  10.669  17.383   2.773  0.1093 -0.3908  0.2950
14139W        W29608   9.199   9.276   0.134 -0.0563  0.1868 -0.2031
14140W        W29609   4.179   4.398   5.148 -0.0352 -0.0960 -0.3052
14141W        W29610   0.420   6.307  14.185  0.0690 -0.1789  0.2190
14142W        W29611   8.721  10.909  11.654 -0.0806  0.0055  0.0738
14143W        W29612  12.271  15.187   4.213 -0.3758 -0.1487 -0.0257
14144W        W29613   8.537   2.598   1.430  0.2750 -0.1971  0.2096
14145W        W29614  15.753  15.480  14.403 -0.0472 -0.0941  0.4475
14146W        W29615   3.807   6.988   4.955  0.1749  0.0419  0.1105
14147W        W29616  16.727   2.664  11.449 -0.0181 -0.2155 -0.0004
14148W        W29617   0.499   2.769   1.725 -0.0053  0.0618  0.0863
14149W        W29618  10.200  11.866  14.046 -0.2068 -0.0923  0.0030
14150W        W29619  13.663  10.787   2.130 -0.0887 -0.0365 -0.1127
14151W        W29620   0.165   7.254  15.364  0.0765  0.0682  0.0584
14152W        W29621   0.059   5.575   3.226  0.0559  0.0636  0.1402
14153W        W29622   2.654   4.813  12.410  0.4987 -0.0076 -0.2278
14154W        W29623   4.762  12.008  14.133 -0.0216 -0.0136 -0.0865
14155W        W29624  12.409  13.571   0.350 -0.1925 -0.0781 -0.1603
14156W        W29625   5.734   4.946  12.641  0.1314 -0.3979  0.0680
14157W        W29626  11.861  12.716  11.680  0.1689 -0.0228  0.1766
14158W        W29627  15.535  10.708   1.005  0.3200  0.0015 -0.1652
14159W        W29628  11.288  13.719  13.076  0.3612  0.0439  0.0873
14160W        W29629   6.543  12.252  14.834 -0.0350 -0.1233  0.1391
14161W        W29630  14.818  14.356  12.709  0.5928 -0.1033 -0.1139
14162W        W29631   6.047  16.889   4.851 -0.0113 -0.3471 -0.1749
14163W        W29632  14.706   8.226   0.342  0.1052 -0.0119 -0.0322
14164W        W29633   0.898   2.255  16.005  0.0114 -0.0742 -0.3845
14165W        W29634  13.995   5.042  15.596 -0.2094 -0.2634 -0.0563
14166W        W29635  14.162  15.006  11.707 -0.0562 -0.0733 -0.1169
14167W        W29636   2.830   0.159  13.908 -0.0395  0.3003  0.1013
14168W        W29637  12.329   3.666  11.030  0.2951  0.0219 -0.1035
14169W        W29638   5.971   3.332  11.740 -0.2458 -0.4390 -0.0524
14170W        W29639  18.245  18.154   4.904  0.0448 -0.0491 -0.2388
14171W        W29640   9.925  17.175   4.860  0.0554  0.0472  0.0406
14172W        W29641   8.238   6.837  15.146 -0.1663 -0.0494 -0.2015
14173W        W29642  13.261   1.656   1.947  0.0442  0.0833  0.0586
14174W        W29643   7.744   6.769   5.023 -0.0528  0.1341 -0.4109
14175W        W29644   2.692   4.116   3.195 -0.0998 -0.0051 -0.0394
14176W        W29645   3.847   6.143  11.786 -0.2339 -0.1000 -0.2410
14177W        W29646   3.143  12.818  14.578 -0.1260 -0.1624 -0.0975
14178W        W29647  15.556  17.835  14.523  0.0907  0.2560  0.1137
14179W        W29648  15.889  17.697   5.821  0.0011 -0.1128 -0.1779
14180W        W29649   8.434   0.901   1.908 -0.0218 -0.0785 -0.0376
14181W        W29650  15.056  12.578   5.136  0.5906  0.2085 -0.2071
14182W        W29651  13.403   8.956  15.424  0.1444 -0.0168  0.0885
14183W        W29652  13.732   3.926  13.905 -0.1107 -0.3259  0.1648
14184W        W29653   6.228   3.346   6.449 -0.2181 -0.1013  0.1279
14185W        W29654   4.260  17.270  13.493 -0.1098  0.1575  0.3855
14186W        W29655  10.620  10.738   0.726  0.0573  0.1291  0.2226
14187W        W29656   5.208   1.984   2.011 -0.3376 -0.0285  0.0251
14188W        W29657  13.224   6.517   0.379  0.0847  0.2824 -0.1475
14189W        W29658  15.185  14.479  13.054 -0.3049 -0.0768  0.2089
14190W        W29659  11.530   6.675   1.251 -0.1606 -0.1353  0.0600
14191W        W29660   3.833   2.727  13.722 -0.0908 -0.2274 -0.0763
14192W        W29661   8.238   0.478   0.314 -0.2015 -0.0940 -0.0573
14193W        W29662   6.738   1.683   1.037 -0.0668 -0.3962  0.0353
14194W        W29663   5.474  13.004   1.108  0.2290  0.1600 -0.1859
14195W        W29664  15.254   2.316   1.135  0.0297 -0.2658  0.0499
14196W        W29665  15.876   6.035   0.612  0.1870  0.0434 -0.2906
14197W        W29666  18.284   4.558  11.469 -0.3206  0.1864  0.1188
14198W        W29667  15.522   4.239   0.777 -0.0138 -0.2031 -0.0109
14199W        W29668   7.058  16.593   3.732 -0.0458 -0.0188  0.0034
14200W        W29669  15.908  13.214   5.439 -0.0914  0.1975  0.0702
14201W        W29670  15.155  14.463   5.997 -0.0298  0.0033  0.0349
14202W        W29671   1.452   9.002  16.170  0.3627  0.1801 -0.1804
14203W        W29672   0.895   7.409   3.241 -0.0675 -0.1869 -0.0987
14204W        W29673   7.389  16.953   4.447 -0.2335 -0.0981 -0.0850
14205W        W29674  16.693  13.575  16.087 -0.5299 -0.1048  0.3604
14206W        W29675  15.689  18.205  13.959  0.1286  0.0734 -0.0942
14207W        W29676  12.901  13.352   2.847  0.1129  0.1037 -0.1622
14208W        W29677  15.860   9.803  10.982 -0.0079  0.0200 -0.2536
14209W        W29678  11.096   1.952  16.141 -0.3095 -0.2655  0.0350
14210W        W29679   9.658  17.424   5.720  0.3054  0.1097 -0.2854
14211W        W29680  13.507  12.052   5.351  0.0632  0.3507  0.0708
14212W        W29681   7.150  12.284  12.527 -0.3337  0.0364  0.0258
14213W        W29682  10.431   8.426   2.541  0.1718  0.1188 -0.0674
14214W        W29683   2.972   0.543   2.908  0.1872  0.1864 -0.1294
14215W        W29684   2.414  13.862  11.073 -0.2192  0.1809 -0.0638
14216W        W29685   7.953   5.416  15.805 -0.0092 -0.0636  0.2587
14217W        W29686   6.530   6.017   3.866 -0.0144 -0.1059  0.0412
14218W        W29687   1.692  16.172   2.107  0.3587  0.2443  0.0318
14219W        W29688  17.396   4.703  10.190 -0.3271 -0.1351 -0.0191
14220W        W29689   6.903   5.838   5.101 -0.2515  0.0771  0.2491
14221W        W29690   1.715  15.370   4.480  0.1419  0.0934  0.0421
14222W        W29691   0.348   3.440   3.488  0.1708  0.1556 -0.0253
14223W        W29692   0.892   5.793   2.620 -0.2330  0.0580 -0.0192
14224W        W29693  17.093   6.848   2.671 -0.1524  0.1091 -0.1215
14225W        W29694  17.934   0.960   3.917 -0.1802 -0.0497 -0.0196
14226W        W29695   9.655  14.069   0.595 -0.0791 -0.2074 -0.1127
14227W        W29696   8.362   4.177  15.826  0.2176 -0.2370 -0.1627
14228W        W29697  16.509   1.241   0.117 -0.0196 -0.3629 -0.2633
14229W        W29698   7.142  14.853   0.333 -0.3112  0.0176  0.0349
14230W        W29699  10.473   6.869   3.025  0.2860  0.1202  0.0192
14231W        W29700   6.003   7.428   0.101  0.2794  0.0125  0.1251
14232W        W29701  10.646   4.222  15.217 -0.1411  0.1454  0.3013
14233W        W29702   9.552  11.076   2.679 -0.1098  0.0047  0.1763
14234W        W29703   7.237  10.142   0.226  0.1954  0.6044  0.4279
14235W        W29704   6.239   5.999  14.407  0.0014  0.4366  0.2863
14236W        W29705  11.234  10.404  14.469  0.1982  0.0456  0.0344
14237W        W29706  10.652   5.904  10.851  0.4294 -0.0331  0.0025
14238W        W29707   2.139  14.529  14.261 -0.2357  0.1344 -0.2168
14239W        W29708  11.638   3.524  12.961  0.1781  0.0953  0.2248
14240W        W29709  16.812   4.590   1.189 -0.2083 -0.0159  0.0499
14241W        W29710   5.567  13.568  13.780  0.0103 -0.0468 -0.2762
14242W        W29711  14.078   1.930  11.327  0.0576  0.2831 -0.3196
14243W        W29712   1.996  17.574  12.409  0.1939  0.2302 -0.0859
14244W        W29713   6.966  16.647   2.710 -0.2847  0.1262 -0.3949
14245W        W29714   9.434  18.281   2.674 -0.2701 -0.4441 -0.1922
14246W        W29715   1.014   6.192  12.680  0.0067  0.4071  0.2452
14247W        W29716   4.721  16.725  11.528  0.2923 -0.0439 -0.0806
14248W        W29717   8.809   4.017   3.391  0.0075  0.1309 -0.0020
14249W        W29718  16.408   9.937  14.840  0.0372  0.2638 -0.1536
14250W        W29719   4.586  18.299   4.569 -0.1134  0.3694 -0.3123
14251W        W29720   7.270   8.730   4.196 -0.2044 -0.2099 -0.2922
14252W        W29721  12.350   0.605  10.880 -0.0570  0.3466 -0.0381
14253W        W29722   4.545  15.885   3.019 -0.1235 -0.1627  0.1787
14254W        W29723  15.335   8.841   1.081 -0.2040  0.1095 -0.1157
14255W        W29724  10.434   6.858   4.548  0.0273  0.0319  0.1310
14256W        W29725  15.145   1.202  12.796  0.1207 -0.0928 -0.4795
14257W        W29726  10.628   6.125   4.159 -0.0488  0.0911  0.0305
14258W        W29727   2.060   5.135   0.742 -0.1911 -0.0081 -0.1490
14259W        W29728   0.478   9.463  15.644 -0.0373  0.0997  0.0303
14260W        W29729   2.498  11.412  11.743 -0.3905 -0.0325 -0.0890
14261W        W29730   7.643  17.343   2.865  0.2671  0.1562  0.2428
14262W        W29731   7.721   4.082   3.016  0.1700  0.0905  0.0905
14263W        W29732  14.030   0.164   1.369 -0.0342  0.2387  0.0448
14264W        W29733   2.263  17.487  15.308 -0.0203 -0.0120 -0.2016
14265W        W29734   2.312  14.411  10.896  0.0209  0.2671 -0.1379
14266W        W29735  16.953  12.312   1.321  0.1335 -0.0441 -0.0589
14267W        W29736   5.294   4.130  13.115 -0.2372 -0.0426 -0.0346
14268W        W29737   9.079   8.678   2.358 -0.0849  0.1487 -0.0054
14269W        W29738   4.451   7.549   2.584 -0.1613  0.1540 -0.1789
14270W        W29739   7.483   3.945  15.534  0.1140  0.0056 -0.0094
14271W        W29740   8.866  12.314  11.726  0.4147  0.1557  0.0646
14272W        W29741   9.783  18.154  11.332  0.3187  0.3375  0.3794
14273W        W29742  14.204   5.689  13.923  0.0730  0.1342  0.0535
14274W        W29743   0.542  15.114  11.600  0.2005 -0.0165  0.1814
14275W        W29744   9.920  14.183   2.772  0.0280 -0.1103 -0.0529
14276W        W29745   0.248  18.039   3.865  0.0529 -0.0843 -0.1871
14277W        W29746   5.600   7.601   2.905 -0.1112  0.0711  0.0029
14278W        W29747   8.975   8.586   2.864  0.0338 -0.2352 -0.0305
14279W        W29748  14.438  17.844  12.095  0.0366 -0.1276  0.2120
14280W        W29749  17.729  11.271   4.879 -0.1698 -0.1638  0.0251
14281W        W29750   4.646  13.588  11.767 -0.0873 -0.2315 -0.0141
14282W        W29751   7.609   1.155   2.282 -0.0360 -0.3401  0.0826
14283W        W29752  15.698   7.704  12.309  0.1036 -0.1079  0.0324
14284W        W29753   5.067  13.537  13.671  0.1434 -0.0013 -0.0862
14285W        W29754  13.583   3.711  13.322 -0.5915 -0.0291  0.0908
14286W        W29755   6.337   7.450   1.589 -0.0423 -0.2318  0.0041
14287W        W29756  13.617   0.723   0.823  0.1127  0.0700 -0.1343
14288W        W29757  12.556   3.762   2.580 -0.0771 -0.1066  0.1779
14289W        W29758   5.091   4.599   2.739 -0.2447  0.0600  0.0628
14290W        W29759  10.114   8.619  15.720  0.1079 -0.3067  0.0749
14291W        W29760  10.514  15.937   5.596 -0.5539  0.3379 -0.2027
14292W        W29761   5.010  14.353   0.790 -0.3823  0.0769  0.0542
14293W        W29762   7.882  12.110   1.399 -0.1101 -0.0443 -0.0978
14294W        W29763  13.867   7.428   9.522 -0.0384 -0.2004  0.0617
14295W        W29764  17.417  17.925  12.651  0.0145 -0.2201 -0.3702
14296W        W29765  14.175  11.876  15.439  0.0786 -0.0182 -0.1569
14297W        W29766  17.125  15.806  14.654 -0.1217  0.2064 -0.0655
14298W        W29767  14.440  10.357  15.207  0.0820  0.3527 -0.1254
14299W        W29768  10.221   6.441   4.263 -0.0212 -0.2054  0.0805
14300W        W29769  10.752   1.176  10.817  0.3108  0.0186  0.1342
14301W        W29770  18.023  18.046   2.603 -0.2275 -0.1045  0.2102
14302W        W29771   0.438   4.828  12.833  0.1844 -0.2472 -0.1541
14303W        W29772  13.449   8.644   4.390 -0.2127  0.2259 -0.4546
14304W        W29773  12.656   9.881  14.554  0.2042  0.0394 -0.0564
14305W        W29774   8.775   0.029   4.274 -0.2466  0.3257 -0.0826
14306W        W29775  16.535   7.458  13.236 -0.1574 -0.1045 -0.0060
14307W        W29776  15.085  12.924   0.186 -0.1118  0.1169 -0.0231
14308W        W29777  16.651  12.652  12.998  0.0646 -0.1323  0.2307
14309W        W29778  12.083  17.087   1.108 -0.0830  0.1518  0.0646
14310W        W29779  12.876  14.699   3.589  0.1768 -0.0498 -0.0630
14311W        W29780   3.611   5.956   5.931  0.2192  0.3127 -0.2122
14312W        W29781   8.496  15.572  13.597 -0.3099 -0.3055 -0.0418
14313W        W29782   2.442   3.523   3.180 -0.0870 -0.0084  0.0983
14314W        W29783   2.252   1.585   2.313 -0.1886  0.2348  0.2522
14315W        W29784   6.022   8.923  16.010 -0.0928  0.0396 -0.1287
14316W        W29785  15.481  17.802  15.553  0.0268 -0.0406 -0.0100
14317W        W29786   2.261   4.929  12.709 -0.1067 -0.1165 -0.0589
14318W        W29787  17.275  15.699  13.046 -0.1402 -0.3996 -0.0712
14319W        W29788   8.283  16.003  11.261  0.3096  0.2795 -0.0905
14320W        W29789  17.323   6.485  12.236 -0.2652 -0.1737 -0.2804
14321W        W29790  16.648  13.407   4.966 -0.1196  0.2877  0.1019
14322W        W29791   5.462   8.451  15.289 -0.1805 -0.1522 -0.2315
14323W        W29792  17.884   6.602   0.287 -0.0596 -0.2831 -0.1154
14324W        W29793   8.962  10.514  11.551 -0.0141 -0.2457 -0.0464
14325W        W29794  12.268   4.269  10.925 -0.1123 -0.1886  0.0679
14326W        W29795  18.251   5.618  11.341 -0.3039 -0.1673  0.0045
14327W        W29796   4.589   5.208   1.930 -0.0501 -0.0765  0.0234
14328W        W29797   5.164  10.222  14.995  0.1481 -0.2646  0.1556
14329W        W29798   8.517  14.241  11.092  0.0230  0.0443 -0.1492
14330W        W29799  17.608  10.209  14.066 -0.1461  0.0122  0.1430
14331W        W29800  13.813  12.672  13.466 -0.0965 -0.0687  0.0835
14332W        W29801   0.426  13.651   1.334 -0.2901  0.0340  0.0606
14333W        W29802  12.680  13.896  12.619 -0.4271 -0.0060 -0.0490
14334W        W29803   7.538  12.805   3.607  0.2103 -0.0635  0.1722
14335W        W29804  14.923   2.525   2.104  0.1577 -0.2785  0.2995
14336W        W29805   6.600  10.954  10.918  0.1551  0.0850  0.1918
14337W        W29806  14.844   0.765  11.194  0.1550 -0.0644 -0.1171
14338W        W29807   3.311   7.182  12.901  0.0498  0.3479 -0.0733
14339W        W29808   3.091   1.915   2.198 -0.0797  0.0074 -0.1690
14340W        W29809   0.850   1.331  13.610 -0.0087  0.0072  0.5493
14341W        W29810  14.354   0.202  12.487 -0.0341  0.1771 -0.0428
14342W        W29811   0.629  17.257  11.191  0.3082  0.0548 -0.0747
14343W        W29812   8.026  14.006   1.925 -0.0449  0.2235  0.2100
14344W        W29813  10.286   5.582   2.538 -0.1029  0.0554  0.2164
14345W        W29814   0.391  13.146   0.345  0.2051  0.1394  0.1093
14346W        W29815  12.232  13.939   1.636  0.0965 -0.0072  0.2383
14347W        W29816   1.399  14.801  14.583  0.0173  0.1273 -0.0624
14348W        W29817   4.664   5.716   3.913 -0.0531 -0.0233 -0.2029
14349W        W29818   4.632  13.156   2.890  0.4988 -0.1812 -0.1674
14350W        W29819   1.284  11.072  11.595 -0.0505  0.3547  0.1387
14351W        W29820  15.597   7.099  15.947  0.3299 -0.0329  0.0476
14352W        W29821   5.520  17.145  13.360 -0.2720 -0.0146 -0.0985
14353W        W29822   7.023  17.142   3.436  0.0883 -0.2279 -0.3956
14354W        W29823  14.427  10.617   4.767  0.1142  0.1287 -0.3100
14355W        W29824  10.823   6.379  13.504  0.1441  0.1653  0.2652
14356W        W29825   5.262  12.210   4.813  0.0417  0.0470  0.0454
14357W        W29826   4.997   0.857   4.304  0.0668 -0.0470 -0.2146
14358W        W29827   7.552   2.434   1.912 -0.2088  0.1070 -0.1680
14359W        W29828   8.627  17.750   2.835 -0.0870 -0.1511 -0.1383
14360W        W29829   8.710  16.990   4.338  0.0039  0.1244  0.3532
14361W        W29830  10.420   5.198   5.177 -0.2222  0.0280  0.0162
14362W        W29831   6.776   7.369   3.974 -0.3397 -0.0062 -0.1457
14363W        W29832   7.328  14.848  11.532  0.0462  0.2097 -0.0813
14364W        W29833  12.400   3.101  15.319  0.0693 -0.0015 -0.1815
14365W        W29834  10.877  12.851   2.402 -0.2301  0.0108  0.0171
14366W        W29835   0.960   8.901   1.813 -0.1274 -0.2182  0.3135
14367W        W29836   5.153  11.106  14.532 -0.0830  0.0764 -0.0927
14368W        W29837  15.917  15.734   2.990  0.1544 -0.2752  0.1254
14369W        W29838  13.936  14.306  13.053  0.1272 -0.2721  0.1580
14370W        W29839   5.785   7.437   4.997 -0.3848 -0.1441  0.1259
14371W        W29840  16.817   5.246  15.363  0.3019 -0.0981  0.2990
14372W        W29841  10.807  11.012   4.150  0.0562 -0.1885  0.4618
14373W        W29842  10.766   6.760   4.853  0.2908  0.0055  0.0656
14374W        W29843   1.671   8.435  11.265 -0.2667 -0.0864  0.2555
14375W        W29844   9.560  13.250  11.099  0.0688 -0.0868  0.2297
14376W        W29845   5.227  17.953   4.594  0.2134  0.0849 -0.1996
14377W        W29846   3.434   8.428  13.028  0.1023 -0.1478 -0.0647
14378W        W29847  16.957   0.554  15.715 -0.3232  0.0137 -0.0143
14379W        W29848   7.534   1.811   4.803 -0.1535 -0.0975  0.0762
14380W        W29849  16.497   0.514   2.251  0.3082 -0.1228 -0.1058
14381W        W29850   1.373   0.497   3.713 -0.0497  0.0923  0.0256
14382W        W29851   4.088   1.400  16.120 -0.2512 -0.2125  0.0516
14383W        W29852  13.999   2.143   6.323  0.2111 -0.0584  0.1445
14384W        W29853   6.341  13.500   3.268  0.2019 -0.0009  0.1566
14385W        W29854  10.574  12.467  13.102 -0.2079 -0.1043  0.0201
14386W        W29855  11.501   0.505  11.000 -0.0821  0.5529  0.0465
14387W        W29856  11.124  14.966  15.743  0.2289  0.3390  0.2282
14388W        W29857  10.729   2.665  11.782 -0.0712 -0.1444  0.1787
14389W        W29858  17.673   8.194   2.368  0.2573  0.2107  0.0608
14390W        W29859   8.325  12.333  15.449  0.0888  0.2808  0.1286
14391W        W29860   6.774   2.706  11.769  0.0699 -0.0946 -0.3520
14392W        W29861   6.221  18.075   3.010 -0.2363  0.1491 -0.1523
14393W        W29862   8.198  13.348  10.704  0.0543  0.0051  0.0025
14394W        W29863   0.220  17.345   5.027  0.0533  0.3865  0.0195
14395W        W29864  12.229   6.810  13.005  0.1242  0.0169 -0.1086
14396W        W29865  13.592   5.461  11.023 -0.3291  0.0432 -0.0018
14397W        W29866  15.804  13.094   2.108  0.2964  0.0928 -0.2056
14398W        W29867   6.691  12.666   3.646  0.1048 -0.0894  0.3239
14399W        W29868   5.682  14.635  12.368 -0.2550 -0.5096 -0.2000
14400W        W29869  17.776   4.577   4.998 -0.0732 -0.1241 -0.0560
14401W        W29870  12.792  18.004   2.534  0.1248  0.0014 -0.3323
14402W        W29871   5.178  17.709  12.445 -0.0524 -0.0913 -0.5635
14403W        W29872  12.826  16.479   3.484 -0.1262  0.3509 -0.0055
14404W        W29873   6.555   6.744   3.466  0.0145 -0.3853 -0.0788
14405W        W29874   5.606   2.038   1.714 -0.2058 -0.3366  0.0808
14406W        W29875  16.404  12.873   0.231  0.0162  0.0045  0.1317
14407W        W29876   9.051   2.767   5.256  0.4917  0.1099 -0.1386
14408W        W29877   2.134   5.783   1.241 -0.2042  0.1227  0.1057
14409W        W29878   5.030   7.226   1.818 -0.1278  0.1261 -0.4009
14410W        W29879   3.898   2.160   1.029  0.1218 -0.0247 -0.2573
14411W        W29880  13.447   5.299  14.434 -0.2539 -0.2006  0.1402
14412W        W29881   6.875   5.226   5.055 -0.3100  0.3963 -0.2256
14413W        W29882  16.009   8.938   4.557  0.1141 -0.1582  0.2854
14414W        W29883   6.015   8.424   4.630 -0.0872 -0.1806 -0.0466
14415W        W29884  15.835   2.378  14.282 -0.2285  0.0977 -0.1237
14416W        W29885   8.876  11.456  15.362  0.1838 -0.2361 -0.1536
14417W        W29886   6.669  12.384  12.384 -0.1479  0.0223  0.0810
14418W        W29887   4.682  15.010  14.898 -0.0483  0.1495  0.0310
14419W        W29888   4.654   3.613   5.960  0.1558  0.1968 -0.0191
14420W        W29889  11.668  10.399  13.946  0.0335  0.0510  0.3669
14421W        W29890   2.126  16.390   3.197 -0.5443 -0.0254 -0.2000
14422W        W29891   2.626  14.292   2.460  0.0552 -0.0060  0.2601
14423W        W29892   2.815  14.076  11.331 -0.1099  0.0615  0.1355
14424W        W29893   3.131   5.654   1.518  0.3035  0.0688  0.0795
14425W        W29894  15.896  12.620   2.364  0.0192  0.0689 -0.0083
14426W        W29895   1.893  13.507  15.077 -0.0578  0.1715 -0.2611
14427W        W29896  11.097  12.422   3.172 -0.4676 -0.1365 -0.0342
14428W        W29897   3.116  11.227   5.160 -0.0675  0.1411  0.2426
14429W        W29898  16.733   1.464  15.285  0.0893 -0.2746  0.1323
14430W        W29899  15.005  16.825  11.351 -0.0796  0.2597 -0.1875
14431W        W29900   6.072  17.026   4.371 -0.0173 -0.2088 -0.4396
14432W        W29901   4.452  10.473   0.512 -0.0465  0.0309  0.2911
14433W        W29902   5.885  10.183   3.887  0.0411 -0.1573  0.2545
14434W        W29903   3.002   1.272   4.302  0.1376 -0.0306  0.1231
14435W        W29904   3.030   8.914  15.297 -0.1930 -0.0723  0.0502
14436W        W29905   8.591   4.876   0.438  0.1376  0.1717  0.0600
14437W        W29906   7.799   9.570   1.814 -0.2263  0.0328  0.2657
14438W        W29907   2.364   6.148  15.453  0.0167  0.2501  0.3034
14439W        W29908  16.569   3.483  14.859 -0.1339 -0.1608 -0.2883
14440W        W29909  12.535   5.028  14.760  0.0444 -0.1607  0.1054
14441W        W29910  13.547   4.972   4.925  0.2486  0.2283  0.1329
14442W        W29911  16.527   3.303   2.030  0.1697  0.0523 -0.2156
14443W        W29912  10.165   6.969   1.145  0.0035 -0.1177  0.0315
14444W        W29913   8.539   9.153  15.807  0.3044  0.0024  0.0618
14445W        W29914   2.593   7.220   3.018  0.0649 -0.1624  0.1284
14446W        W29915   7.022   3.873  14.952  0.1506 -0.1611 -0.0067
14447W        W29916   9.057  12.755   1.953 -0.1724 -0.0381  0.3078
14448W        W29917  12.149   4.721  11.005 -0.1265 -0.0731 -0.1168
14449W        W29918  13.956  15.647  14.753  0.2868 -0.1257 -0.0276
14450W        W29919  12.954   5.261  11.247  0.2543  0.0081  0.4569
14451W        W29920  11.040   7.762   4.094  0.1473  0.4237 -0.1096
14452W        W29921  11.547  14.857  11.204  0.0410 -0.0447  0.1877
14453W        W29922   1.066  14.590   4.482  0.0728 -0.0426  0.2123
14454W        W29923   6.670  11.367   4.476  0.0141 -0.1565  0.0178
14455W        W29924   8.560  13.850  14.625 -0.1018  0.1907  0.0046
14456W        W29925   4.940  10.590  14.735  0.0833 -0.0458 -0.1526
14457W        W29926   9.580  17.717  13.156 -0.1732 -0.1369 -0.0820
14458W        W29927   1.892   1.459   1.917 -0.2624 -0.0511 -0.0071
14459W        W29928   4.957  11.566  14.326 -0.1466 -0.0530  0.1129
14460W        W29929  16.743   8.887   5.678  0.0506  0.1703  0.0995
14461W        W29930  12.791   5.036  16.161  0.1702  0.0826 -0.2399
14462W        W29931   4.748   5.852  15.179  0.3544  0.1938  0.3870
14463W        W29932   4.270   5.687   0.715  0.0188  0.1271  0.0116
14464W        W29933   9.818  15.121   2.532 -0.1299 -0.2621  0.1648
14465W        W29934  12.190  10.925   4.482  0.2615  0.1573 -0.2132
14466W        W29935  13.607  13.493   2.404  0.1220  0.2017 -0.1645
14467W        W29936   6.518   5.181  12.794 -0.1107  0.5621 -0.2336
14468W        W29937   7.998  11.367  14.558 -0.0643  0.1704 -0.0462
14469W        W29938  12.771   2.654   0.892 -0.0738  0.1993 -0.1534
14470W        W29939   0.847  15.959   4.243 -0.0789  0.1078  0.0516
14471W        W29940   4.964   2.497  15.610  0.0711  0.0240 -0.3111
14472W        W29941  13.994   3.091  15.904 -0.0927  0.0252 -0.0279
14473W        W29942   7.835   8.534   5.618 -0.1604  0.0121 -0.1118
14474W        W29943  10.131  12.791  13.175  0.1664  0.1534  0.1646
14475W        W29944   3.392   6.391   0.364 -0.0972 -0.2823  0.1918
14476W        W29945  18.028   6.742   4.023 -0.0230 -0.1365 -0.0949
14477W        W29946   6.199   5.970   4.819  0.0569  0.0591 -0.1537
14478W        W29947   1.843   8.081   5.440 -0.0404 -0.0062 -0.0087
14479W        W29948   6.961   3.314   0.152  0.0408 -0.1163  0.3027
14480W        W29949  11.179   7.086   1.024 -0.0348  0.1599 -0.4448
14481W        W29950   2.454  13.073   4.226 -0.0527 -0.1717  0.2625
14482W        W29951   9.873   6.789  12.614 -0.0628 -0.2195 -0.1733
14483W        W29952   1.821  18.285   6.017  0.1436  0.4251  0.1997
14484W        W29953   8.633   1.616  12.946 -0.0067 -0.0499  0.1248
14485W        W29954   1.393  13.881   3.029  0.0628 -0.3765 -0.0083
14486W        W29955  18.022  11.943   4.134  0.0439 -0.0635  0.1118
14487W        W29956   3.500   6.355  13.924  0.2075 -0.1542  0.1437
14488W        W29957  17.023   9.138  12.231 -0.0783  0.3315  0.1637
14489W        W29958  11.201   3.461   1.247  0.0138  0.2039  0.1188
14490W        W29959  13.566   0.824  10.988 -0.1703 -0.0245  0.2807
14491W        W29960   7.047   9.762   1.351 -0.2984  0.0469  0.0255
14492W        W29961   9.060   2.212   1.584 -0.2353 -0.0425 -0.0111
14493W        W29962   9.980  12.428   1.662 -0.2977  0.1551  0.2808
14494W        W29963   7.825   2.415  13.141  0.0486  0.2130  0.0727
14495W        W29964   4.211  18.268  12.146 -0.2457 -0.2449  0.4804
14496W        W29965  14.852   0.422   5.304 -0.0827 -0.2054  0.3368
14497W        W29966  11.891  10.211   2.722  0.2071 -0.2053  0.0508
14498W        W29967  14.475  14.796   2.388 -0.1061 -0.0043  0.1242
14499W        W29968   3.991   5.137  12.772  0.2828 -0.0546 -0.0300
14500W        W29969  10.420   3.249  15.003  0.1136  0.0499  0.0644
14501W        W29970  17.091  15.799  15.158  0.0841 -0.3182  0.1511
14502W        W29971   3.477  10.264  12.656  0.2489  0.0491 -0.1814
14503W        W29972  18.102   2.076   5.077  0.3103 -0.0730  0.1552
14504W        W29973   5.842   1.185   0.086  0.2143 -0.1255 -0.0943
14505W        W29974  12.779  10.327   5.299 -0.0758 -0.3445 -0.1044
14506W        W29975   8.593  10.564   4.213 -0.0702  0.0441  0.0372
14507W        W29976   1.746   7.721  12.483  0.0359 -0.0336  0.0641
14508W        W29977  12.590   5.892   4.933 -0.0982 -0.6349 -0.0861
14509W        W29978  16.872  12.607   0.343 -0.1700  0.0206  0.0501
14510W        W29979   3.240   4.536   5.260 -0.0732  0.0253  0.0513
14511W        W29980   8.797   3.608   0.146 -0.1691 -0.0210  0.1699
14512W        W29981   0.277   6.255   0.143  0.0477  0.0524 -0.0523
14513W        W29982   9.487  14.588   3.331 -0.2797  0.2187  0.2348
14514W        W29983  13.591   3.094   9.915  0.1211 -0.0342 -0.2952
14515W        W29984   1.997  11.620  13.706  0.1813 -0.4449 -0.2214
14516W        W29985   0.921  13.909   2.806 -0.0041  0.1206 -0.1133
14517W        W29986  13.464   6.323   2.988  0.1394  0.2419  0.2702
14518W        W29987   9.545   7.362   0.348 -0.2999  0.0367 -0.0101
14519W        W29988  12.750   7.465   3.362 -0.1839 -0.1192 -0.1281
14520W        W29989  17.223  15.630  10.320 -0.2283 -0.1535 -0.1483
14521W        W29990   8.545   1.120   4.310  0.1388  0.0548  0.1239
14522W        W29991   3.412  14.134   0.498 -0.1453 -0.3532  0.0703
14523W        W29992  15.207   3.887   0.526 -0.0937  0.2277  0.2465
14524W        W29993   1.480  16.803  11.518 -0.1668 -0.2154  0.0290
14525W        W29994   2.268  13.983  12.273 -0.2375  0.2215 -0.2610
14526W        W29995   4.525  16.547  15.604 -0.0401 -0.3694  0.2393
14527W        W29996   5.759  17.912  11.467 -0.0568 -0.0247  0.2045
14528W        W29997  12.152   7.244  11.426  0.0902  0.1621  0.2652
14529W        W29998   3.924  13.536   5.112 -0.1617  0.1011 -0.2552
14530W        W29999   1.192  13.271   0.295 -0.2366  0.2141  0.1935
14531W        W30000   9.988   1.407  15.929  0.2995 -0.1513 -0.0113
14532W        W30001   4.862  12.903  12.795 -0.0512  0.2124 -0.1095
14533W        W30002  10.327   7.016  11.357 -0.0912  0.3335 -0.0943
14534W        W30003   7.188  14.958   2.932  0.1146 -0.0619  0.1483
14535W        W30004   2.665   3.688   2.241 -0.3423  0.2901 -0.0063
14536W        W30005   6.136   1.121  15.395  0.1204  0.0581 -0.2556
14537W        W30006  13.050   2.886  11.596  0.0235 -0.0386 -0.2364
14538W        W30007   5.647  11.667   1.149  0.0838  0.1986  0.1985
14539W        W30008  11.399  16.711  11.986 -0.5995  0.3491  0.1618
14540W        W30009   4.847   5.943   1.830  0.1751 -0.0212 -0.1474
14541W        W30010   0.350   2.759  13.027  0.0675  0.0661  0.3545
14542W        W30011  15.634   8.132   2.794 -0.0730  0.2477 -0.2611
14543W        W30012  18.183   6.904  13.636  0.3575  0.0488 -0.0443
14544W        W30013   5.003   4.375  13.569 -0.0229 -0.2354  0.0830
14545W        W30014   7.300   8.357   1.554 -0.1657  0.2695  0.2406
14546W        W30015   6.447  17.698  15.097 -0.1271  0.1242 -0.1751
14547W        W30016  10.327  11.800  12.676 -0.0972 -0.0646  0.1367
14548W        W30017  16.352  15.435  13.373 -0.0424 -0.0428  0.1639
14549W        W30018   6.349   8.432   4.236 -0.0449  0.1258 -0.1726
14550W        W30019  11.532   2.202  12.912 -0.0276  0.1278 -0.1651
14551W        W30020   8.540   0.382  13.259 -0.0607 -0.2830 -0.1541
14552W        W30021  12.548  10.772   1.464  0.1075 -0.0817 -0.5053
14553W        W30022   3.095   9.845   3.362  0.3183  0.1148  0.1773
14554W        W30023  14.261   7.643  11.627  0.1376  0.3339  0.0197
14555W        W30024  14.751  10.269  11.307  0.0130 -0.2508 -0.1570
14556W        W30025   3.654   5.781   3.480 -0.0886 -0.0725  0.2862
14557W        W30026   0.218   8.506  13.696  0.3862  0.2694 -0.3357
14558W        W30027   6.156  16.100  13.986 -0.0677  0.2296  0.3348
14559W        W30028  16.607  12.175   2.482  0.0737  0.0517  0.2963
14560W        W30029  15.662  17.201   5.373  0.1354  0.0999  0.1333
14561W        W30030   3.720   4.892  10.994 -0.2478 -0.0444  0.3245
14562W        W30031   3.553  16.009  12.599 -0.1984  0.1377 -0.2123
14563W        W30032   3.901   3.545   2.311  0.1326 -0.0773 -0.1912
14564W        W30033   9.171   2.038   4.675  0.0081 -0.0155  0.1412
14565W        W30034  13.006   7.319  11.016 -0.0136 -0.0439  0.2395
14566W        W30035   0.137  10.517   5.362  0.0035  0.2640  0.1063
14567W        W30036   6.494  13.104   3.574  0.0439 -0.1732 -0.3316
14568W        W30037   8.909   0.970  16.041  0.0342  0.0585  0.2647
14569W        W30038  15.190  17.775   2.498  0.4070 -0.0140  0.3387
14570W        W30039   4.936   6.990   4.045 -0.0303 -0.1444 -0.0197
14571W        W30040   3.734  11.029  11.511 -0.2388 -0.0301  0.2579
14572W        W30041   4.486  14.934   5.034  0.1941 -0.0514 -0.3627
14573W        W30042  10.894   4.963  13.098 -0.2028 -0.3186  0.1654
14574W        W30043   8.396   4.065   3.658 -0.0018 -0.1531 -0.0558
14575W        W30044  11.906  16.265  15.776 -0.0432 -0.1089  0.2049
14576W        W30045  10.077  13.129   4.012  0.4747 -0.1205  0.2365
14577W        W30046   6.294   0.353   3.811  0.3291 -0.2597  0.1069
14578W        W30047   7.693   3.635  12.247 -0.1760 -0.3114 -0.1675
14579W        W30048  16.540  11.491  11.964  0.1379  0.1296 -0.1790
14580W        W30049   1.812   6.537   3.376 -0.2173 -0.1034 -0.0254
14581W        W30050   7.167  14.913  12.682  0.0689 -0.2443  0.1808
14582W        W30051  17.356  15.873   1.705 -0.0666 -0.0111  0.0669
14583W        W30052   1.917  14.562   5.041 -0.0075 -0.1071  0.1711
14584W        W30053   2.878  13.544   1.139 -0.0493  0.2173 -0.0657
14585W        W30054  11.750  13.756  13.702  0.2484  0.0421  0.0664
14586W        W30055  12.927  13.501  14.361  0.3370 -0.1350 -0.2252
14587W        W30056  15.681  13.583  14.301  0.0120  0.0084 -0.0008
14588W        W30057  16.369  17.092  11.662 -0.0499  0.0215 -0.0958
14589W        W30058  13.287   8.289  15.543  0.0671 -0.3224 -0.3628
14590W        W30059  17.910  10.491  14.774 -0.1894  0.1434 -0.0454
14591W        W30060  10.894  11.959  13.284  0.2631  0.2182 -0.0924
14592W        W30061   3.703  14.812  14.154  0.3452 -0.1693  0.0015
14593W        W30062  12.643   3.390   4.697 -0.1767  0.2763  0.3395
14594W        W30063   7.028   5.713  11.516 -0.1469  0.0208 -0.0044
14595W        W30064   9.230   6.347  14.765  0.1689 -0.0626  0.0671
14596W        W30065  14.854  15.959  14.941  0.1458 -0.2427  0.1250
14597W        W30066  10.784   0.110  13.484  0.1484  0.0360 -0.0708
14598W        W30067   5.982  10.929  14.170 -0.1613 -0.0776 -0.1325
14599W        W30068  10.488   8.170  10.409  0.0680 -0.0739 -0.1199
14600W        W30069  12.318   7.612  11.671  0.2190  0.2361 -0.3696
14601W        W30070  14.204   8.521  10.872 -0.3241 -0.2899  0.0740
14602W        W30071  10.919   2.853   4.784  0.1614  0.2246 -0.2161
14603W        W30072  16.941  17.729  15.430 -0.2086 -0.1189  0.0805
14604W        W30073   0.552  11.156  15.578  0.2124  0.1633 -0.1383
14605W        W30074   5.774  13.411  13.078  0.0379  0.2618  0.3770
14606W        W30075  10.074   8.436  12.042  0.0005  0.0042  0.1833
14607W        W30076   2.150  12.355   4.939 -0.1579 -0.0108  0.1209
14608W        W30077   7.525  16.871   3.892 -0.2657 -0.0684  0.3665
14609W        W30078   4.929   1.814  12.211  0.1213 -0.1398  0.2386
14610W        W30079   2.336  10.014   2.548 -0.3976 -0.2592  0.0482
14611W        W30080   3.454  12.917  12.160 -0.0241  0.2329  0.2784
14612W        W30081  13.616   7.865   4.802 -0.4777 -0.0165 -0.2503
14613W        W30082   6.575   6.898  12.762 -0.2249  0.0916  0.0246
14614W        W30083  17.395   6.788  15.089  0.3001  0.2256  0.1051
14615W        W30084   6.349   5.885   5.793 -0.0824 -0.3237  0.1676
14616W        W30085  12.291   1.327   0.511  0.0544 -0.2149  0.3528
14617W        W30086  13.044   6.566   3.566 -0.0278 -0.0358 -0.2563
14618W        W30087   9.464  11.794  14.181  0.1788  0.1958 -0.0431
14619W        W30088   9.843  16.601  14.628 -0.1489 -0.0537 -0.0035
14620W        W30089   3.122   7.144  12.351  0.1035  0.0321 -0.0454
14621W        W30090   1.332  15.827  11.545 -0.0994  0.0114 -0.0285
14622W        W30091   3.775  17.151  11.780 -0.0739  0.0258 -0.0796
14623W        W30092  13.307  17.277   1.526  0.1113 -0.1810  0.0538
14624W        W30093   0.264   5.587  12.249  0.1395  0.0895  0.0909
14625W        W30094  11.036   3.368   2.347 -0.0394 -0.0321 -0.0128
14626W        W30095  13.377   2.924  12.540 -0.0765 -0.0201 -0.5191
14627W        W30096   6.988  16.370   0.448  0.2143  0.1151  0.0601
14628W        W30097   0.913   0.676   1.315 -0.2825 -0.2237  0.1585
14629W        W30098  15.726  13.733   2.939  0.1115  0.3427 -0.0423
14630W        W30099  14.626  14.074   1.415 -0.0092 -0.2111  0.3060
14631W        W30100   3.268  12.622  15.253  0.0146 -0.0137  0.1630
14632W        W30101  15.416  14.539  15.119 -0.0383 -0.1763 -0.0961
14633W        W30102  15.618  13.655   0.098  0.0592  0.1115 -0.2450
14634W        W30103   6.827   2.851  15.068 -0.3036 -0.0986 -0.1048
14635W        W30104  15.300  13.244  14.302  0.0902  0.0456  0.0821
14636W        W30105  11.414  10.992  12.272  0.0179 -0.1472 -0.0381
14637W        W30106  16.553  11.615  12.518 -0.0934 -0.1875 -0.0988
14638W        W30107  11.235  11.712  12.914  0.2580  0.0440 -0.0057
14639W        W30108   1.531  11.880  11.090  0.2288 -0.4978  0.0971
14640W        W30109  11.188   5.856   0.080 -0.0218 -0.0951 -0.1727
14641W        W30110  16.799  14.219   5.122  0.4375 -0.1217 -0.0773
14642W        W30111  10.191  10.097  11.582  0.2422 -0.2078 -0.1154
14643W        W30112  13.696  17.979   0.857  0.3105 -0.1318 -0.0561
14644W        W30113  17.965   0.861  11.223 -0.1223 -0.0804 -0.2794
14645W        W30114  13.956   3.451   1.457 -0.2277  0.1153 -0.2228
14646W        W30115   9.544  10.475   0.403 -0.3186  0.1338  0.0913
14647W        W30116   5.931   9.901  12.881 -0.1044  0.0550  0.0273
14648W        W30117   2.640   8.594   1.612  0.0592  0.2524 -0.0072
14649W        W30118  12.317   7.478   5.426  0.2105 -0.0953 -0.0431
14650W        W30119  17.584  14.598   1.183 -0.0864  0.1921 -0.0222
14651W        W30120  13.577  15.782   4.027 -0.1458  0.0812  0.0425
14652W        W30121  14.754  13.226  13.332  0.1311  0.0594  0.2055
14653W        W30122  13.184   4.473  12.089 -0.0985 -0.1005  0.1121
14654W        W30123   9.931   2.568   1.617  0.0558  0.0686  0.0356
14655W        W30124   5.854   3.909   1.909 -0.1767  0.0277 -0.1001
14656W        W30125   4.145   3.077  16.151 -0.2680  0.1288 -0.1426
14657W        W30126   4.342   8.272   1.885 -0.1345  0.4866 -0.0123
14658W        W30127  12.116   0.386  12.577 -0.0533  0.2024 -0.0309
14659W        W30128  13.042   4.021   2.595  0.0073  0.0989  0.3854
14660W        W30129  13.916  16.572   2.695  0.0661  0.2470 -0.2127
14661W        W30130  12.407   3.319   4.222 -0.0431 -0.0206  0.1335
14662W        W30131   6.694  12.544   2.410 -0.0575  0.0819 -0.0323
14663W        W30132   0.607   6.140   2.933  0.1269  0.0725 -0.0930
14664W        W30133   7.059   9.964   2.517  0.1059  0.0515  0.0329
14665W        W30134   7.402   2.139   2.410 -0.0396 -0.2467 -0.0986
14666W        W30135   5.162  10.341   1.029  0.0063  0.0595 -0.1766
14667W        W30136   8.140  12.503  14.118 -0.0461 -0.2886 -0.2242
14668W        W30137  13.925  13.110  14.649 -0.0059 -0.3809 -0.0443
14669W        W30138  18.003   5.424   4.889  0.3573  0.2593  0.3168
14670W        W30139   0.040   0.883   5.299  0.0134 -0.0025  0.1883
14671W        W30140   4.838   0.744  10.680 -0.1242  0.2632  0.0543
14672W        W30141   1.286   6.555  11.436 -0.0562  0.2547  0.2295
14673W        W30142   9.527   1.785   0.215 -0.0833  0.2331  0.2885
14674W        W30143   7.905   7.597  11.359 -0.0008  0.0255  0.0811
14675W        W30144   3.931  11.616  12.560 -0.2007 -0.0506 -0.2307
14676W        W30145  12.992   1.295   2.249  0.0130 -0.2410 -0.1930
14677W        W30146   1.276  11.490  10.862  0.0875  0.0558  0.4250
14678W        W30147  16.658  16.514   2.747  0.2369 -0.0942 -0.1351
14679W        W30148   2.807  17.187  15.993  0.0673 -0.1177  0.2903
14680W        W30149   2.648   4.086  12.352 -0.1625  0.0209  0.0378
14681W        W30150   8.441   6.320   4.429  0.0202 -0.0201  0.1031
14682W        W30151  16.321   1.822   0.963  0.0918  0.0024  0.1568
14683W        W30152   3.137   0.854  15.253  0.2295  0.3634  0.0011
14684W        W30153   3.843   7.768  13.381 -0.2701  0.0301 -0.2931
14685W        W30154   3.452   3.266  12.079  0.2688 -0.1527 -0.0460
14686W        W30155  10.402  15.016   2.461 -0.0256 -0.0508  0.0544
14687W        W30156   8.423  15.102   0.259 -0.1447 -0.0045 -0.0159
14688W        W30157   8.057   1.654  10.176 -0.0775  0.0952  0.0519
14689W        W30158  13.012   5.596  13.395 -0.1445 -0.1608 -0.0719
14690W        W30159   7.364  15.538  12.202 -0.2190  0.0704 -0.1579
14691W        W30160  13.821   8.661  14.306 -0.1827 -0.0617  0.2789
14692W        W30161  12.564   2.051  12.804 -0.0839 -0.0014  0.0716
14693W        W30162   2.227   5.993  13.218 -0.0061  0.0509 -0.1369
14694W        W30163   9.782   8.207   0.183 -0.0411  0.2029 -0.1196
14695W        W30164  14.104   7.282   0.402  0.1426  0.2875  0.0544
14696W        W30165   8.794   3.274   1.839 -0.3974 -0.1896 -0.2229
14697W        W30166  14.723  11.956  11.283  0.1100 -0.0364  0.0865
14698W        W30167  15.318   5.077  11.725  0.1189  0.1628  0.3771
14699W        W30168   8.921  16.436   5.641 -0.0758  0.0825  0.1020
14700W        W30169   9.904   9.649  13.722 -0.0582 -0.0765  0.2648
14701W        W30170   9.617   7.793   5.149 -0.1681 -0.0484 -0.0557
14702W        W30171   5.283  16.044  15.768 -0.2249  0.0235 -0.0407
14703W        W30172   1.594   0.535  15.875  0.0025  0.0675 -0.2928
14704W        W30173  10.622   5.947  13.690 -0.1764  0.1098  0.0834
14705W        W30174   7.648  15.123   0.283  0.1590 -0.1982  0.3721
14706W        W30175  16.590   3.180  11.622  0.0997  0.2447  0.0275
14707W        W30176   4.937  15.123  10.814  0.0438 -0.2679  0.0732
14708W        W30177  12.220   3.933   5.469  0.1641 -0.0533 -0.1757
14709W        W30178  17.328   1.996   0.488  0.0677 -0.0681 -0.1471
14710W        W30179  16.976   1.432   1.420  0.0597  0.0902  0.0944
14711W        W30180  10.617   6.718   5.370 -0.0829  0.0371  0.0901
14712W        W30181   2.094   5.644  11.490 -0.0467 -0.2076  0.3096
14713W        W30182   6.373   8.427   3.231 -0.1881 -0.1299 -0.0866
14714W        W30183  17.301  11.243   1.514 -0.2164 -0.1159 -0.1622
14715W        W30184   1.598   6.698   2.513 -0.0677  0.0490  0.2312
14716W        W30185  12.461   9.534   5.132 -0.1433 -0.1312  0.4962
14717W        W30186  16.592  13.638  11.398 -0.1527  0.0549 -0.0783
14718W        W30187  14.345  10.496   5.770 -0.1685  0.0503 -0.0506
14719W        W30188  10.825   9.655   1.536  0.0770  0.0403  0.1813
14720W        W30189   7.455  17.278   0.997 -0.1900  0.1046  0.0724
14721W        W30190   2.676  15.054  13.271  0.1652  0.2050  0.2561
14722W        W30191  17.697  11.034   3.396  0.0303 -0.0320 -0.3107
14723W        W30192  12.053   9.419   1.696  0.1569 -0.0501 -0.1794
14724W        W30193   1.445   6.498  12.550 -0.0464 -0.2066  0.0613
14725W        W30194  16.641   0.212  13.938  0.1229 -0.1379  0.0351
14726W        W30195   1.374  13.192   2.862 -0.0518 -0.1493  0.1278
14727W        W30196   3.237  15.202   0.885 -0.0193 -0.0884  0.2140
14728W        W30197  18.177  17.153   1.370  0.1160  0.0227 -0.1735
14729W        W30198   1.249   9.517  14.548 -0.0253  0.1726  0.0924
14730W        W30199  17.006  14.349   4.638  0.0136  0.0964 -0.0116
14731W        W30200   1.770  13.013  12.494  0.0575  0.0728  0.0152
14732W        W30201   7.622   3.311   2.556 -0.0586  0.1372  0.1406
14733W        W30202  17.809  14.170  15.262  0.0591 -0.1594 -0.0105
14734W        W30203   8.977  16.442  13.668  0.0186 -0.2786  0.3034
14735W        W30204  16.918   3.249   2.666  0.0048  0.0482 -0.1128
14736W        W30205   3.031  14.973  12.228 -0.0747  0.0406 -0.0245
14737W        W30206   4.669  12.281   1.843 -0.1301 -0.0968 -0.0393
14738W        W30207   3.157   6.307  16.127 -0.0605  0.0739  0.0423
14739W        W30208   7.872  10.231   0.988 -0.1355  0.2777 -0.2194
14740W        W30209   6.844   5.357  12.395  0.0609 -0.1398 -0.0065
14741W        W30210   2.496  16.030  11.518  0.3838  0.3582 -0.2336
14742W        W30211   5.420  14.521   4.409  0.3009  0.1333  0.1345
14743W        W30212  10.178   1.600   5.283  0.1524 -0.0697  0.0875
14744W        W30213  13.332  12.115  13.881  0.0913 -0.1934  0.1792
14745W        W30214   1.491   3.961  12.134 -0.3418 -0.0361  0.0627
14746W        W30215  10.847   7.215   2.777  0.1690 -0.3482 -0.2683
14747W        W30216  10.290   0.915   5.280 -0.1864  0.2707 -0.0374
14748W        W30217   3.839   3.336  12.337 -0.2838  0.1375 -0.2806
14749W        W30218   5.031   0.874   1.623  0.3333 -0.1077 -0.2116
14750W        W30219   3.123  16.678   2.651  0.0392 -0.1790 -0.0532
14751W        W30220  17.532  11.780  13.959  0.4440  0.0304 -0.1755
14752W        W30221   9.697  11.403  14.912 -0.0194 -0.1532  0.0934
14753W        W30222  17.547   7.926  14.273 -0.1146  0.0925 -0.1941
14754W        W30223   7.618   4.547  12.004  0.1928  0.0284 -0.2494
14755W        W30224  18.275   9.202  15.053  0.1392  0.2264  0.0139
14756W        W30225   5.874  15.178  15.470  0.0821  0.0883 -0.0868
14757W        W30226  15.674   3.267  14.415  0.1342  0.4310 -0.0912
14758W        W30227   5.118  11.203   3.753  0.1051  0.1089 -0.1283
14759W        W30228  16.137   9.409  14.691  0.0050  0.0249 -0.1970
14760W        W30229  15.175  15.133  13.831 -0.2363 -0.5652 -0.2423
14761W        W30230  16.073  16.722   1.961 -0.0997 -0.2277  0.0166
14762W        W30231   0.793   0.548  13.110 -0.4815  0.1745 -0.0155
14763W        W30232   3.210   3.905  14.803  0.0146  0.0934 -0.0915
14764W        W30233  17.193  15.545  12.203 -0.0721 -0.5744 -0.3034
14765W        W30234   1.177   4.496   2.537  0.0645 -0.1761  0.0222
14766W        W30235  13.589   5.966   1.973  0.1511 -0.0475  0.2281
14767W        W30236   7.124   7.387   1.977 -0.0028  0.2594 -0.2817
14768W        W30237   1.596  13.205  13.709  0.1387 -0.1816  0.1604
14769W        W30238   9.066   7.060  11.751  0.2030  0.1437  0.1733
14770W        W30239   9.477   4.425   1.631 -0.2859  0.4899  0.0468
14771W        W30240  16.651   4.003  14.336 -0.3151 -0.0479 -0.0091
14772W        W30241   1.450  12.770  11.575 -0.2130 -0.2125  0.0777
14773W        W30242  13.129  10.524   4.367 -0.0168 -0.0896 -0.1306
14774W        W30243   9.991   0.396   4.627  0.2824 -0.0193 -0.0845
14775W        W30244  16.866   5.368  11.568 -0.0904 -0.1381  0.1980
14776W        W30245   9.387  12.653  11.152 -0.2458  0.0076 -0.0138
14777W        W30246   7.893   3.942  13.999  0.1931  0.1078  0.1269
14778W        W30247   1.798   7.597   5.395 -0.3845  0.3640 -0.0833
14779W        W30248   0.262  11.759   0.924  0.0440 -0.3204 -0.1411
14780W        W30249   8.287  16.279   1.690  0.0893  0.2369  0.0403
14781W        W30250   9.083  12.388  12.596  0.3409  0.0298  0.0141
14782W        W30251  13.043   3.159   4.818  0.2192  0.2717 -0.2995
14783W        W30252   6.034  13.596   0.186  0.1458 -0.5176  0.1882
14784W        W30253   5.037  10.557  12.508  0.0426  0.1844  0.2335
14785W        W30254  11.260  10.773   4.912 -0.0823 -0.1087  0.2608
14786W        W30255   6.872  11.509  13.187  0.0952 -0.0687 -0.0940
14787W        W30256   6.387   9.747  13.886 -0.2424  0.0260 -0.1984
14788W        W30257  11.747  17.690   1.819  0.2101 -0.3637 -0.0048
14789W        W30258  13.935  16.894  12.842  0.2858  0.0474  0.1621
14790W        W30259   2.363  13.498  12.391 -0.0860  0.1641  0.1303
14791W        W30260  12.941  15.606  12.026 -0.0042  0.0943  0.0129
14792W        W30261  15.642   7.987   4.306  0.0451 -0.0904 -0.0837
14793W        W30262  12.527   9.967   3.397 -0.1859 -0.0141  0.0652
14794W        W30263   0.305   5.172  11.193  0.0487 -0.0616  0.1758
14795W        W30264  12.552  10.421  14.207 -0.1146  0.1124  0.0857
14796W        W30265  12.074   3.410   1.947 -0.3950 -0.2803 -0.0250
14797W        W30266   6.529   2.860   6.286  0.2160 -0.2985  0.0381
14798W        W30267  16.563  12.336  11.767 -0.0185  0.2002 -0.2244
14799W        W30268   3.181   4.260  11.297 -0.0850 -0.0444  0.0706
14800W        W30269  11.802   2.200   4.482  0.0104  0.1333 -0.0404
14801W        W30270  14.563  15.479  15.832  0.1690  0.2220 -0.1590
14802W        W30271  12.812   3.836   2.986 -0.0762  0.1000  0.2968
14803W        W30272  11.679  17.111   0.812 -0.2220 -0.0620 -0.1589
14804W        W30273  16.852   4.452   4.701 -0.1040 -0.2918 -0.1142
14805W        W30274  12.074  10.577  15.501 -0.2594 -0.3065 -0.0093
14806W        W30275  10.526  12.118  14.926  0.0643  0.2322  0.2628
14807W        W30276  10.140   4.207  13.333  0.0053  0.1605  0.0579
14808W        W30277  10.563   1.100   3.067  0.0225  0.0986  0.5040
14809W        W30278   1.064  16.882   0.345  0.0914  0.1286 -0.1782
14810W        W30279  12.277   9.540  12.606  0.1655  0.2070 -0.3061
14811W        W30280  16.197  16.469   0.129 -0.0739 -0.1166  0.2174
14812W        W30281  12.378  11.860  14.006 -0.2283  0.0093  0.1800
14813W        W30282   1.339   4.844  12.568 -0.0442  0.0827  0.0325
14814W        W30283  17.547   7.447   3.295 -0.0539  0.1120  0.2195
14815W        W30284  10.919  12.880  12.217  0.1187 -0.1911 -0.1052
14816W        W30285   6.610   9.984   1.179 -0.0722  0.1955  0.1669
14817W        W30286  16.970  14.260  14.871 -0.0998 -0.5087 -0.0427
14818W        W30287  10.370  18.041  12.593  0.2312 -0.2301  0.2401
14819W        W30288  10.254   1.856  14.604  0.2510 -0.0939 -0.0793
14820W        W30289   9.844   6.099  16.043 -0.1509  0.0699  0.0166
14821W        W30290  16.738  16.814   4.916 -0.1873 -0.3399  0.2213
14822W        W30291  15.100   5.586   6.036  0.1054  0.2711  0.1530
14823W        W30292  11.953  16.296   2.596 -0.0760  0.0547 -0.0362
14824W        W30293   9.651   8.084  11.224 -0.0899 -0.0802  0.1229
14825W        W30294   4.675  11.547   3.305 -0.3078 -0.1879  0.1868
14826W        W30295  17.835  11.288   4.310 -0.2001  0.2452  0.0904
14827W        W30296   3.738   1.589   4.599 -0.4050 -0.0175  0.0840
14828W        W30297  15.317  13.138  12.648 -0.0179  0.1678 -0.1296
14829W        W30298   1.877  18.003   0.653 -0.0359 -0.3430 -0.2086
14830W        W30299   1.443  17.507  12.327  0.0576 -0.0943 -0.0499
14831W        W30300  14.209   2.613   2.473 -0.0916 -0.0337 -0.1320
14832W        W30301   5.561  15.034   5.195 -0.3919 -0.1199  0.1413
14833W        W30302   1.715  17.821   5.871  0.0534  0.2137 -0.3297
14834W        W30303  13.358   2.807   6.120  0.0070  0.0248 -0.2758
14835W        W30304  17.899  10.441   0.126 -0.0243  0.2107 -0.1876
14836W        W30305  16.038  10.947  13.577  0.1727 -0.0509 -0.1400
14837W        W30306   8.429   6.549   1.784  0.2166 -0.2702 -0.1387
14838W        W30307  14.016   1.626   4.952  0.0747 -0.1748 -0.0728
14839W        W30308  17.783   7.723  12.402 -0.1302  0.3443  0.0866
14840W        W30309  12.477   6.749   2.102  0.0613  0.0033 -0.1868
14841W        W30310   1.524   2.986   4.078  0.0907 -0.3554  0.2215
14842W        W30311   6.610  11.853  12.858  0.1277  0.0855 -0.0525
14843W        W30312  17.401  11.115  16.019 -0.1320 -0.0851  0.2682
14844W        W30313   1.598  15.116  13.500 -0.0304 -0.0302 -0.0520
14845W        W30314  16.337  15.143   1.130  0.2770 -0.0557 -0.2620
14846W        W30315  13.105  11.706  12.956  0.4197 -0.0408  0.2422
14847W        W30316   1.634  15.267  14.693  0.0979 -0.0543 -0.1418
14848W        W30317   2.352  15.116  14.738  0.0379 -0.2755 -0.3703
14849W        W30318   7.524   7.477  12.710  0.0535 -0.2717  0.0055
14850W        W30319   4.397   2.116   0.255 -0.0022 -0.2211  0.3424
14851W        W30320  16.359   9.133   0.402 -0.0845 -0.1282 -0.1285
14852W        W30321   8.887   9.464  11.804 -0.1464 -0.4565 -0.0890
14853W        W30322   7.666   0.645   3.747 -0.2154  0.1577 -0.0951
14854W        W30323   3.634   7.278   4.585 -0.0535 -0.2450  0.1701
14855W        W30324   4.454   1.557   2.609 -0.1344  0.0047 -0.2734
14856W        W30325   0.210  17.526  10.960 -0.1458  0.1740  0.0127
14857W        W30326  10.622  10.330   0.342 -0.0482 -0.2721 -0.1305
14858W        W30327   2.242   3.989  14.682 -0.0692 -0.2038  0.1280
14859W        W30328   0.910  12.630   4.320  0.1576  0.1839 -0.0517
14860W        W30329   7.090   9.187  11.882 -0.1248  0.0666  0.0480
14861W        W30330  14.159  18.200   3.770 -0.0344  0.3380  0.0742
14862W        W30331   6.487   8.930  12.356  0.5683 -0.0803  0.1940
14863W        W30332   0.682  15.801   1.342  0.0012  0.1925  0.1979
14864W        W30333   4.411  15.963   4.497 -0.0913 -0.1250 -0.0682
14865W        W30334  14.017  17.574   3.086 -0.0361  0.1328  0.2322
14866W        W30335  14.792   6.806   3.552  0.4422 -0.2128 -0.0126
14867W        W30336   4.646  14.692   2.119 -0.0232  0.0082  0.0996
14868W        W30337   6.493   9.536  13.457 -0.1827  0.1945  0.1854
14869W        W30338  11.300  11.556  14.085 -0.2437 -0.1402 -0.0933
14870W        W30339  11.566   2.509   0.521 -0.0892  0.2544 -0.1590
14871W        W30340  12.669  12.508  12.855 -0.1719  0.3754 -0.2646
14872W        W30341   2.853   9.790   2.372 -0.4628 -0.0111  0.2028
14873W        W30342   8.796  12.208  10.249  0.0196  0.3010  0.1042
14874W        W30343   7.799  12.219  10.745  0.1075 -0.1910 -0.1410
14875W        W30344   5.436  13.216   3.290  0.2560  0.1250 -0.2269
14876W        W30345   9.690  14.329   1.337  0.1879 -0.1125  0.2411
14877W        W30346   5.374   9.564  14.016 -0.2566  0.0934 -0.0451
14878W        W30347  10.964  14.493  14.604 -0.1520  0.1939  0.2691
14879W        W30348   5.887  12.945   1.919  0.1592 -0.1682 -0.3771
14880W        W30349   2.058   4.725   1.060  0.0119  0.1339  0.4434
14881W        W30350  17.291   7.698  14.813  0.2441 -0.1961  0.1147
14882W        W30351  12.945   6.648  16.122  0.0501 -0.0732 -0.1319
14883W        W30352   2.935  11.824   3.790  0.0054  0.1436  0.2890
14884W        W30353  12.624  17.929  15.288  0.0848 -0.1317  0.2419
14885W        W30354   5.152   4.496  15.018  0.0048  0.1297 -0.1916
14886W        W30355  11.756   4.968  15.335  0.2204  0.0842 -0.2286
14887W        W30356   8.483  12.882   2.315 -0.0935 -0.1407  0.0778
14888W        W30357   9.382  17.866   2.411 -0.2951  0.0170  0.2500
14889W        W30358   2.341  14.267  11.389 -0.0702  0.0199 -0.3347
14890W        W30359  17.055   4.501  13.102 -0.0576 -0.0037  0.3742
14891W        W30360   4.274   8.772   0.490 -0.0862 -0.4387 -0.2420
14892W        W30361  14.833  17.068   0.512  0.2881 -0.0849 -0.0327
14893W        W30362   9.861   8.875   3.949 -0.0449 -0.1069 -0.2744
14894W        W30363   6.111  17.160  15.849  0.0209 -0.1233 -0.1498
14895W        W30364   5.314  15.247  15.550 -0.0362  0.0436 -0.0858
14896W        W30365  11.294   4.512   5.929 -0.1125 -0.0070  0.2949
14897W        W30366   1.963   4.971  15.075 -0.2072 -0.2003 -0.2209
14898W        W30367   2.452   1.223   1.188 -0.1513 -0.3816 -0.4526
14899W        W30368   5.245   9.699   1.660 -0.0836 -0.3250  0.1884
14900W        W30369  16.679   4.707   3.304  0.2453 -0.0840  0.0742
14901W        W30370   3.547   3.676  13.618 -0.1622 -0.0254  0.4733
14902W        W30371  12.332   0.963   5.325  0.1453  0.1493  0.0131
14903W        W30372  12.173   2.274   3.698  0.0629  0.0369  0.1976
14904W        W30373   2.877  12.347  12.761  0.0620 -0.0447  0.0750
14905W        W30374   3.523   4.183   1.160 -0.0008  0.0511  0.0789
14906W        W30375   2.971  11.168  14.520 -0.1484  0.2733  0.1160
14907W        W30376  17.314   0.269   3.418  0.0251 -0.1840 -0.2583
14908W        W30377  17.287   1.526   2.475  0.2525 -0.0726 -0.1078
14909W        W30378  13.144  14.924  10.726 -0.2083  0.2386  0.1377
14910W        W30379  14.684  18.054  14.831 -0.1122 -0.0251 -0.0655
14911W        W30380  16.248  14.721   4.127  0.1934 -0.0272  0.1853
14912W        W30381   7.506  15.849   3.586 -0.1147 -0.1851 -0.1132
14913W        W30382   6.726   6.783  14.381  0.2142 -0.0797  0.1170
14914W        W30383  10.124   4.163   4.527  0.0244 -0.1384  0.0394
14915W        W30384   8.860   2.422  15.393 -0.2456  0.0866  0.0875
14916W        W30385   5.512  10.401   3.554 -0.0245  0.1927  0.1068
14917W        W30386   6.789   4.280   2.096  0.2796 -0.3347  0.3147
14918W        W30387  17.301  14.610   2.790 -0.0086  0.2658  0.1800
14919W        W30388   9.501   3.359  13.882  0.2497  0.2402 -0.1105
14920W        W30389   2.611   5.133   2.652  0.0632  0.0628  0.3104
14921W        W30390   5.119  10.075  14.004 -0.0686  0.1005 -0.3162
14922W        W30391   6.665  14.365  11.240  0.1171  0.1601  0.2369
14923W        W30392   6.402   6.859   5.091  0.0215 -0.1148  0.2978
14924W        W30393  11.413  16.012  14.290  0.0912 -0.1502 -0.1741
14925W        W30394   2.869  10.246   5.602 -0.1708 -0.0178  0.0729
14926W        W30395  12.265   2.171  12.353 -0.1724  0.4032 -0.2285
14927W        W30396   3.835   2.092   0.515 -0.2632  0.1740  0.0077
14928W        W30397   0.295  14.031   2.997 -0.0363 -0.0733 -0.0132
14929W        W30398   0.401   4.003  15.659  0.0314 -0.0670 -0.0545
14930W        W30399   9.565  14.784  11.213  0.3104  0.1227  0.3468
14931W        W30400   8.411   9.358   3.264 -0.0244 -0.0013 -0.2751
14932W        W30401   7.690  12.734   2.093  0.1159 -0.3408  0.0919
14933W        W30402  16.266   1.572   3.974 -0.1854  0.0060 -0.2469
14934W        W30403   8.076   6.317  14.470 -0.2072  0.2891  0.0635
14935W        W30404  16.011   1.875  14.369 -0.1788  0.0287  0.1344
14936W        W30405   0.761  12.251   4.578 -0.0764  0.0196 -0.2278
14937W        W30406  14.110   9.109   3.358  0.0162  0.1479  0.0185
14938W        W30407  11.520  11.999   5.192  0.3635 -0.0784  0.0473
14939W        W30408  11.897   3.703  15.608 -0.3742 -0.2869  0.0179
14940W        W30409   0.802   8.150   5.637 -0.4593  0.0284  0.1077
14941W        W30410  10.354  14.913   0.161  0.1290  0.0170  0.0748
14942W        W30411   1.081  16.229  12.841 -0.1392 -0.0997  0.1492
14943W        W30412  15.607   6.712   2.707  0.0865 -0.1487  0.1302
14944W        W30413  13.762  11.114   1.645 -0.1607 -0.0716  0.1049
14945W        W30414  16.198   8.636  11.412  0.1073 -0.1831 -0.0325
14946W        W30415   0.963  14.818   5.956  0.0333  0.2427 -0.2569
14947W        W30416   7.240  12.657   4.531 -0.0906  0.1743  0.1244
14948W        W30417  17.288  13.553   3.224 -0.0657  0.3384 -0.0054
14949W        W30418  11.749   8.322  13.352  0.0744 -0.1384  0.0465
14950W        W30419   2.727  14.925   1.469 -0.1528  0.1071  0.1886
14951W        W30420  13.892  15.410  15.577  0.1230  0.1151  0.0764
14952W        W30421  10.550   0.102   4.662 -0.0195  0.0444  0.0754
14953W        W30422  15.046  13.060  14.847 -0.0171  0.1052  0.1892
14954W        W30423  18.229   1.863   2.696  0.1233  0.0861  0.1074
14955W        W30424   8.426   1.835   3.583 -0.2421 -0.0657  0.0936
14956W        W30425   0.511   3.583   4.085 -0.0173 -0.2400 -0.1088
14957W        W30426   2.896  16.476  13.797  0.1115  0.0041  0.1074
14958W        W30427  10.565   1.662  11.629 -0.3077  0.2691  0.0125
14959W        W30428   7.482   6.278  14.544  0.2586  0.0222  0.2737
14960W        W30429  11.090   0.900  11.774 -0.0321  0.0868 -0.1880
14961W        W30430   7.932  12.470  11.228  0.0465 -0.0866 -0.0150
14962W        W30431  14.035  17.025  14.178 -0.0034 -0.0282  0.1600
14963W        W30432   4.751   6.557  11.255  0.1483  0.3404 -0.1685
14964W        W30433  12.184   6.324  15.300  0.1996  0.0945  0.1272
14965W        W30434   9.199  16.867   2.341  0.1514 -0.1316  0.3723
14966W        W30435   7.394   8.856   1.577  0.0555  0.1638  0.1775
14967W        W30436   3.289   6.953   1.622 -0.3869  0.0737  0.1379
14968W        W30437  11.763   8.436   5.610  0.1177  0.1902  0.1687
14969W        W30438  17.208   4.271  15.972 -0.3760  0.2463  0.1197
14970W        W30439   0.684  12.051  14.606  0.1176 -0.0572 -0.0219
14971W        W30440   4.457  15.991   1.992 -0.2939  0.1739  0.3346
14972W        W30441  17.753   0.697   0.602  0.3886  0.0430 -0.3699
14973W        W30442   4.176   8.340   4.426 -0.2342  0.0202  0.1709
14974W        W30443  11.831   6.159  14.039  0.1264  0.0675  0.1573
14975W        W30444   4.942   8.477   0.063  0.2474  0.1307 -0.0851
14976W        W30445  15.573  16.431   1.844  0.0294 -0.0610 -0.0223
14977W        W30446  13.256   9.423   1.766 -0.1998  0.1916 -0.2780
14978W        W30447  15.875   0.788  12.750 -0.0525  0.0495  0.0133
14979W        W30448  15.148   8.486  15.466  0.1324 -0.2207  0.0903
14980W        W30449   8.914   7.351  14.489  0.1168  0.2337 -0.2777
14981W        W30450   2.001  12.424  13.150 -0.2550  0.2961 -0.1809
14982W        W30451  13.666   2.716  12.149  0.0141  0.0075  0.2644
14983W        W30452   1.173  16.759   4.631  0.4071 -0.0460  0.3143
14984W        W30453   1.022  12.942  10.719  0.0317 -0.0337  0.0775
14985W        W30454  11.594   3.385   1.717  0.2292  0.2442 -0.4412
14986W        W30455  16.507  12.351   1.548 -0.0732  0.1902  0.0582
14987W        W30456   6.655   4.174  14.666 -0.0236  0.0786 -0.2858
14988W        W30457   9.465  16.618   2.662  0.2260 -0.0369 -0.0372
14989W        W30458   8.865   7.388   3.741  0.1685  0.2401  0.0915
14990W        W30459   7.318   4.099   1.857 -0.2230  0.0275 -0.1225
14991W        W30460   0.305  12.427   5.401 -0.0091 -0.1572 -0.0727
14992W        W30461   2.672   3.835  14.419  0.1011  0.3112 -0.1008
14993W        W30462   9.612   8.617  14.537 -0.2207 -0.1162  0.0649
14994W        W30463   2.906  13.522  11.472  0.2309  0.1841  0.0382
14995W        W30464   1.417  10.104  15.161 -0.0503 -0.0388  0.0607
14996W        W30465   9.629   0.193  15.475 -0.1156 -0.1690  0.1516
14997W        W30466  18.090   3.342  10.631  0.1557  0.1831  0.0181
14998W        W30467  17.397  15.247  11.140 -0.3480  0.1880 -0.1065
14999W        W30468   0.285   9.553   4.679  0.2134  0.2625  0.0039
15000W        W30469   0.944   3.032   1.820 -0.1213  0.0873 -0.0890
15001W        W30470  12.926  11.321   4.254 -0.2109 -0.0821  0.1862
15002W        W30471   1.971   1.133  13.758 -0.1927 -0.2242  0.0942
15003W        W30472   6.685   5.140  11.458  0.2989 -0.1102  0.0039
15004W        W30473  15.898   8.215  11.483 -0.0291 -0.1513 -0.2971
15005W        W30474  16.154  10.440   0.659 -0.2133  0.2179 -0.1744
15006W        W30475  12.489  11.189  12.378 -0.0893 -0.0694  0.0103
15007W        W30476   6.983  18.104   3.970 -0.2245  0.4225 -0.0065
15008W        W30477  16.074   7.450   0.243 -0.1115 -0.0397 -0.0144
15009W        W30478  10.680  11.875   3.878 -0.2634 -0.0966  0.2018
15010W        W30479  18.005  14.471   2.525 -0.1664 -0.0367  0.0492
15011W        W30480  15.410   7.210   1.506 -0.0712 -0.1493  0.2413
15012W        W30481   6.277   1.578  10.153  0.0582 -0.5243  0.0348
15013W        W30482  13.635   5.822  10.728 -0.2278 -0.0314 -0.1823
15014W        W30483   5.314   8.784  12.265 -0.3040 -0.0672  0.2964
15015W        W30484   8.424   2.421  14.448 -0.0543 -0.0107  0.1677
15016W        W30485  16.556  12.617   1.110 -0.1844 -0.0260 -0.0549
15017W        W30486   3.489   2.574  13.397 -0.2156  0.1875  0.1182
15018W        W30487   7.501   8.246  11.818 -0.1933  0.0034  0.0707
15019W        W30488   7.298   6.235  12.619 -0.0717 -0.1474 -0.1329
15020W        W30489   7.730   0.235   1.681 -0.2961  0.0044  0.0099
15021W        W30490  17.845  18.233   6.030 -0.1146  0.1251 -0.0852
15022W        W30491  11.418   6.164  15.662 -0.1336  0.1200 -0.2720
15023W        W30492   1.122  15.764  15.040 -0.1472 -0.1297  0.1568
15024W        W30493   5.951   4.651   2.500  0.0059  0.1824  0.0319
15025W        W30494   1.290  11.498  11.835 -0.0812 -0.3143  0.0921
15026W        W30495   5.966   7.491   3.309 -0.1438  0.0187 -0.0320
15027W        W30496   7.134  10.996   1.951 -0.3231  0.5121 -0.1284
15028W        W30497   6.167   0.233   2.843 -0.1280 -0.0625 -0.2962
15029W        W30498   9.860   3.225  14.913 -0.0585  0.0302  0.2362
15030W        W30499  18.084  14.590   0.177 -0.1070  0.0751  0.1448
15031W        W30500   3.012  13.335   3.703 -0.0419  0.2095  0.0932
15032W        W30501   9.213  16.977  15.812  0.0325  0.1786 -0.0698
15033W        W30502  12.899  13.135   0.006  0.1084  0.0641 -0.0901
15034W        W30503  12.751   3.210   0.769 -0.0199  0.0891  0.0756
15035W        W30504  17.230   0.664   1.447  0.1373  0.1096 -0.1154
15036W        W30505  13.997   4.133  15.385  0.0662  0.3309  0.3811
15037W        W30506  10.568   3.096   4.520 -0.1253  0.0586  0.1313
15038W        W30507   8.059   3.621   5.861  0.0077  0.2311  0.1144
15039W        W30508  12.947  17.720   0.095 -0.0064 -0.1236 -0.4280
15040W        W30509  15.358   7.314   0.717 -0.1076  0.0846  0.3538
15041W        W30510   4.060   8.053   4.072  0.0741  0.0589 -0.0864
15042W        W30511  17.073  16.382  13.831  0.1493 -0.0814  0.1621
15043W        W30512   0.052   7.446  13.438  0.1808 -0.2812 -0.3085
15044W        W30513   8.429   2.587  15.927  0.0975 -0.2382 -0.1208
15045W        W30514  12.036  13.109  13.408 -0.0128  0.1765 -0.0412
15046W        W30515   9.152   3.527   0.926  0.0691  0.0775  0.0616
15047W        W30516  13.180   1.938   0.832  0.0215 -0.1617  0.3018
15048W        W30517  11.464  12.747   0.322  0.2998 -0.1230  0.0061
15049W        W30518  12.217   4.404   5.012 -0.3181  0.1659 -0.4093
15050W        W30519   0.992  14.988   2.230 -0.4206 -0.0900 -0.1301
15051W        W30520   9.169   0.476   5.577  0.1828 -0.0697  0.0454
15052W        W30521   9.801  14.428  14.552 -0.0141 -0.0887 -0.1861
15053W        W30522   8.987   9.624  10.898  0.1040 -0.1980  0.1813
15054W        W30523  11.440  13.155   0.711  0.3212  0.0925 -0.0740
15055W        W30524   4.713   4.453   2.453 -0.1437  0.2765 -0.1445
15056W        W30525  15.269  17.296  13.993  0.3428 -0.0702  0.2146
15057W        W30526   4.316  14.497  12.368  0.1297 -0.2807 -0.0396
15058W        W30527   6.492   6.133   4.420  0.0860  0.1092  0.0459
15059W        W30528   9.478  10.849   3.965  0.1929 -0.2248  0.3243
15060W        W30529   9.976   3.227   1.043 -0.0734  0.0231  0.0510
15061W        W30530   8.733   7.173   1.024  0.0158  0.2942  0.1146
15062W        W30531   5.789  10.899  11.359  0.2856  0.1990 -0.1105
15063W        W30532   7.219   4.383   2.359  0.0479  0.1781 -0.4277
15064W        W30533   4.856  16.711   4.864 -0.0844  0.2103  0.3545
15065W        W30534  11.524   4.297  13.514  0.0210 -0.0854  0.0140
15066W        W30535  12.136  17.949   1.382 -0.1384  0.3107  0.3059
15067W        W30536   8.675  12.766   5.817 -0.0765 -0.2878  0.0155
15068W        W30537  10.084   0.240  15.652  0.0467 -0.0271  0.2406
15069W        W30538   4.021  16.693  12.473 -0.0231  0.0872  0.0502
15070W        W30539  12.718  11.292   2.900 -0.0225  0.0395  0.1530
15071W        W30540   8.109  16.607  11.447 -0.1352  0.3098  0.1376
15072W        W30541  12.167   6.507   1.796  0.1106  0.1795  0.0987
15073W        W30542   3.992   5.849   1.915 -0.0432 -0.1180 -0.1655
15074W        W30543   7.849   6.432   0.928  0.1670  0.1381 -0.3742
15075W        W30544   7.354   2.365  13.841  0.1389  0.0203  0.1294
15076W        W30545   3.256   8.804   3.621  0.1887  0.1583 -0.1871
15077W        W30546   5.390  10.707  11.798 -0.3487 -0.0907 -0.2655
15078W        W30547   3.598   6.119  14.834  0.1148 -0.3630 -0.0393
15079W        W30548  12.446   7.776   0.802  0.1635  0.0372 -0.0028
15080W        W30549   0.886   5.341   5.471  0.1759 -0.1291 -0.4316
15081W        W30550  15.203  14.244   3.287  0.0964 -0.1479  0.2509
15082W        W30551   8.731   4.073  14.654 -0.2785  0.1216 -0.0605
15083W        W30552   9.082  10.090  14.276 -0.2103 -0.2778  0.0710
15084W        W30553  17.360  11.577   4.587  0.3503 -0.1533 -0.1962
15085W        W30554  12.667   8.693   3.600 -0.0246  0.0154  0.0106
15086W        W30555   3.312  16.264  15.035 -0.1366  0.0535 -0.0144
15087W        W30556   8.665  14.893   4.493  0.1597  0.2959  0.0164
15088W        W30557   2.232   1.494  11.852  0.0061  0.1637 -0.0279
15089W        W30558  13.748  12.937  15.924  0.1484  0.0179 -0.0639
15090W        W30559   7.466  12.048   5.778 -0.0632 -0.0693  0.0279
15091W        W30560   3.007  10.369   2.954  0.1553  0.2948  0.0774
15092W        W30561   2.096  15.421   3.426  0.2503 -0.0235 -0.2057
15093W        W30562  10.344   8.869   5.211  0.2057 -0.1040 -0.0567
15094W        W30563   9.805   6.512  10.951 -0.2707 -0.2480  0.1508
15095W        W30564  14.110  16.637   3.844 -0.2706  0.0827 -0.4741
15096W        W30565  17.842   1.726  13.065 -0.1373 -0.0010  0.1451
15097W        W30566   4.231   2.448  13.919  0.2214  0.5139  0.2618
15098W        W30567   9.993  11.038  15.730  0.0481 -0.2683  0.4169
15099W        W30568   6.273   5.838   3.269 -0.0053  0.2473  0.0252
15100W        W30569   9.782  12.922   2.759 -0.0043 -0.0266 -0.3195
15101W        W30570   4.519  16.511   2.073 -0.1806  0.1369 -0.1240
15102W        W30571   4.925   9.602  13.774 -0.0719 -0.1938 -0.0982
15103W        W30572   0.557  11.635  15.379 -0.1277 -0.0720  0.1261
15104W        W30573   4.543  15.101   2.350  0.2119  0.0818 -0.2572
15105W        W30574   3.445  18.198   5.088  0.0990  0.0508  0.1411
15106W        W30575  13.416  13.336   0.430  0.1886  0.0258  0.3863
15107W        W30576   5.503  12.856  15.522 -0.0230 -0.0817  0.2003
15108W        W30577   7.735   2.106  12.740 -0.1553 -0.2520  0.1564
15109W        W30578  11.895  10.597  13.439 -0.1984 -0.4845  0.0136
15110W        W30579   1.653   5.441  13.951 -0.3772 -0.0721 -0.0678
15111W        W30580   6.152  16.593  12.630  0.2264  0.0536  0.1610
15112W        W30581  14.441   9.829  11.406  0.1200  0.0137  0.0162
15113W        W30582  11.230   1.893   1.540 -0.2324 -0.1208  0.2635
15114W        W30583   6.435  11.589   2.199 -0.0356 -0.1600 -0.1539
15115W        W30584   7.452  15.876  11.613 -0.3878 -0.1248 -0.1003
15116W        W30585  17.583  13.865   9.928  0.1138 -0.0966 -0.2006
15117W        W30586   9.920  11.241  11.015 -0.0462  0.2521  0.0549
15118W        W30587   5.285  11.151  11.069 -0.1903  0.0633  0.2891
15119W        W30588  16.817   8.195  11.987  0.2880  0.1666 -0.1214
15120W        W30589   7.250   6.897   0.927  0.3200 -0.2528  0.0469
15121W        W30590   4.200   1.505  11.100  0.0888 -0.2003  0.1876
15122W        W30591  12.263  17.234   4.745  0.2342  0.1573 -0.0485
15123W        W30592  11.040   9.061  13.371  0.2545 -0.0831  0.0669
15124W        W30593   7.745  14.353   4.646  0.2169 -0.2627  0.3575
15125W        W30594   9.425  16.275   5.903  0.1575  0.2327  0.0546
15126W        W30595   9.152   5.058  12.824  0.1060  0.0052 -0.3547
15127W        W30596   2.895   6.775   3.247 -0.1769  0.0471  0.0828
15128W        W30597   0.317   0.186  10.831 -0.2016  0.1069 -0.1998
15129W        W30598  16.819  16.637  12.951 -0.2360 -0.0513 -0.0361
15130W        W30599   1.879  17.143   2.927 -0.1049  0.0557 -0.2796
15131W        W30600  14.523  13.941  14.835 -0.0072 -0.0705  0.0398
15132W        W30601   8.002   9.885  10.234  0.0750 -0.1265  0.0974
15133W        W30602   3.049  12.169  12.311 -0.0008  0.0697  0.0742
15134W        W30603   1.597  16.374  13.792 -0.1257  0.2341  0.0102
15135W        W30604  18.055   6.365   2.245 -0.0750 -0.3676 -0.0460
15136W        W30605   8.396   1.215  10.741 -0.2485 -0.1127  0.0131
15137W        W30606  11.680   3.752   4.467 -0.0754  0.1477  0.0314
15138W        W30607   6.867   3.705  15.400 -0.1522  0.0833 -0.0344
15139W        W30608   4.973   6.730   5.664  0.5120 -0.2039  0.1545
15140W        W30609  13.466  12.251  11.053  0.1894 -0.2701 -0.0203
15141W        W30610  13.498  18.014  12.904 -0.0822  0.0494 -0.0721
15142W        W30611  10.531   1.002  15.103  0.0223  0.1972 -0.0004
15143W        W30612   2.837   6.426  10.710 -0.0323  0.0147  0.1174
15144W        W30613   8.534  12.616   5.079 -0.0685  0.2441 -0.4333
15145W        W30614  15.091   1.576   0.180 -0.0294 -0.1442 -0.0192
15146W        W30615   0.344  13.261  14.208 -0.2111  0.0439 -0.1166
15147W        W30616  11.000   7.594  11.579 -0.0976 -0.1112  0.4409
15148W        W30617  17.920  13.166   1.835  0.1416  0.2225 -0.1309
15149W        W30618  14.905  14.205  11.522  0.0395 -0.4173  0.3561
15150W        W30619  12.317   0.129   0.575  0.4514 -0.0865  0.2571
15151W        W30620  16.252  17.303  13.906  0.1137 -0.0454 -0.0587
15152W        W30621  14.327   2.720   5.561 -0.2201 -0.0452  0.3265
15153W        W30622   0.861   0.376   1.913 -0.3754 -0.2898  0.2936
15154W        W30623  12.450   1.991  14.208  0.1096  0.0393 -0.0804
15155W        W30624   9.984  16.413   1.377  0.1629 -0.1528 -0.0547
15156W        W30625  10.706  17.392  13.726  0.2696  0.0946 -0.0415
15157W        W30626  17.577  16.603   1.035  0.1292  0.0462 -0.0860
15158W        W30627  16.833   4.781   3.755  0.0066  0.1440  0.1787
15159W        W30628   5.236   6.053   4.953 -0.1252 -0.2938  0.1443
15160W        W30629  11.430   2.855   0.235 -0.1623 -0.0912  0.0362
15161W        W30630   7.267   7.994   1.938  0.2600 -0.0726  0.0185
15162W        W30631  13.559  14.992   5.111  0.0327  0.0180 -0.1041
15163W        W30632   8.242  10.163   1.331  0.1959 -0.1155  0.0512
15164W        W30633   7.849   7.624  13.683 -0.0137 -0.0573 -0.0802
15165W        W30634  17.247   7.102   3.071  0.0258 -0.3704  0.0453
15166W        W30635  10.618   8.388  11.276 -0.2748  0.1685  0.0839
15167W        W30636  13.703   4.757   3.815 -0.1031 -0.0038 -0.3148
15168W        W30637   0.619  16.849   0.027  0.2240  0.0361  0.0860
15169W        W30638   7.652  17.018  11.648  0.1676  0.1641 -0.2187
15170W        W30639   1.849   7.299  11.510  0.1249 -0.1394  0.0982
15171W        W30640   8.885  13.052   3.188 -0.1516  0.2248  0.3331
15172W        W30641  12.536   9.030  13.371 -0.0283  0.0142  0.0754
15173W        W30642  12.690   6.550  14.518  0.0336  0.1626  0.2512
15174W        W30643   1.509   1.893   0.273 -0.2567  0.4038  0.0656
15175W        W30644   1.503   1.265   5.503  0.4157 -0.2334  0.1533
15176W        W30645  15.704  15.327  11.821  0.0476 -0.1842 -0.1065
15177W        W30646   3.049   3.197   1.667  0.1532  0.0424 -0.1290
15178W        W30647   9.223  15.185   1.349 -0.1484 -0.1310  0.1956
15179W        W30648  16.494   4.717   2.870  0.0368  0.1574  0.2382
15180W        W30649   3.213   2.288  15.526 -0.1802 -0.1864 -0.0573
15181W        W30650   7.038   1.616  11.431 -0.1976  0.0019 -0.0198
15182W        W30651   3.352   5.098  16.109 -0.0111 -0.0531  0.0385
15183W        W30652  17.246  18.151   1.912  0.2134 -0.1183  0.1719
15184W        W30653  12.753  10.229  12.284  0.1947 -0.1343  0.0281
15185W        W30654  11.856  10.711   2.863 -0.1665  0.0954 -0.2367
15186W        W30655  14.773   9.426   4.147  0.0051  0.2722 -0.0871
15187W        W30656   5.805   5.690   3.579  0.3196 -0.3139 -0.0717
15188W        W30657   0.837  14.313   4.170 -0.1916  0.1965 -0.2146
15189W        W30658   4.557   8.247  13.458 -0.0293 -0.1788 -0.0037
15190W        W30659   4.098  14.856  11.434  0.1683  0.1050 -0.0753
15191W        W30660  13.135  11.414  13.394  0.2001  0.2295 -0.0673
15192W        W30661   9.753   5.646   3.745  0.0569 -0.1547  0.1036
15193W        W30662   6.880  10.961   9.767 -0.0048 -0.1751  0.2816
15194W        W30663  13.905   4.368   4.129  0.0122 -0.3273  0.1490
15195W        W30664   3.524  16.942   2.804  0.0070 -0.0785  0.1782
15196W        W30665   7.120   6.597  12.961  0.2296 -0.0860 -0.2120
15197W        W30666   5.510   8.994   4.530  0.2273  0.2868  0.0748
15198W        W30667   2.334   6.528  11.601  0.0605 -0.1066  0.1705
15199W        W30668   9.659   4.587   1.225  0.1020 -0.2446  0.0403
15200W        W30669   2.378   5.344   1.555 -0.0058 -0.2502 -0.0818
15201W        W30670  12.807   8.250   2.324 -0.3218 -0.1903 -0.1665
15202W        W30671   0.790  16.900  15.706  0.4375 -0.2586 -0.0009
15203W        W30672  17.979   2.389   2.755 -0.2725  0.0429 -0.1226
15204W        W30673  17.519   4.334   2.921 -0.3065 -0.1128 -0.0950
15205W        W30674  16.327   1.008   1.158  0.3965 -0.2638 -0.0537
15206W        W30675   0.649   0.573  14.100 -0.1272 -0.0429  0.2172
15207W        W30676  11.913   8.117  12.637  0.1847  0.2253 -0.0630
15208W        W30677   0.565   4.428   4.794  0.0479 -0.0470 -0.0773
15209W        W30678  10.366  12.002  15.686  0.3075 -0.4310 -0.2254
15210W        W30679  13.071   0.481   5.176  0.0551 -0.1886  0.0951
15211W        W30680   4.617  12.059  12.555 -0.3945  0.0054  0.3685
15212W        W30681   9.193  13.155   0.652  0.0662 -0.1138 -0.0598
15213W        W30682  11.528   0.271  12.614  0.0382 -0.2459  0.0378
15214W        W30683   9.490   1.748  13.274  0.0125 -0.1134  0.1760
15215W        W30684   7.577  15.124  14.032 -0.0377  0.0377 -0.0779
15216W        W30685  17.865   4.293  11.581  0.0823 -0.2355  0.0369
15217W        W30686  16.733  17.674  12.270  0.3149  0.2022  0.0040
15218W        W30687  11.193   4.726  14.058 -0.0825  0.1552  0.1254
15219W        W30688   4.677  17.644  11.500 -0.0912  0.0153 -0.0080
15220W        W30689   1.938   3.913   3.725  0.0474 -0.2245  0.3211
15221W        W30690   2.327  16.644   3.673  0.2132 -0.3439  0.2343
15222W        W30691  17.994   3.848  11.193 -0.0710  0.2918  0.2295
15223W        W30692  15.124   4.374   5.488 -0.0007  0.1743  0.0335
15224W        W30693  17.926   6.480  11.511  0.1177  0.1237  0.0381
15225W        W30694  13.792   1.800   0.053  0.2486 -0.2007  0.2138
15226W        W30695  14.833  15.395  12.021 -0.1765 -0.1037  0.0519
15227W        W30696   9.014   0.054   3.784 -0.1576 -0.2588 -0.3892
15228W        W30697  12.654   8.092   4.356 -0.1544  0.1325  0.0870
15229W        W30698   5.735  17.437  12.352  0.1069 -0.0815 -0.0136
15230W        W30699   2.210   7.538   5.753 -0.3751 -0.1606 -0.0882
15231W        W30700   6.271   8.679   5.203  0.1321 -0.0672 -0.1199
15232W        W30701  13.067   1.030  15.143 -0.0642 -0.0303 -0.0259
15233W        W30702   7.964   0.379  14.818  0.3136  0.1119 -0.0265
15234W        W30703  16.859   6.910  15.182 -0.2014  0.1513 -0.0121
15235W        W30704   6.907  15.826   0.430  0.2954  0.0355 -0.0015
15236W        W30705   5.567   4.732  16.037 -0.1924 -0.0476  0.1348
15237W        W30706   0.548   6.635   3.691  0.2266  0.0443  0.0658
15238W        W30707   4.378  17.669   2.380  0.1175 -0.0758 -0.0687
15239W        W30708   5.964   3.726   5.667  0.0763  0.4070  0.0132
15240W        W30709   2.841  10.417  13.695  0.0894  0.0243 -0.0971
15241W        W30710   5.805  12.751  12.668  0.4161  0.1183  0.1233
15242W        W30711   1.317   5.560  13.187  0.1859 -0.0206  0.0360
15243W        W30712   7.785  10.530   3.803  0.2715 -0.0079 -0.0593
15244W        W30713  13.551   1.363  10.742 -0.4838 -0.1319 -0.0752
15245W        W30714   8.180  10.895  13.229  0.1532 -0.2402  0.2149
15246W        W30715  12.521  10.208   4.493 -0.1749 -0.0328 -0.0404
15247W        W30716   5.949   7.099  15.823 -0.2895  0.2279 -0.0660
15248W        W30717  13.431  12.076   2.416 -0.0158  0.1299  0.1453
15249W        W30718   7.981   3.224   0.390  0.1135  0.3064 -0.0999
15250W        W30719  15.039  13.934   1.649 -0.1892 -0.1058 -0.0302
15251W        W30720   7.626   2.704  11.527 -0.2494 -0.2032 -0.2389
15252W        W30721   8.445  16.489  14.104  0.1700 -0.3980  0.1529
15253W        W30722   3.187   0.921  13.525  0.0865  0.0192 -0.1342
15254W        W30723   8.708  15.229  12.737 -0.1436 -0.0023 -0.1334
15255W        W30724  17.615  10.258  15.664 -0.0213  0.0970  0.0317
15256W        W30725  13.400   4.055  12.713 -0.3872  0.3291 -0.2601
15257W        W30726   9.420   1.742   5.853 -0.2593  0.0198 -0.1906
15258W        W30727   7.467   1.831   2.894 -0.1292 -0.1136 -0.1635
15259W        W30728   1.757   9.933   1.587 -0.0457 -0.2153  0.2885
15260W        W30729  13.925  12.375   2.428  0.2349  0.0105  0.0806
15261W        W30730   3.135   1.359  12.716  0.5136 -0.0246 -0.0215
15262W        W30731   2.402   6.049   3.829 -0.0289 -0.0168  0.3897
15263W        W30732   5.679   0.254  14.872 -0.1255 -0.0970  0.0443
15264W        W30733  11.533   0.727   0.263  0.2589 -0.0358  0.0153
15265W        W30734   8.588   2.825  14.670  0.1309 -0.1075  0.1872
15266W        W30735  16.554  12.814  15.360  0.0299  0.3325  0.2701
15267W        W30736   2.835   8.491   0.567  0.0323  0.3283  0.1137
15268W        W30737   2.021  11.279  12.139 -0.1989  0.5823 -0.2972
15269W        W30738  13.329   6.776   1.770  0.1094 -0.2805  0.2686
15270W        W30739  16.353   9.740   0.001  0.0995  0.2184  0.2275
15271W        W30740  13.357  10.874   1.209 -0.1786  0.0008  0.1242
15272W        W30741  15.194   5.496  15.097  0.2745  0.0989 -0.1186
15273W        W30742  12.947   7.907   0.247 -0.0832 -0.1756  0.3947
15274W        W30743   5.037  17.209  13.233 -0.0181 -0.1505 -0.1273
15275W        W30744   1.195  12.811   1.135  0.1294  0.1500 -0.1225
15276W        W30745  13.940   8.361   4.629 -0.0389 -0.0548 -0.2163
15277W        W30746  15.254   8.412  14.768  0.3359  0.0101 -0.1772
15278W        W30747   2.502  13.494   2.809 -0.2065  0.1735  0.3861
15279W        W30748  11.012   6.352   3.321  0.3619 -0.0316 -0.0685
15280W        W30749   8.925   6.237   0.873 -0.1798  0.1761 -0.3187
15281W        W30750  10.099  10.272  12.975 -0.2263  0.0205 -0.0071
15282W        W30751   0.659  16.194  11.119  0.2162 -0.4324  0.1519
15283W        W30752   1.103   3.226  13.804  0.3370 -0.2156 -0.0540
15284W        W30753   3.849   5.542   1.106 -0.1199  0.2335  0.1031
15285W        W30754   2.272   9.215   3.571 -0.0540 -0.3322 -0.0610
15286W        W30755  16.419   6.053  14.388 -0.0278 -0.3459 -0.0275
15287W        W30756   7.359   8.000  14.330 -0.0368  0.0929  0.0016
15288W        W30757  14.632   2.010   4.306 -0.0558  0.1403 -0.0451
15289W        W30758  12.451  17.417  12.391 -0.1349  0.0850  0.2497
15290W        W30759  14.822   6.368   1.503 -0.1560 -0.3254  0.2016
15291W        W30760  17.413   8.606  15.594 -0.3161  0.0812 -0.1538
15292W        W30761   2.811   6.689  12.695  0.1440 -0.1267 -0.0980
15293W        W30762   5.001   3.630   2.542  0.1696 -0.0856  0.0078
15294W        W30763   7.255   1.560  14.226  0.1128  0.2429  0.0782
15295W        W30764   1.521   8.401   0.568 -0.2634  0.4111  0.1698
15296W        W30765   4.589  15.386   1.374  0.0507 -0.1851  0.3356
15297W        W30766   1.078  14.346  11.578 -0.3577  0.0386  0.1067
15298W        W30767   0.092  15.220   5.120  0.2946  0.0682  0.1432
15299W        W30768  12.873  11.857   0.536  0.0000  0.1184  0.0879
15300W        W30769   5.045   3.755   0.164 -0.0581 -0.2410  0.0301
15301W        W30770  11.472  11.701   2.464  0.0412  0.1729 -0.0566
15302W        W30771  14.527   8.747   3.632 -0.1435 -0.2869 -0.2424
15303W        W30772   7.300  14.042   1.946  0.1255  0.0903  0.0419
15304W        W30773   4.778  11.121  14.068 -0.0125  0.5070  0.0214
15305W        W30774  15.086  15.808  12.407  0.1999 -0.3351  0.0697
15306W        W30775   5.366  17.920   5.136 -0.0488 -0.1610 -0.3119
15307W        W30776   8.519   4.588  11.536 -0.2798  0.1207 -0.1386
15308W        W30777   5.912  17.336   4.082 -0.3931 -0.3214  0.1066
15309W        W30778  16.288  14.237  14.089  0.1147 -0.0914 -0.3371
15310W        W30779   0.855   6.387   3.259  0.1522  0.2829  0.0406
15311W        W30780   1.944   5.551   3.363  0.0659 -0.2118 -0.0084
15312W        W30781   6.732   7.046   0.985 -0.1102  0.0166 -0.0599
15313W        W30782   2.418   5.268   6.176  0.2792 -0.1071 -0.1912
15314W        W30783   2.549   3.575   4.534  0.1766 -0.0161 -0.2001
15315W        W30784  11.911   8.627  11.216  0.0161 -0.1895  0.1329
15316W        W30785   9.483  12.584   1.590 -0.0378  0.3423 -0.0524
15317W        W30786  10.153   7.988   1.760 -0.1257  0.0229 -0.2272
15318W        W30787  17.909   0.628   5.536  0.2167  0.0514 -0.1874
15319W        W30788  10.790  15.099  12.728 -0.3326  0.1175 -0.1037
15320W        W30789   0.972  18.123   0.090  0.0031  0.0777  0.0064
15321W        W30790  14.866  15.169  15.593  0.1687 -0.1107  0.2493
15322W        W30791  10.732   2.395   2.614 -0.1850  0.1675 -0.2383
15323W        W30792   9.466   7.810   1.271 -0.0032 -0.2201 -0.0729
15324W        W30793  10.749   9.137  12.957  0.0107 -0.0876 -0.1780
15325W        W30794   1.965  15.377  14.271  0.0226 -0.0501  0.1707
15326W        W30795   7.834   4.975  14.596  0.1215 -0.2180  0.0943
15327W        W30796   7.982  13.773   2.949  0.1964 -0.4263  0.1516
15328W        W30797   8.394  12.328  14.512 -0.2179  0.1062  0.0411
15329W        W30798  11.762  16.069  12.624  0.1866 -0.1763  0.1752
15330W        W30799   1.201   1.655  11.822  0.2621  0.2778 -0.0888
15331W        W30800  17.678   8.987  13.052 -0.0787  0.2809 -0.4184
15332W        W30801  12.606  15.062   1.266  0.1377 -0.0847 -0.2537
15333W        W30802  10.189  14.575   2.668  0.1500  0.3036  0.2101
15334W        W30803   3.928   1.868   4.017  0.1688 -0.1903  0.0972
15335W        W30804   0.636   8.600  15.068  0.2262  0.4078 -0.3225
15336W        W30805   2.107   5.931   0.121 -0.1184 -0.1008  0.0266
15337W        W30806   8.953  17.425   2.936  0.0855  0.0199 -0.0884
15338W        W30807   6.777  12.852  13.150  0.0747  0.0357 -0.0753
15339W        W30808   3.791  16.389   0.978  0.0154 -0.1609 -0.1065
15340W        W30809  15.693   2.469   5.463 -0.1347  0.0413 -0.0278
15341W        W30810   5.868   0.583   0.868  0.0633 -0.2149  0.1961
15342W        W30811   4.381  11.243  14.400 -0.0317 -0.0780 -0.0974
15343W        W30812   7.245  12.171  15.111  0.0353  0.4582  0.2592
15344W        W30813  15.190  14.685   3.558  0.0817 -0.2428 -0.3025
15345W        W30814  12.979  18.203  15.467  0.0369  0.1393 -0.1042
15346W        W30815  12.072  15.289  12.962 -0.1636  0.1916 -0.0161
15347W        W30816  10.571   7.874  11.435  0.2110 -0.1269  0.1029
15348W        W30817  18.008   8.223  11.176  0.1570  0.2252 -0.1937
15349W        W30818  17.396   8.178  14.925  0.0400 -0.3118 -0.1231
15350W        W30819   7.570  10.390   3.367 -0.0638 -0.3317 -0.0316
15351W        W30820  14.633   0.271   1.450  0.2301  0.6163 -0.1210
15352W        W30821  14.054  12.715   0.512  0.0250 -0.0259  0.0112
15353W        W30822   9.575  14.489   5.471  0.1279 -0.0373  0.0386
15354W        W30823  17.369   5.037   3.675 -0.1106 -0.1229  0.0344
15355W        W30824   6.535   6.660   2.153  0.0934 -0.1701 -0.3861
15356W        W30825  15.655  13.414   1.478  0.0251  0.1087 -0.1520
15357W        W30826  16.849   4.869  10.791 -0.0517  0.0701  0.1339
15358W        W30827  13.081   1.096   5.736 -0.1831 -0.0291  0.0056
15359W        W30828   9.531  11.531  13.101 -0.0244 -0.2626 -0.2946
15360W        W30829  18.037  16.959   3.573 -0.0013  0.3610  0.0863
15361W        W30830   0.225  12.665   0.628 -0.1657  0.0742 -0.1474
15362W        W30831  11.756   0.088  13.578 -0.2775  0.0144  0.2736
15363W        W30832  18.066  17.430  11.193  0.1385 -0.1646 -0.0662
15364W        W30833   5.527  11.756  12.896 -0.2432  0.0931  0.0652
15365W        W30834   4.402   3.019   5.010  0.2294 -0.0418 -0.0029
15366W        W30835   6.598   3.196   3.165  0.1596 -0.0062  0.0315
15367W        W30836  11.518  11.576   4.198 -0.0855  0.0050 -0.4005
15368W        W30837   3.539  18.239   1.329 -0.2390  0.3502 -0.1840
15369W        W30838  15.814   9.922  13.517 -0.3072 -0.1292  0.1682
15370W        W30839   5.095  17.330  15.709  0.0284  0.0758 -0.0650
15371W        W30840  17.529   6.436   4.651 -0.1963 -0.2267  0.2499
15372W        W30841  10.748  16.957   4.263 -0.0720  0.1035 -0.1040
15373W        W30842  16.749  17.349   2.437 -0.0619  0.0536  0.1964
15374W        W30843  16.157   2.198  14.745  0.2182 -0.5128  0.0800
15375W        W30844  15.446  14.505  12.069  0.0120 -0.0935  0.1365
15376W        W30845  15.375   3.485  14.805 -0.0773  0.0709 -0.0783
15377W        W30846   2.198  16.183  10.693 -0.1492  0.0142 -0.0973
15378W        W30847  17.922  16.955   4.156 -0.3308  0.1275 -0.0075
15379W        W30848   2.079  16.465  14.457  0.2079 -0.1963 -0.2675
15380W        W30849  10.583   9.912   4.302 -0.1820  0.0233 -0.0990
15381W        W30850  14.392  12.911   4.650 -0.1030  0.0473 -0.1981
15382W        W30851  17.174   1.314  13.429  0.0970 -0.0153 -0.1349
15383W        W30852  10.227   4.335  12.109  0.0785 -0.0582 -0.2561
15384W        W30853  15.335   3.652   3.033  0.0485 -0.2986 -0.1212
15385W        W30854  16.109   8.373   0.825 -0.3177 -0.0460 -0.1165
15386W        W30855  17.483  13.455  11.179 -0.1113 -0.0832 -0.0884
15387W        W30856  16.320  12.561  12.625  0.0404 -0.2546 -0.0855
15388W        W30857  12.214   7.063   2.449 -0.3326 -0.1335 -0.2730
15389W        W30858  15.726   9.107   1.274 -0.0186 -0.1237 -0.0521
15390W        W30859  16.758  11.331   3.395 -0.0122  0.2245  0.2107
15391W        W30860   1.770   1.711  13.008  0.0636 -0.1103  0.1353
15392W        W30861   7.656  13.481  10.604 -0.0544 -0.1066  0.1076
15393W        W30862  10.604   1.207  11.514  0.2056 -0.1867  0.0491
15394W        W30863  13.642   8.251  14.153 -0.0065  0.5033 -0.2029
15395W        W30864   4.921   6.579  15.332 -0.2850 -0.5066  0.0557
15396W        W30865  12.654   5.271   4.938 -0.1752 -0.1495 -0.1071
15397W        W30866   8.061  16.281  15.883  0.1185  0.1493  0.1709
15398W        W30867   3.707  16.589   1.582  0.1093  0.1670 -0.1574
15399W        W30868  10.483  15.107  12.316  0.2196  0.1331  0.0996
15400W        W30869  14.180  16.400  12.932  0.2852 -0.3710  0.1101
15401W        W30870  12.454   9.504  15.330 -0.2802 -0.1957 -0.0401
15402W        W30871   1.268  12.258   5.228 -0.0349 -0.0978  0.0614
15403W        W30872   8.613  13.706  13.986  0.4031  0.0802 -0.0420
15404W        W30873  12.118   1.273  13.111  0.0804 -0.0842 -0.0221
15405W        W30874   5.705   7.188   0.975  0.3855  0.1641 -0.4237
15406W        W30875   2.066   6.551   1.903 -0.1152 -0.3749 -0.2032
15407W        W30876  17.054  11.073  15.448  0.3041  0.1997 -0.2148
15408W        W30877   1.327   3.297  14.467  0.0923 -0.2248 -0.0365
15409W        W30878  17.645   9.627  13.873  0.2001  0.0025  0.3188
15410W        W30879   8.861  11.696   3.703 -0.3600  0.0673  0.0555
15411W        W30880  18.190   1.749  12.171 -0.0509 -0.0811  0.1365
15412W        W30881  17.794   2.532  14.292  0.2341 -0.0729  0.3556
15413W        W30882   6.117   1.496   1.017 -0.1203 -0.2420  0.1901
15414W        W30883  14.824  13.814   2.654  0.0483 -0.1851 -0.1340
15415W        W30884  17.194   1.016   2.396 -0.0430  0.1293 -0.1432
15416W        W30885  17.554   1.737  11.675 -0.2641  0.0134 -0.2298
15417W        W30886   0.188   0.733  14.136  0.0399 -0.0594  0.0549
15418W        W30887  17.008  16.522   4.434  0.0436 -0.0642  0.1794
15419W        W30888   0.095   8.501   0.256  0.0150  0.3581  0.3279
15420W        W30889  16.328  12.825  11.683 -0.0164 -0.2736  0.0112
15421W        W30890   7.222   3.535  14.646 -0.3020 -0.1040  0.1550
15422W        W30891   7.777   5.366  12.101  0.3074 -0.3501  0.0477
15423W        W30892   1.941  14.861  14.567 -0.0463 -0.1032 -0.1390
15424W        W30893   9.872  15.955  12.499  0.5271  0.1341 -0.0498
15425W        W30894   3.410   3.637   3.471  0.1523 -0.1143  0.2598
15426W        W30895   9.630   3.485   0.735  0.3733  0.1472 -0.0880
15427W        W30896  11.301   4.571   1.788  0.1075 -0.1564 -0.1846
15428W        W30897  11.145  15.454  15.788 -0.1679 -0.0627  0.2670
15429W        W30898  12.216   5.760   2.525 -0.2035 -0.1838 -0.1201
15430W        W30899  13.976   6.262   2.032 -0.0212  0.2193 -0.1798
15431W        W30900  13.396   6.817   0.054 -0.2854  0.0990  0.0703
15432W        W30901   3.783   1.869   1.405  0.4385 -0.0165 -0.2750
15433W        W30902   7.092  12.816  14.521  0.4058 -0.2149 -0.1448
15434W        W30903  14.715   2.430   0.042  0.2118 -0.3385 -0.0078
15435W        W30904   7.013   0.374  12.443  0.2421 -0.2107 -0.0899
15436W        W30905  13.324   1.555   4.128 -0.2917 -0.0943 -0.1294
15437W        W30906  15.782  16.232   0.514 -0.0855 -0.1703  0.1073
15438W        W30907   6.236   9.082   0.309 -0.3062  0.0101 -0.0227
15439W        W30908  16.338   9.159   3.042 -0.0127  0.1989 -0.0980
15440W        W30909   3.309  13.709   3.589  0.3076 -0.1119  0.0300
15441W        W30910   1.190  10.573  11.142  0.0807 -0.0464  0.1250
15442W        W30911  11.931  15.428   4.552 -0.0688  0.0012 -0.1582
15443W        W30912   9.593   2.020   3.853 -0.0447  0.3509  0.0359
15444W        W30913  13.680  17.677   2.065  0.0319  0.0079  0.1771
15445W        W30914  10.471   6.961  14.915  0.0974 -0.1503 -0.1784
15446W        W30915  13.812   9.148   1.544 -0.1140 -0.0374 -0.0900
15447W        W30916   2.798  12.603   2.424  0.0038 -0.1635  0.0266
15448W        W30917   0.455   2.784   4.724 -0.1372 -0.0363 -0.1692
15449W        W30918  15.745   0.373   5.570  0.1195 -0.4468 -0.0289
15450W        W30919   8.319  17.484   6.075  0.0530  0.0738 -0.1077
15451W        W30920   4.922  12.877  11.053 -0.1841  0.2980 -0.0474
15452W        W30921   1.413  17.177  15.554 -0.2593  0.0729  0.0960
15453W        W30922  11.426  10.144   2.904 -0.0264  0.2400 -0.1600
15454W        W30923   0.852  16.661  13.231  0.4726  0.2892  0.1248
15455W        W30924  14.864   3.791   6.219 -0.0535  0.3169  0.1078
15456W        W30925   0.890  15.882   4.729  0.0025  0.3893 -0.2493
15457W        W30926  10.937  13.731   0.158  0.0758  0.4790 -0.4585
15458W        W30927  11.511   8.865   5.604  0.0111 -0.0913  0.2050
15459W        W30928   5.970   2.284   6.136  0.1093  0.1637 -0.1082
15460W        W30929   6.434  12.077  11.533 -0.2432  0.1381 -0.0898
15461W        W30930   2.100  10.052  15.510  0.0662  0.0969  0.0234
15462W        W30931   0.398  11.492   3.715  0.3198  0.2112  0.1636
15463W        W30932   2.940   1.787   4.111 -0.3563 -0.0363  0.0805
15464W        W30933  13.271  11.405   5.557 -0.0978  0.2356 -0.0918
15465W        W30934   7.902  13.651   0.701 -0.3976  0.1989 -0.1080
15466W        W30935  15.464   3.187   2.974  0.2340  0.2548 -0.0560
15467W        W30936   2.151  15.568  11.340 -0.0761  0.0041  0.2438
15468W        W30937  16.914  17.629   1.407  0.0527 -0.1798 -0.0869
15469W        W30938  15.962   0.164   2.710  0.4067  0.3152 -0.0976
15470W        W30939  13.139   1.205  14.082  0.2575  0.0742 -0.0670
15471W        W30940  13.035   5.729   0.578 -0.2269 -0.2120  0.1612
15472W        W30941   7.155  16.270  15.576 -0.0806  0.0008 -0.4409
15473W        W30942  11.696  11.835  15.481 -0.3629  0.2440  0.0399
15474W        W30943  17.985   5.434  15.393 -0.0447 -0.1968  0.1208
15475W        W30944  10.078   5.221  10.575  0.1039  0.3386  0.1450
15476W        W30945   7.081  12.600  11.723  0.0635 -0.0095  0.0618
15477W        W30946   3.749   9.520   0.010  0.0580  0.1799 -0.1273
15478W        W30947   9.706  10.424   3.981  0.2892 -0.1226  0.3018
15479W        W30948   0.552  10.959  13.648 -0.2376 -0.1720  0.0495
15480W        W30949  13.767   0.785   2.143  0.5171 -0.0649 -0.1055
15481W        W30950   7.038  11.138  14.533  0.1259 -0.0734  0.0209
15482W        W30951  15.412   5.575   1.711  0.2887  0.0538  0.0126
15483W        W30952   5.514   1.960   1.184 -0.1302  0.0027  0.0558
15484W        W30953  14.097  11.526   2.813  0.0527  0.2690  0.3670
15485W        W30954  18.158  16.447  10.854  0.0873 -0.0018  0.2138
15486W        W30955   7.445   0.348   0.812 -0.0366  0.0231 -0.1723
15487W        W30956   8.399   0.570   4.340 -0.3149 -0.2062 -0.1120
15488W        W30957   9.367   3.328   1.759  0.4725  0.0479  0.0316
15489W        W30958  17.845   0.493  15.621 -0.2388 -0.1834  0.0052
15490W        W30959   9.244   7.867  13.743  0.1214 -0.1594  0.0058
15491W        W30960  15.169   5.520  12.075  0.0113 -0.0852 -0.0136
15492W        W30961  16.652   6.179  11.310 -0.3610 -0.0627  0.0174
15493W        W30962  16.239  18.165  13.623  0.3888 -0.2666 -0.2163
15494W        W30963  17.498  15.111   5.076 -0.3094  0.1345 -0.1518
15495W        W30964  11.008   5.940   2.556 -0.1374 -0.1214 -0.1688
15496W        W30965   6.635   2.731  15.564  0.2263 -0.0484  0.2307
15497W        W30966  16.685   1.767   0.315  0.0138  0.1508  0.0163
15498W        W30967  15.312   4.892  13.512  0.1805  0.3595  0.0136
15499W        W30968   6.646   1.192   2.964 -0.0513  0.0183 -0.1418
15500W        W30969  12.700   2.973  11.941 -0.1660  0.0503  0.2395
15501W        W30970  14.184   8.005   3.301  0.1633 -0.0464 -0.0558
15502W        W30971  10.323   2.717  13.673  0.1861  0.3262  0.0725
15503W        W30972   2.387  17.586   4.032  0.2511 -0.1338  0.3521
15504W        W30973  11.275   7.831   0.391  0.1333  0.2059  0.0552
15505W        W30974   5.699   8.085  14.073 -0.1856  0.0591  0.1023
15506W        W30975   4.042   5.691  12.880 -0.1740 -0.1957  0.1711
15507W        W30976  12.421   3.668   1.581  0.2169  0.2731  0.0781
15508W        W30977  17.117   4.599   5.631 -0.0531 -0.0207 -0.3152
15509W        W30978   0.069   9.113  13.754 -0.2333  0.1118  0.2056
15510W        W30979  13.179   1.202  11.915  0.0949 -0.3405  0.0104
15511W        W30980   8.479  16.721   2.812 -0.0486  0.0881 -0.1957
15512W        W30981  16.847   8.333   2.522  0.1572  0.1524 -0.4570
15513W        W30982  16.339   2.130  12.285 -0.3117 -0.0181  0.1758
15514W        W30983   1.534  15.803   1.772  0.1655  0.3106  0.0862
15515W        W30984   0.612  16.765  11.177 -0.1325  0.0347  0.0486
15516W        W30985   7.501  17.920  12.662 -0.0474 -0.3830 -0.0122
15517W        W30986   3.098   3.703  11.821 -0.2700 -0.1198 -0.0930
15518W        W30987   2.266   6.599  13.058  0.0651 -0.1041  0.1160
15519W        W30988  15.614   8.161   2.315  0.1440  0.1215 -0.2195
15520W        W30989   9.356  10.605   2.779  0.0843 -0.0362  0.4616
15521W        W30990  11.794  10.184  11.971 -0.0434  0.0374 -0.1051
15522W        W30991  11.313   1.578   5.080  0.0994 -0.0141  0.0936
15523W        W30992  13.997   8.768   3.718  0.2874  0.0118 -0.0340
15524W        W30993   3.845  11.980   0.053 -0.0053 -0.0842 -0.1410
15525W        W30994  14.065   6.754  14.146 -0.2840  0.0804  0.1030
15526W        W30995  14.642  10.009  11.852 -0.1413  0.2698 -0.2878
15527W        W30996   9.488  11.981   2.096  0.2470 -0.3087 -0.2317
15528W        W30997  12.930   8.930  11.225 -0.2151 -0.1975  0.0927
15529W        W30998  14.557  18.247   4.639  0.2128  0.1846  0.1896
15530W        W30999   1.886  16.610  11.783 -0.0116 -0.0518  0.0258
15531W        W31000   8.177   1.851  12.587 -0.2544 -0.0824  0.0641
15532W        W31001  10.617   2.825  13.212 -0.0916 -0.0361 -0.0861
15533W        W31002   3.828   1.152   4.867  0.0921  0.2117 -0.0966
15534W        W31003  16.183  14.978  15.759  0.0455 -0.3412 -0.0844
15535W        W31004   1.803  17.643  15.454 -0.3028  0.0990  0.4565
15536W        W31005   6.932  17.257  14.195  0.1476 -0.0278  0.1242
15537W        W31006   6.367  14.916  15.463  0.0689  0.0306 -0.3069
15538W        W31007  11.705  11.545  14.353  0.3021 -0.4221 -0.1741
15539W        W31008   2.495  13.596   1.463 -0.1325 -0.0374  0.0493
15540W        W31009   5.785   7.974   4.743 -0.3598 -0.1743 -0.1194
15541W        W31010   9.033  13.212  14.064 -0.1892  0.3591 -0.0774
15542W        W31011  11.922   6.400   4.173 -0.0272 -0.1752 -0.2603
15543W        W31012  14.543   6.803   0.743 -0.0026  0.0136 -0.1040
15544W        W31013   8.200  15.822  12.144 -0.2388 -0.1008  0.0580
15545W        W31014  18.276   6.771  15.141 -0.2223  0.0250 -0.3753
15546W        W31015   2.411  16.175   5.120 -0.0192  0.4441  0.3172
15547W        W31016   9.736  12.472   2.072  0.1747 -0.2496 -0.1096
15548W        W31017   9.612   9.071   4.773 -0.1521 -0.1815 -0.1300
15549W        W31018   9.870  11.491   0.678  0.2290 -0.0854 -0.3886
15550W        W31019  16.364  17.782   6.138  0.2629  0.0160  0.3171
15551W        W31020   7.549  13.911   4.990 -0.1380  0.1167 -0.0998
15552W        W31021  11.045   7.769   2.945  0.0445 -0.1561 -0.1394
15553W        W31022  12.272   5.890  15.667 -0.1932  0.1309  0.0880
15554W        W31023   1.600  14.767  12.608 -0.1066  0.1130  0.0821
15555W        W31024   2.423  15.886  12.011  0.0682 -0.0949  0.2093
15556W        W31025  16.799   6.564  13.475  0.0674  0.1183  0.0635
15557W        W31026  13.782   1.073  13.958  0.1701  0.3131 -0.2862
15558W        W31027  17.214  16.782  11.503 -0.3262  0.1421  0.0727
15559W        W31028   1.072  13.423  14.552 -0.0731 -0.3498 -0.2580
15560W        W31029  17.023   2.662  14.837  0.0600  0.2489  0.0223
15561W        W31030   6.637  18.143  13.508 -0.2146 -0.0294 -0.4572
15562W        W31031   4.668  14.113  16.097  0.1794 -0.0776 -0.1205
15563W        W31032  18.121   1.812   4.314  0.1232  0.2114  0.1836
15564W        W31033   6.857   6.111   1.579  0.0326 -0.1135 -0.0869
15565W        W31034   3.072   5.676  15.506 -0.0481 -0.0796 -0.0032
15566W        W31035   2.565   3.880   1.801 -0.0048  0.2115  0.1030
15567W        W31036   7.049   9.910   0.912  0.0574 -0.2673  0.0146
15568W        W31037   9.761  16.265  12.874 -0.1160  0.1807 -0.1204
15569W        W31038  10.647   6.869   4.006  0.0018 -0.2843 -0.1509
15570W        W31039   8.586   0.843  13.523  0.1214 -0.2676  0.0020
15571W        W31040   1.329  15.678  15.536 -0.1290  0.0114  0.2318
15572W        W31041   9.138   9.387   4.429 -0.0932  0.1187  0.3143
15573W        W31042  14.169  15.999  11.383 -0.1668 -0.0144  0.2173
15574W        W31043   0.951   0.807   5.075 -0.2432  0.1780  0.0978
15575W        W31044   9.230  11.349  14.053  0.4432 -0.3814 -0.2356
15576W        W31045  13.944   0.386   6.400  0.3780 -0.1920 -0.3477
15577W        W31046   2.025   7.498   4.955 -0.3328 -0.1411 -0.0261
15578W        W31047   5.853   1.805  11.664  0.1173 -0.0389 -0.3009
15579W        W31048   8.296   2.923   0.991  0.0582  0.0897  0.0500
15580W        W31049  10.870   7.356   3.648 -0.3109 -0.0346 -0.1342
15581W        W31050   0.694   4.837   0.465  0.0463  0.0386  0.1478
15582W        W31051  16.688   9.751  14.071 -0.1853 -0.3281  0.0391
15583W        W31052   3.098   1.698  16.017 -0.0897  0.0303  0.0741
15584W        W31053  12.363   3.803  12.624  0.1677 -0.2429 -0.0808
15585W        W31054   9.145   9.717  11.396 -0.0072  0.0915  0.1522
15586W        W31055   5.116   5.863  11.387  0.0946 -0.3884 -0.1101
15587W        W31056  14.273   9.052  15.505 -0.2549 -0.1160 -0.1817
15588W        W31057  10.549  12.963   5.480 -0.0022 -0.0026  0.0179
15589W        W31058  15.338   8.262  12.235 -0.0356 -0.1882  0.4306
15590W        W31059   6.338   3.883   5.350  0.0058  0.0359  0.0604
15591W        W31060   8.883   2.584  13.150 -0.3003  0.0669 -0.2673
15592W        W31061  12.797   5.033  13.854 -0.1737  0.1634  0.1107
15593W        W31062  16.063   3.727   1.831 -0.0585 -0.1102 -0.2225
15594W        W31063   7.631  10.733  15.057  0.2221 -0.1781  0.0242
15595W        W31064  17.035   0.482   4.825 -0.0522 -0.0467 -0.0677
15596W        W31065  11.562   3.115  14.198  0.0295 -0.1068 -0.0872
15597W        W31066  18.109   7.693  15.345 -0.3219 -0.1866  0.1295
15598W        W31067   6.430  11.354  13.037 -0.1297  0.3159 -0.0359
15599W        W31068  14.316  17.367  13.002 -0.1402 -0.0518  0.0169
15600W        W31069  10.075   8.847   4.400  0.1728 -0.1788 -0.2283
15601W        W31070   3.161  15.864   3.894 -0.3638  0.0082 -0.2971
15602W        W31071  15.894   8.448  12.662 -0.3946 -0.2506  0.0090
15603W        W31072   7.749   8.651  14.689  0.0601  0.1068 -0.1562
15604W        W31073   8.942   8.607  11.387  0.3210 -0.0475  0.0750
15605W        W31074  10.436   4.210   1.014  0.0489 -0.3335 -0.0158
15606W        W31075   3.553  11.505   4.543  0.1206  0.3956  0.3537
15607W        W31076   0.431   8.530  14.659 -0.1909 -0.0480 -0.0634
15608W        W31077   3.516  13.077  14.359 -0.0431  0.2023 -0.0089
15609W        W31078   5.347  17.852  15.025 -0.1799  0.1218 -0.0776
15610W        W31079   5.401   9.033   3.135 -0.0501  0.2473 -0.2422
15611W        W31080   2.169   5.235   5.659  0.0853 -0.0133  0.2163
15612W        W31081  17.658   2.887   4.574  0.0785 -0.1148  0.3425
15613W        W31082   0.059   3.262  15.280  0.2421 -0.0182 -0.3220
15614W        W31083  16.248  10.900   0.369  0.0018 -0.1790  0.1282
15615W        W31084   2.450  13.224  10.336 -0.0685 -0.0531  0.0730
15616W        W31085  17.797  14.833  11.664 -0.0073  0.0865 -0.0713
15617W        W31086  10.347   2.079  12.970  0.3167 -0.0045  0.3250
15618W        W31087   9.546   0.938  10.905  0.0184 -0.3996  0.1874
15619W        W31088  16.693   1.138   3.169 -0.5520 -0.2243  0.0371
15620W        W31089  13.006  10.260  15.396  0.0340 -0.0936 -0.2211
15621W        W31090   8.327  11.304  13.655  0.4526 -0.0718  0.0957
15622W        W31091  11.069  12.228  11.140 -0.0605  0.4082  0.1962
15623W        W31092   3.020  10.732   4.420  0.2266 -0.1317  0.1002
15624W        W31093   1.415   5.837  13.670 -0.0140 -0.0265 -0.4265
15625W        W31094  15.011   7.021   6.047 -0.0922  0.1077  0.1661
15626W        W31095   4.053   2.441  12.184  0.1794  0.0402 -0.1448
15627W        W31096  17.857   5.065   3.885  0.1767  0.2108  0.1307
15628W        W31097   3.694  10.126  12.180  0.3013 -0.0079 -0.0488
15629W        W31098   2.754  10.713   2.082  0.3470 -0.1208  0.0139
15630W        W31099  14.861  17.229  13.697 -0.0093  0.1144 -0.2279
15631W        W31100   0.123  13.191   2.066 -0.0128  0.2384 -0.5162
15632W        W31101  14.247  15.397   0.779  0.2879 -0.0867  0.0265
15633W        W31102  14.855   6.774   5.583  0.0757 -0.1767  0.0594
15634W        W31103   1.093  14.715  10.359 -0.0616  0.1913  0.1526
15635W        W31104   8.273   3.793  13.009  0.0644 -0.1723  0.0089
15636W        W31105  14.060   2.065   0.426 -0.4678 -0.1623  0.1405
15637W        W31106  10.596   0.697  11.685 -0.0092 -0.1534  0.1520
15638W        W31107   6.216  10.634  12.510  0.2191 -0.0706 -0.1054
15639W        W31108  17.085  15.112  13.940 -0.0748 -0.1267  0.0012
15640W        W31109   6.388   1.705   2.742 -0.0665 -0.2344  0.1554
15641W        W31110  16.999   1.804   0.837 -0.2275  0.2217 -0.0377
15642W        W31111   0.807   0.525   9.932 -0.1048 -0.2949  0.0244
15643W        W31112  18.030   9.036   0.839 -0.2942 -0.1863  0.0173
15644W        W31113  17.016  11.917   4.168 -0.5873 -0.0298 -0.0021
15645W        W31114  18.157   9.704   2.164  0.0647  0.0929 -0.0243
15646W        W31115  16.532  14.035   3.403  0.2225 -0.3090 -0.2412
15647W        W31116   0.237  18.145  11.710 -0.0089  0.1104 -0.0824
15648W        W31117   2.004  10.095   4.017 -0.4042  0.2800  0.2340
15649W        W31118  14.702   7.264  15.685 -0.0007  0.1265 -0.0048
15650W        W31119   0.928   3.586   4.440  0.1178  0.1822 -0.0004
15651W        W31120   2.715  11.440  15.203  0.0604 -0.2187 -0.0811
15652W        W31121   9.206   1.481  14.524  0.2000 -0.4167  0.3412
15653W        W31122   6.538  12.769   2.901 -0.1080  0.0502  0.0825
15654W        W31123   0.649   4.384   3.728 -0.1078  0.1681  0.0665
15655W        W31124   8.910   9.906  14.762  0.2495  0.0132  0.0519
15656W        W31125   9.520   6.321   1.416 -0.4037  0.2736  0.1911
15657W        W31126  10.714   9.342   2.609  0.0102  0.3986 -0.0356
15658W        W31127   6.664   4.384   0.988  0.3327 -0.1027 -0.1510
15659W        W31128   7.018   4.490  14.303  0.0601 -0.0282 -0.1947
15660W        W31129  15.313   1.162   4.801 -0.1275  0.2380  0.2074
15661W        W31130  14.746   5.204  12.807  0.5442  0.2783 -0.3203
15662W        W31131  13.190   7.328  15.066 -0.1388 -0.0802 -0.1867
15663W        W31132   4.326   8.448  15.221 -0.4367  0.1140 -0.0107
15664W        W31133  10.203  10.284   1.375  0.0713 -0.0657 -0.0214
15665W        W31134   4.414  15.657  15.624  0.1520 -0.0433  0.0696
15666W        W31135   1.721   5.487  14.448 -0.1847 -0.3542 -0.0699
15667W        W31136   2.554   1.658   4.722  0.2075 -0.3907 -0.2199
15668W        W31137   7.686  12.267  12.604  0.1379  0.0847 -0.0283
15669W        W31138   5.278   5.078   1.951  0.3114 -0.0862 -0.1678
15670W        W31139  14.960   7.804  13.588 -0.2198 -0.1680  0.1484
15671W        W31140  13.423  16.486   1.284 -0.1168  0.0979 -0.1285
15672W        W31141   3.214   6.117  12.062 -0.0581 -0.2709  0.3086
15673W        W31142  16.305   5.291   4.547  0.1192  0.1997  0.1184
15674W        W31143   0.242   8.687   0.706  0.2571 -0.1216 -0.0536
15675W        W31144   5.455  12.492  13.417  0.1716 -0.1930 -0.0732
15676W        W31145  17.940  13.685   2.519 -0.1456  0.0082  0.2512
15677W        W31146   2.876   7.632   5.208 -0.1480  0.2198 -0.2180
15678W        W31147  13.113  16.632   5.624 -0.0067 -0.3088  0.2794
15679W        W31148   1.902  10.436  12.767 -0.0101  0.2033  0.1786
15680W        W31149   1.205  13.962   4.427 -0.1526 -0.0298 -0.1551
15681W        W31150   5.183   4.130  11.787 -0.1102 -0.0088 -0.2020
15682W        W31151   9.323  11.724  11.313  0.2253  0.0069 -0.1996
15683W        W31152  10.599   7.747  11.921  0.1866 -0.3719  0.0941
15684W        W31153   5.702   0.203   3.157  0.3252 -0.5873  0.1849
15685W        W31154   7.197   3.537   5.383 -0.2241  0.1263 -0.3460
15686W        W31155   2.749   9.131   3.538  0.4789  0.2315  0.1356
15687W        W31156   8.638   2.848  11.249 -0.0438 -0.0914  0.3064
15688W        W31157  13.794   2.339   2.594 -0.1923 -0.2235 -0.3819
15689W        W31158   2.110  17.658   2.826 -0.0806 -0.0535 -0.0612
15690W        W31159   6.129   4.142  11.337 -0.1030  0.2061 -0.0808
15691W        W31160   3.601  12.808   1.545  0.0810  0.1905 -0.0167
15692W        W31161   2.149   6.897   4.182  0.1150 -0.0020  0.0608
15693W        W31162   9.248  12.274   1.226  0.0363  0.1107 -0.2392
15694W        W31163  17.727  12.305  16.057 -0.0731  0.0990 -0.2583
15695W        W31164  17.862  16.057  11.063 -0.0269  0.0641  0.3347
15696W        W31165  14.509   0.187  13.640  0.0138  0.1446  0.0010
15697W        W31166   6.780   2.757   2.156  0.1457 -0.0872  0.2347
15698W        W31167   5.600   6.275   0.290 -0.0313 -0.0972 -0.0682
15699W        W31168   5.387   0.022   2.773  0.3185 -0.0409  0.4098
15700W        W31169  10.784  14.142   2.300  0.1997 -0.1141 -0.2509
15701W        W31170   5.740   2.200   3.955 -0.1979 -0.0760  0.0954
15702W        W31171   6.982   8.171   5.438 -0.0889  0.0123  0.1505
15703W        W31172  16.851   2.734  15.569 -0.5157  0.1984  0.0352
15704W        W31173   0.297   3.593   2.902  0.0618 -0.0227 -0.0018
15705W        W31174   5.713   4.652   0.887  0.2481  0.0224 -0.0649
15706W        W31175  15.617   6.547   3.183 -0.0915  0.1771  0.1709
15707W        W31176   3.867   1.523   3.193  0.3678 -0.0598  0.0967
15708W        W31177  13.932   9.683   2.208 -0.1016 -0.0416  0.1153
15709W        W31178  15.191   0.579   3.264 -0.0327  0.1859  0.1099
15710W        W31179  11.024  16.595   4.041 -0.2252  0.1374  0.2332
15711W        W31180  14.393   4.182  11.756 -0.0419 -0.1335 -0.0812
15712W        W31181   6.833  15.815  10.973 -0.0353  0.1557  0.1055
15713W        W31182   8.934   0.657  15.205 -0.1236 -0.0444 -0.0076
15714W        W31183   0.409   6.113  11.047 -0.1096  0.1860  0.4201
15715W        W31184  17.491  15.495  15.156 -0.1853 -0.1758  0.1651
15716W        W31185  13.697   2.468   5.977  0.0187  0.0834  0.3385
15717W        W31186   4.351  11.840   0.006  0.1824  0.0305  0.0973
15718W        W31187   4.410   9.492  12.988 -0.1452  0.0340 -0.0195
15719W        W31188   5.304   5.749   3.787  0.1304 -0.2995  0.1296
15720W        W31189   2.905   9.282  10.884  0.0975  0.1850  0.0042
15721W        W31190  16.262   2.843  11.664 -0.1489 -0.2049  0.2199
15722W        W31191  17.918  11.449   5.468  0.0140  0.0071  0.0207
15723W        W31192   9.050  10.969  14.534  0.2046 -0.2022  0.2360
15724W        W31193   2.251  15.867   4.693  0.3432 -0.0228 -0.0144
15725W        W31194  15.360  13.673   3.805  0.0946 -0.1620  0.0469
15726W        W31195   3.342   4.580  14.074 -0.0762 -0.2589  0.1514
15727W        W31196  17.224  15.991   2.559  0.0007 -0.2297  0.1256
15728W        W31197   2.526  10.649  12.400 -0.2355  0.0120  0.1992
15729W        W31198  13.433  15.489   1.106 -0.0707  0.2968  0.0677
15730W        W31199  15.097   6.157   6.216  0.0365  0.0381 -0.0406
15731W        W31200   4.590   6.541  13.121  0.0010 -0.2787  0.0724
15732W        W31201  17.801  12.487   3.894  0.4407  0.0820  0.1967
15733W        W31202  16.070  14.831   2.028 -0.4119 -0.1537 -0.1677
15734W        W31203  11.120   0.273   2.023  0.1881  0.3422 -0.0114
15735W        W31204  10.017  10.950   2.103  0.0366  0.2107  0.0934
15736W        W31205  17.453  17.387   2.415  0.0283 -0.0081 -0.4258
15737W        W31206   6.782  12.030  15.264  0.0884 -0.0356  0.0333
15738W        W31207   5.053  17.854  15.730  0.2058 -0.1223  0.1570
15739W        W31208   9.621   6.782   5.670  0.2423  0.1965 -0.0029
15740W        W31209  18.047   6.738  11.971 -0.3473 -0.0527  0.2119
15741W        W31210   6.881  10.107  16.088 -0.1159  0.2984  0.1727
15742W        W31211   8.938  13.678  12.711  0.1103 -0.0562  0.0671
15743W        W31212   1.811   0.854  11.154  0.1399  0.4913  0.0074
15744W        W31213  11.781   3.283   0.305 -0.0396  0.2698  0.0446
15745W        W31214   8.585   4.582   2.724 -0.0828  0.1590  0.1857
15746W        W31215  10.320   1.442  15.456 -0.1746  0.1417  0.0152
15747W        W31216  11.374  12.269  14.786  0.3797  0.1380  0.0995
15748W        W31217  14.671   9.600  12.393  0.2818  0.0469 -0.0181
15749W        W31218   3.693  17.674  11.702 -0.1659  0.0687  0.3045
15750W        W31219  17.824   5.102   5.267 -0.0387 -0.1828 -0.1227
15751W        W31220  13.959  11.309  13.920  0.0288 -0.2501 -0.0436
15752W        W31221  17.728   6.241   3.072  0.0879  0.0004  0.1293
15753W        W31222   0.692   5.080  12.489  0.1626 -0.0311  0.0078
15754W        W31223  13.241   7.471  15.653 -0.0165 -0.1536 -0.0177
15755W        W31224  11.607  16.792  16.061 -0.0689  0.0495 -0.0260
15756W        W31225   5.305   0.516   0.670  0.1130  0.0429  0.0600
15757W        W31226   0.507   0.650  10.932 -0.0368 -0.2555 -0.1219
15758W        W31227   4.574  17.573   5.106  0.5670  0.2121 -0.1295
15759W        W31228  15.196  11.696   3.800 -0.0115  0.2308 -0.2781
15760W        W31229   1.755  15.075  13.014 -0.1825 -0.1436  0.0366
15761W        W31230   3.190  12.529  11.305  0.3463  0.0889 -0.2556
15762W        W31231  12.388   0.476   4.550  0.1606  0.0335 -0.2477
15763W        W31232  10.195  14.223  10.694  0.2561  0.0175  0.2142
15764W        W31233  13.658  12.868  12.038  0.1719 -0.1609 -0.0018
15765W        W31234   4.146  14.735   2.306 -0.4591  0.1806  0.1073
15766W        W31235  11.794  17.203  13.077  0.0909 -0.1826  0.1294
15767W        W31236   3.021   1.249  10.037 -0.0267 -0.1810 -0.1879
15768W        W31237  17.414  15.982  12.642  0.3405  0.0111 -0.1121
15769W        W31238  15.180  17.371   0.309 -0.0709  0.4679  0.1950
15770W        W31239   3.708  10.984  13.835  0.1588 -0.1659 -0.5498
15771W        W31240  10.677  11.448   3.546  0.1191 -0.2036  0.0704
15772W        W31241  12.243   9.954  15.492 -0.1373 -0.3534  0.3773
15773W        W31242  11.801   8.375  13.933 -0.1397  0.1064 -0.0012
15774W        W31243  11.064  10.763  12.019  0.3227  0.0583 -0.0055
15775W        W31244   0.130  10.869  14.037  0.3799 -0.1125  0.2440
15776W        W31245   1.880  15.102   0.251  0.0811  0.0514 -0.0998
15777W        W31246  14.609   8.729  13.260 -0.0730  0.1254 -0.2009
15778W        W31247   0.064   9.455  16.135  0.1426  0.1986 -0.1433
15779W        W31248  13.566  14.093   3.049 -0.1687 -0.4340 -0.1586
15780W        W31249   9.166  10.176  12.653  0.0371  0.1037  0.1012
15781W        W31250  10.321  11.363  14.262  0.1911  0.1019  0.0354
15782W        W31251  17.932   0.944  12.627 -0.4267 -0.0751 -0.0189
15783W        W31252  14.779   5.727   3.953 -0.2782  0.2952 -0.0486
15784W        W31253  17.247   0.992   0.596  0.0606 -0.0965  0.4656
15785W        W31254  10.070   1.953  10.500 -0.1106  0.0644  0.0653
15786W        W31255  10.839   9.611   0.421 -0.0251  0.1522  0.2297
15787W        W31256   1.446   9.358   0.390 -0.2475  0.1535  0.0025
15788W        W31257  14.726  17.576  11.764 -0.3310 -0.0686  0.1161
15789W        W31258   5.733  10.098   0.426  0.3262 -0.3185 -0.0150
15790W        W31259   0.621  14.635  11.198  0.2600  0.2084  0.2717
15791W        W31260   5.615  10.182  13.174 -0.4794 -0.1143  0.3018
15792W        W31261   1.755   6.106   5.185  0.1014  0.1366  0.0375
15793W        W31262  15.964  10.940   1.499 -0.0722 -0.0105  0.0395
15794W        W31263   9.909  13.351  13.956 -0.2125  0.1594 -0.1206
15795W        W31264  14.167   1.938  14.344  0.0316 -0.1037 -0.0030
15796W        W31265   9.783   4.028   2.541 -0.0192 -0.2792 -0.1393
15797W        W31266  12.435  11.536  13.656  0.2751 -0.1752 -0.3348
15798W        W31267   9.131  17.482  15.720 -0.0031 -0.2336 -0.0874
15799W        W31268  13.113   8.249  16.035 -0.1139  0.1066  0.3667
15800W        W31269   3.242   8.492  11.613 -0.0184 -0.2578  0.0505
15801W        W31270  14.234  17.177   1.725  0.1456  0.2474 -0.0687
15802W        W31271  11.289   4.181   5.289 -0.0767  0.2022  0.3008
15803W        W31272   6.846   4.767   3.634 -0.0570  0.0118 -0.0305
15804W        W31273   9.162  10.656  15.959 -0.0632  0.2451  0.0943
15805W        W31274   0.167  10.143  13.505 -0.1195 -0.0507  0.1054
15806W        W31275   3.379  11.872   1.546  0.0943 -0.2011  0.0974
15807W        W31276  10.372  17.595  12.333  0.1356 -0.0916  0.2319
15808W        W31277   7.110  18.205  13.831  0.1644 -0.0337  0.0623
15809W        W31278   2.275  10.911   5.024  0.2702 -0.0977  0.0393
15810W        W31279  12.726   2.653   3.113 -0.2738 -0.0214  0.2458
15811W        W31280   3.508   4.514  13.069  0.0358  0.1107  0.1897
15812W        W31281  13.023   1.037   4.888 -0.3070  0.1636 -0.1611
15813W        W31282  15.367   4.887  12.680  0.0662 -0.0047  0.1615
15814W        W31283   5.711   5.306   3.197  0.2410  0.3306  0.0379
15815W        W31284   9.197  16.346  11.985  0.2966  0.3779  0.0240
15816W        W31285  14.697  17.590   0.137 -0.0094 -0.0707  0.1438
15817W        W31286  14.425  16.802   4.756 -0.1485 -0.0233 -0.3762
15818W        W31287  14.038  11.670  14.934 -0.0176  0.0572 -0.1815
15819W        W31288   8.212   5.688  12.354  0.0293  0.0649 -0.4034
15820W        W31289   8.899  15.819  15.655  0.0988  0.0051  0.1120
15821W        W31290   3.124   4.040  13.648  0.0693  0.1274 -0.2401
15822W        W31291   6.443   4.474  12.271  0.1958  0.1756 -0.1893
15823W        W31292  11.033   9.235  15.268 -0.1840  0.1367 -0.0250
15824W        W31293   4.404  14.301  14.491 -0.0999  0.1421 -0.0448
15825W        W31294   3.221  13.601  12.200  0.1945 -0.1637  0.1302
15826W        W31295   1.001  10.878   4.352  0.2114  0.4157  0.0711
15827W        W31296  11.178   8.711   2.380  0.0958 -0.2308  0.2228
15828W        W31297  11.180  10.145   2.211 -0.1762 -0.1486 -0.0416
15829W        W31298   2.852   8.598   4.232  0.0575  0.2483  0.0973
15830W        W31299   9.176   1.395  13.079  0.2661 -0.1041  0.1007
15831W        W31300   1.983   7.708  16.082 -0.0397 -0.3827  0.1033
15832W        W31301   6.951   6.233  13.884 -0.1686 -0.0551  0.0041
15833W        W31302  12.522  14.915  12.136  0.0244  0.2058 -0.1131
15834W        W31303   5.775  17.192   1.865 -0.0088  0.0192  0.0182
15835W        W31304  15.303  17.569   4.573 -0.0629  0.1467 -0.3006
15836W        W31305  15.159  10.002  14.007  0.0368 -0.1980  0.0095
15837W        W31306  11.013   0.608  12.635 -0.2745  0.0516  0.0571
15838W        W31307   1.489   2.028   3.478  0.0487  0.0099  0.1681
15839W        W31308  17.880   7.751   2.033  0.1313 -0.1618 -0.1869
15840W        W31309   2.961   5.677   0.546  0.0415 -0.1938 -0.2900
15841W        W31310  14.457  12.637   4.022 -0.0589 -0.0656 -0.1856
15842W        W31311  11.532   2.403  15.775 -0.0083 -0.0383  0.2270
15843W        W31312   9.158  17.945   5.138  0.1791 -0.1107  0.0844
15844W        W31313   8.299  15.672   5.132 -0.1580  0.2892 -0.0478
15845W        W31314  13.597  14.463   1.977  0.1049  0.0191 -0.0231
15846W        W31315   5.969  15.685   1.645 -0.4714 -0.3097 -0.1516
15847W        W31316   8.752  14.210   5.855  0.1715  0.0660  0.0808
15848W        W31317   0.843   7.871  15.315 -0.1172 -0.3653 -0.1602
15849W        W31318   5.486  10.648   1.358  0.1315  0.0150 -0.0481
15850W        W31319   2.527   9.380   4.822  0.1827 -0.0602  0.1632
15851W        W31320   9.618   9.505  14.328 -0.1833 -0.1946  0.0772
15852W        W31321   3.608  17.917  14.193 -0.0546  0.2354  0.2734
15853W        W31322   3.040  11.269  11.045  0.0984  0.0752  0.0463
15854W        W31323  11.997  16.621  11.960  0.0113 -0.1316  0.0551
15855W        W31324   9.179   1.949  13.678 -0.4223  0.2057  0.3066
15856W        W31325  11.492   3.638  14.203 -0.0230 -0.1301 -0.2730
15857W        W31326   6.427  17.244  11.297 -0.2478 -0.0686  0.1083
15858W        W31327   2.432  12.924  15.643 -0.0540 -0.0578  0.0841
15859W        W31328   7.331  10.983  13.197  0.0143  0.1804  0.1249
15860W        W31329  13.042   5.803  15.011  0.2529  0.0576  0.1640
15861W        W31330   3.096  16.683   4.283 -0.1163  0.4030  0.1109
15862W        W31331   3.463  14.680   2.787  0.0771  0.1442 -0.0542
15863W        W31332   4.814   5.553  12.524 -0.0027  0.0736  0.1194
15864W        W31333   4.504   5.678   2.175 -0.1078  0.2905 -0.0127
15865W        W31334  11.428   4.049  14.565  0.3158 -0.4441 -0.1184
15866W        W31335  13.579  13.926   3.597 -0.0921  0.1170 -0.4437
15867W        W31336  15.089  16.388   2.082  0.1184 -0.2326  0.0803
15868W        W31337  12.550   3.853   6.134  0.2501  0.0470  0.1265
15869W        W31338  17.452   9.786  11.767  0.3951 -0.0975 -0.0834
15870W        W31339   1.863  16.131   5.424 -0.0129  0.0302 -0.2431
15871W        W31340  17.838   9.103  13.786 -0.0350 -0.3368  0.3677
15872W        W31341  14.969  17.891   3.385 -0.0497 -0.0203  0.0126
15873W        W31342   9.039   0.951  11.624 -0.1038 -0.2145  0.3865
15874W        W31343  11.831   6.183   1.343  0.3211 -0.0967  0.0429
15875W        W31344   0.556  10.502   2.633 -0.5950 -0.1124 -0.1048
15876W        W31345   9.325   1.739   1.469 -0.1582 -0.3337 -0.0845
15877W        W31346  13.536  12.771  14.589  0.1302  0.2049 -0.1389
15878W        W31347  10.760  12.415   2.227  0.1475  0.3839  0.1081
15879W        W31348   5.448   4.604  14.601  0.0080  0.0602  0.0256
15880W        W31349   2.910  16.667   0.143 -0.3206  0.2161 -0.2804
15881W        W31350  15.103  13.398   1.384  0.0674 -0.2591 -0.1169
15882W        W31351   9.988   5.271  14.776  0.1292  0.1149 -0.1292
15883W        W31352   0.328   8.139   3.511 -0.1418 -0.1173  0.1820
15884W        W31353  10.617   7.638  12.975  0.0398  0.0473  0.0572
15885W        W31354   8.960   9.780   4.752  0.1877  0.0154 -0.1241
15886W        W31355  13.773   3.991   2.655  0.1206  0.1757  0.1083
15887W        W31356  13.038  11.654  10.929  0.1913 -0.2320 -0.1525
15888W        W31357  17.236  12.967  12.423  0.0686 -0.1854 -0.0740
15889W        W31358  12.188  12.534   4.804  0.2111 -0.0817  0.0534
15890W        W31359  15.363   6.769   4.887  0.0928 -0.4961  0.2479
15891W        W31360  13.875   8.758   5.728  0.2588 -0.0688  0.2361
15892W        W31361   9.235  17.538  10.859 -0.0181 -0.1031 -0.1976
15893W        W31362   5.228   2.798  12.097  0.0301 -0.1786 -0.2715
15894W        W31363  15.150   4.547  15.539 -0.1134  0.0402  0.2065
15895W        W31364   0.365   7.954   2.100 -0.1159 -0.2977 -0.0182
15896W        W31365   9.686   4.167  12.958 -0.0265 -0.1238 -0.2199
15897W        W31366  17.348  16.077  10.913 -0.0821 -0.3506 -0.0525
15898W        W31367   6.542   8.210   1.043  0.0876  0.3329  0.1043
15899W        W31368   8.814   6.602  14.979 -0.2537  0.0719 -0.1801
15900W        W31369   9.047   4.579   6.176 -0.2450 -0.0968  0.0472
15901W        W31370   7.120   0.367   2.762  0.0495 -0.1778  0.2766
15902W        W31371  12.277   5.081   0.053  0.1024 -0.0298 -0.2280
15903W        W31372   2.691   2.369  12.729  0.2050  0.0884  0.0148
15904W        W31373   5.580  18.301  11.992 -0.0859 -0.0860  0.0328
15905W        W31374   7.192   3.782   4.952 -0.1879 -0.3280 -0.1046
15906W        W31375   0.297  15.909  12.242 -0.2123 -0.2620  0.0013
15907W        W31376  11.908   1.103   4.260  0.3102 -0.2474 -0.1476
15908W        W31377   1.530  17.699  11.737 -0.3387  0.3030 -0.3486
15909W        W31378   3.197  10.185  14.548 -0.1766 -0.0200  0.0163
15910W        W31379  15.099  15.726   5.441 -0.2533  0.0203  0.2096
15911W        W31380   7.166   4.329   3.944  0.1034 -0.3252  0.0630
15912W        W31381   0.736  11.895  13.000  0.0333 -0.2390  0.0855
15913W        W31382  13.443  15.059   4.585  0.0185 -0.2837 -0.0425
15914W        W31383   4.565   0.075   3.827  0.0959 -0.2147  0.3415
15915W        W31384  15.159  14.640  14.712  0.3702  0.0880  0.0797
15916W        W31385   0.030  17.772  15.273 -0.1491  0.0783 -0.4087
15917W        W31386   9.036   7.009   4.859  0.0253  0.1155 -0.1722
15918W        W31387  17.023  12.972  12.905  0.1035 -0.0623  0.1580
15919W        W31388   6.906  14.900  13.158 -0.1225 -0.0254 -0.0680
15920W        W31389   4.720   0.590  14.874  0.0284 -0.3398 -0.2353
15921W        W31390  11.434   2.280   2.914  0.0287 -0.0975 -0.0402
15922W        W31391   1.811  16.777  13.625 -0.1398  0.0407 -0.0325
15923W        W31392   4.083  17.182   0.600 -0.2719 -0.1786  0.0723
15924W        W31393   5.094   9.749  12.363  0.2567  0.2086  0.0810
15925W        W31394  14.335  13.664   4.662 -0.3788 -0.0851  0.1499
15926W        W31395   7.820  10.383   2.856  0.3296  0.0097 -0.3732
15927W        W31396  17.869  13.337   1.364  0.1413  0.1657 -0.0918
15928W        W31397  11.460  10.362   4.612  0.0060  0.2700  0.0681
15929W        W31398  10.409   1.177   1.386 -0.0129 -0.1413 -0.3837
15930W        W31399   4.215  14.382   1.963  0.1735 -0.1740  0.3387
15931W        W31400  15.945   7.480   4.495  0.0157 -0.0245  0.0698
15932W        W31401   6.707  11.890  12.373 -0.1558  0.1930 -0.0686
15933W        W31402  15.796   8.681   1.019  0.1808 -0.1198  0.1927
15934W        W31403   7.376  15.135   0.707  0.0088 -0.1629  0.1065
15935W        W31404  11.258   7.069  15.696  0.1881  0.0198 -0.0339
15936W        W31405   2.346   1.951   3.278 -0.0957  0.0898 -0.0181
15937W        W31406   2.179   8.876  15.152 -0.0454 -0.0256 -0.3431
15938W        W31407  12.265   1.461  11.785  0.0730 -0.0062 -0.1197
15939W        W31408  12.220   0.727   4.121  0.2646 -0.1872  0.3816
15940W        W31409   1.824   0.992  14.257 -0.0949  0.1581  0.0803
15941W        W31410  15.053  17.317  15.032  0.3919 -0.2090  0.3061
15942W        W31411   1.639   2.377  13.508 -0.0107  0.2534 -0.1219
15943W        W31412  16.362   0.573  11.112  0.0643  0.2216 -0.0355
15944W        W31413   8.827  10.605   2.782 -0.0178 -0.0403 -0.0188
15945W        W31414  11.788  10.382   5.648 -0.0739  0.0252  0.0062
15946W        W31415  13.348  12.393   4.974  0.0318 -0.4046  0.0016
15947W        W31416  17.707  13.157   0.846 -0.2427  0.0281  0.0055
15948W        W31417  10.354   6.874  11.858 -0.0897 -0.2001  0.0967
15949W        W31418   1.887   3.576   5.637  0.0123  0.0974 -0.1451
15950W        W31419   3.837   7.034   0.546  0.0686  0.3110 -0.2771
15951W        W31420  17.880  16.136   3.777  0.0843 -0.3007  0.0920
15952W        W31421   6.433   7.814  14.497 -0.0569 -0.2881  0.3115
15953W        W31422   0.798  14.837  15.472  0.2416  0.1080 -0.4587
15954W        W31423  16.937  17.025   5.494 -0.0406  0.0580  0.1825
15955W        W31424   2.268   8.800   2.988 -0.1111 -0.0194  0.0349
15956W        W31425   5.583   5.262   0.513 -0.0193 -0.2414  0.1292
15957W        W31426  17.382  17.645   0.181  0.1222 -0.0657 -0.0342
15958W        W31427   7.928   7.758  14.911 -0.2036  0.1244  0.0109
15959W        W31428  14.610  15.317   4.152  0.0951 -0.0695  0.0226
15960W        W31429   0.778   7.651  12.148  0.0613  0.0286 -0.0871
15961W        W31430  16.956  11.293   2.946  0.0487  0.0685  0.0266
15962W        W31431   9.426   6.810   0.852 -0.0662  0.5419  0.1117
15963W        W31432  13.699  16.777   0.961  0.0699 -0.0346 -0.0492
15964W        W31433   0.467   3.904  14.776  0.0529 -0.0144  0.0885
15965W        W31434  16.264   6.103   1.585  0.0692 -0.1906 -0.2548
15966W        W31435  13.581   9.402  15.751  0.0757 -0.2401 -0.0136
15967W        W31436  18.240   0.088   2.283 -0.3601 -0.0036  0.2737
15968W        W31437   0.415   4.638   1.513 -0.1649  0.0744 -0.0088
15969W        W31438   2.526  16.706  15.956 -0.1165 -0.3707 -0.1477
15970W        W31439  16.732  10.738   3.577 -0.1359  0.0923  0.3818
15971W        W31440  10.017  13.039   5.193 -0.1479  0.0763 -0.1348
15972W        W31441  12.813   9.775  12.115 -0.1632  0.0591  0.1762
15973W        W31442   2.526   1.202  10.316 -0.0105 -0.2920  0.2298
15974W        W31443   3.406   1.204   4.625 -0.1914  0.1658  0.1788
15975W        W31444   0.600  17.637  14.436  0.0964 -0.3065  0.1173
15976W        W31445   0.970   4.275   4.137 -0.1214  0.2989 -0.0723
15977W        W31446   0.558  14.834  15.039  0.0316 -0.0032 -0.0627
15978W        W31447   1.989   9.662   2.652  0.0616  0.0116 -0.2014
15979W        W31448  14.269   9.055   0.249  0.1486 -0.0432  0.0191
15980W        W31449  15.377  12.417  13.295  0.1287  0.2148  0.1161
15981W        W31450  10.302  10.581  13.803 -0.3484 -0.0929 -0.1939
15982W        W31451   5.706   3.744  15.395  0.0799 -0.2011  0.4541
15983W        W31452   8.166  16.861  14.250  0.0879  0.1091  0.0403
15984W        W31453   4.528   4.052  14.806 -0.1283  0.0673  0.0472
15985W        W31454   3.617   0.795   1.225 -0.0838 -0.2819 -0.0576
15986W        W31455   8.899  15.639   4.539 -0.0255 -0.0316  0.1152
15987W        W31456  13.106  12.151  15.392 -0.0918  0.1172  0.2692
15988W        W31457   8.069   1.483   0.192  0.1908 -0.1222 -0.0955
15989W        W31458   4.243  12.849   3.620  0.0184 -0.0092 -0.0165
15990W        W31459  17.086  14.806   5.002 -0.1507 -0.1180  0.4342
15991W        W31460  12.291  14.030   0.607 -0.2676 -0.1507  0.1860
15992W        W31461  15.067  11.633   2.985 -0.0604  0.1151  0.2840
15993W        W31462  16.637   1.998  16.043 -0.0322  0.1777  0.0084
15994W        W31463  16.847   7.934  14.836  0.0678 -0.0855  0.3330
15995W        W31464   0.500   4.370  11.222  0.1471 -0.1044 -0.1673
15996W        W31465   1.722  14.425  15.796 -0.2424 -0.1453  0.0358
15997W        W31466   9.343   8.070   3.631 -0.2914 -0.1057  0.1025
15998W        W31467   7.841   5.499  14.663 -0.0212 -0.1700 -0.0992
15999W        W31468  16.337  10.661  11.703 -0.0345 -0.0480 -0.4180
16000W        W31469   4.296   4.508   3.393  0.0066 -0.1820  0.0850
16001W        W31470  17.115  17.379   0.616  0.1264  0.0603  0.0665
16002W        W31471   2.564  16.985   3.423  0.2386  0.2268  0.1020
16003W        W31472  10.532   5.081   1.392 -0.0192 -0.4493  0.0490
16004W        W31473  17.550   9.822   3.059 -0.1976 -0.1298  0.1891
16005W        W31474  12.248   9.342   0.763 -0.1903 -0.2482  0.1035
16006W        W31475  12.237  16.315  16.153  0.2737  0.0992 -0.1556
16007W        W31476  13.854   8.973   4.827  0.0004 -0.3622 -0.1455
16008W        W31477  17.116   4.514   9.840  0.1427 -0.1597  0.4564
16009W        W31478   4.275   0.301  10.285 -0.0544 -0.3475 -0.2776
16010W        W31479   3.625  17.444   0.602  0.0839  0.1664  0.1599
16011W        W31480   8.285  14.213  14.359 -0.1009 -0.2207  0.0367
16012W        W31481   8.430   1.730   4.732 -0.1879 -0.0755 -0.0034
16013W        W31482   7.808  14.705  13.849 -0.0171 -0.2483 -0.1901
16014W        W31483  12.587   4.217   3.378  0.1962  0.0578  0.0139
16015W        W31484   9.909   3.704  13.902  0.1842 -0.1252  0.0163
16016W        W31485  16.055   7.756  11.811  0.2023 -0.0215  0.0559
16017W        W31486  13.676   8.100  11.119  0.1120 -0.1328 -0.2097
16018W        W31487   2.974   1.132  10.731  0.2032 -0.2107 -0.3144
16019W        W31488  11.391   8.704  14.040  0.0225 -0.1937 -0.0687
16020W        W31489  13.556   2.440   4.594  0.3386  0.0519 -0.1111
16021W        W31490   4.686  14.882   3.445 -0.0244 -0.1166  0.2256
16022W        W31491  17.943  13.224   2.418 -0.1285 -0.1663 -0.0337
16023W        W31492  11.468   5.262   4.285  0.0796 -0.2972  0.2341
16024W        W31493  10.150   5.983  12.354  0.1338 -0.1708  0.1864
16025W        W31494   5.611   6.529  12.986  0.0063  0.0273 -0.2192
16026W        W31495   6.577   9.044   3.820 -0.2993  0.1482 -0.0956
16027W        W31496   8.088  15.920  14.140  0.2020  0.4124  0.0805
16028W        W31497  15.738  14.099  10.830 -0.0823 -0.0939  0.2914
16029W        W31498  16.745  10.299   6.110 -0.2836  0.0427 -0.1372
16030W        W31499  14.483   2.988  15.646  0.0180  0.1473  0.2567
16031W        W31500   4.608   5.182  15.886  0.0365 -0.4165 -0.1872
16032W        W31501   7.084   8.379  11.280  0.0226 -0.1840 -0.3037
16033W        W31502  15.924   5.573   9.564  0.0496  0.0506  0.0925
16034W        W31503  12.685   3.983  10.806 -0.0822 -0.1946 -0.1547
16035W        W31504   0.666   9.103   1.373  0.2827 -0.0714 -0.1138
16036W        W31505  14.536  14.486  11.731  0.1747 -0.1293  0.0069
16037W        W31506   1.961  11.113  13.528  0.4132 -0.1258  0.2113
16038W        W31507  10.448   3.323   0.020 -0.0701 -0.0087 -0.2808
16039W        W31508  14.849  10.825   2.658  0.2667  0.1567  0.0491
16040W        W31509   5.532   5.755  12.677  0.2093  0.2148  0.0395
16041W        W31510   4.192   0.092   4.203 -0.0728 -0.2162 -0.2381
16042W        W31511   2.547   0.765   0.109  0.0836  0.3266  0.0745
16043W        W31512   8.029  11.434   0.367 -0.1901  0.0646  0.1683
16044W        W31513  12.576   4.756  14.394  0.0330  0.1116  0.1206
16045W        W31514   8.540  10.156   0.393 -0.2032  0.0162  0.3231
16046W        W31515   3.715   3.424   0.151 -0.1758 -0.0717 -0.0723
16047W        W31516  15.510   2.158   1.577 -0.0746  0.0889  0.1278
16048W        W31517   1.026   7.473  15.943  0.1748  0.1818  0.3537
16049W        W31518  14.360  10.930   2.414 -0.0747  0.1372  0.1841
16050W        W31519   1.072  17.120   0.883  0.1323  0.1553  0.1605
16051W        W31520   9.768  14.705   0.509  0.0049 -0.0403  0.2065
16052W        W31521   1.846  12.972   1.723 -0.5480  0.1990  0.2937
16053W        W31522   0.470  10.420   0.425 -0.2674  0.0924 -0.0298
16054W        W31523   0.349  10.126   3.390  0.1082  0.0678  0.0839
16055W        W31524  13.863   7.203   5.132  0.0069  0.0785 -0.2426
16056W        W31525   2.864  13.374   0.473  0.2691 -0.0369 -0.0421
16057W        W31526   8.570  11.635  11.011 -0.1283  0.1424 -0.1008
16058W        W31527  11.555   0.200   0.292 -0.1865 -0.0258 -0.0610
16059W        W31528  18.068   6.462  12.429  0.0101  0.1472  0.0826
16060W        W31529  14.137   4.198  11.165 -0.0503  0.1035 -0.0224
16061W        W31530  17.913  15.396   2.709  0.2656  0.1628  0.1554
16062W        W31531   2.898   5.929  10.844 -0.2200  0.0510 -0.4118
16063W        W31532   5.004  14.997  11.284 -0.1790 -0.2081 -0.1753
16064W        W31533   7.930   3.942   1.255 -0.1420  0.0875  0.0443
16065W        W31534  12.960   7.519  11.703 -0.0702  0.4615 -0.0077
16066W        W31535   6.430   9.000   5.558  0.0698 -0.2578  0.1537
16067W        W31536   1.114   7.941  15.730  0.2461 -0.2011  0.0448
16068W        W31537   4.262   6.130  13.687 -0.1780  0.1494 -0.2351
16069W        W31538   2.702   9.554  15.042 -0.0098  0.1145 -0.1710
16070W        W31539  17.217   6.247  15.835  0.1003 -0.2859 -0.0826
16071W        W31540   8.778   0.867  14.299  0.1539  0.0908 -0.2139
16072W        W31541  13.969   5.982   1.566 -0.3173  0.1251 -0.0156
16073W        W31542   0.181   3.257   3.959 -0.0677 -0.0425 -0.0466
16074W        W31543   6.605  12.699   9.478 -0.0621 -0.0002 -0.4270
16075W        W31544   9.116   5.569   5.232  0.0570  0.0573 -0.1457
16076W        W31545  10.480   9.347  15.942 -0.1298  0.0626  0.0361
16077W        W31546   6.171   7.063   4.738  0.2722 -0.2051  0.0659
16078W        W31547  14.468  14.165   3.880 -0.3372 -0.0956 -0.1399
16079W        W31548  15.675   0.127  11.922 -0.1133  0.1171 -0.0645
16080W        W31549   5.511  17.364  15.109  0.2289 -0.1150  0.1413
16081W        W31550   5.689   7.419  14.766 -0.2031  0.1170 -0.3018
16082W        W31551   8.398   3.422  11.622  0.1094  0.1319 -0.0152
16083W        W31552  14.353  14.964   4.839 -0.2662  0.3181 -0.1699
16084W        W31553   9.394  12.441   4.932  0.1916  0.1200 -0.1577
16085W        W31554   6.883  11.191   4.919 -0.0752 -0.1550 -0.4262
16086W        W31555   2.376   4.260  15.782 -0.0957 -0.1537 -0.2459
16087W        W31556   9.025   8.579   3.755  0.1824  0.0127  0.0218
16088W        W31557  11.518   8.055   1.583 -0.1764  0.0535 -0.0082
16089W        W31558   4.786   9.565  13.299  0.3228 -0.1933  0.0515
16090W        W31559   4.127   9.254  14.368  0.2277 -0.0705 -0.0388
16091W        W31560   7.611  16.553  15.931  0.2487 -0.2292  0.2566
16092W        W31561  15.910   7.218  11.568 -0.0635  0.0740 -0.0864
16093W        W31562  10.662   8.393  15.846 -0.2782  0.0932  0.2143
16094W        W31563  12.559   4.574  12.581 -0.0837  0.0214  0.1170
16095W        W31564  17.522   5.223   3.215  0.0534 -0.0281 -0.0493
16096W        W31565  16.976   8.311  15.682 -0.3259 -0.4004  0.1156
16097W        W31566   7.617   1.001   3.324 -0.0317 -0.4602 -0.1134
16098W        W31567  16.669   1.270   4.585 -0.3852 -0.1998  0.1086
16099W        W31568   2.261  17.229   1.086  0.2215  0.0597  0.0223
16100W        W31569   0.265   7.099  14.898  0.0039  0.2664  0.2112
16101W        W31570   0.797   7.244  10.592 -0.1434  0.2504  0.0628
16102W        W31571   5.363   8.226   0.026 -0.0158  0.1837  0.0946
16103W        W31572  10.505  11.994  12.200  0.0564 -0.3456 -0.1479
16104W        W31573   8.685  14.748   0.659 -0.0800  0.1687  0.0297
16105W        W31574   1.648   6.124   0.116 -0.0840  0.2496 -0.1799
16106W        W31575  10.801   4.160   5.464  0.0429 -0.2668  0.1603
16107W        W31576  12.575   8.048  14.267 -0.1567  0.1484 -0.2667
16108W        W31577   4.136  16.680  14.585  0.0714  0.1023 -0.2502
16109W        W31578   0.775  11.262   5.080 -0.0162  0.2170  0.2862
16110W        W31579   2.332  13.112   1.676  0.1787  0.3579 -0.2035
16111W        W31580   3.469  17.461  16.147  0.0783 -0.0926 -0.0480
16112W        W31581   4.454   5.192  14.099 -0.0442 -0.0112  0.1991
16113W        W31582   2.393   6.033  11.715  0.1936  0.0591 -0.0366
16114W        W31583  15.438  11.532  15.050 -0.0915  0.0075 -0.0947
16115W        W31584  16.502   6.031  13.834 -0.1776  0.2597 -0.0333
16116W        W31585  17.209   2.690   4.647 -0.3763 -0.0263 -0.1381
16117W        W31586   6.158  14.964  10.844 -0.4425 -0.1367  0.1720
16118W        W31587  17.277   4.761   1.077  0.1822  0.2297  0.1695
16119W        W31588   7.223  13.010   4.134 -0.1631  0.2194 -0.2532
16120W        W31589   2.488  15.957   1.889 -0.1490  0.0814  0.1072
16121W        W31590   8.587   5.496  14.500 -0.1303  0.0970 -0.1287
16122W        W31591   9.554   1.078  13.212 -0.0892  0.1775  0.0529
16123W        W31592   8.127   6.110  11.588 -0.5170  0.0026  0.2356
16124W        W31593  12.000  10.274   3.225 -0.2024 -0.0299  0.1964
16125W        W31594  14.341   4.721  11.917  0.4616  0.1594  0.1868
16126W        W31595   0.335   4.278  11.825  0.0120 -0.0701 -0.1476
16127W        W31596   7.167   2.717  12.202 -0.0954  0.1832  0.2635
16128W        W31597   8.471   8.703  12.595 -0.1436 -0.0158  0.0445
16129W        W31598  16.848   5.083  14.208  0.3441  0.1389  0.0799
16130W        W31599   0.217  17.475  12.994  0.0425 -0.0492  0.0462
16131W        W31600  16.968  13.471   3.998  0.1084  0.2916 -0.1540
16132W        W31601  15.853  10.589   3.014 -0.0248  0.1730  0.3105
16133W        W31602   1.919  16.907   3.352  0.0228 -0.2435 -0.2314
16134W        W31603   3.074  17.184  15.213 -0.0670 -0.0616  0.2972
16135W        W31604  15.639  17.635   2.251 -0.2449 -0.1903  0.0201
16136W        W31605  10.607   7.895   1.204 -0.1527  0.0501 -0.2574
16137W        W31606   3.502  16.997  15.466 -0.1966 -0.0503  0.1089
16138W        W31607  16.248  11.433   5.978 -0.0502 -0.0270 -0.0182
16139W        W31608  10.293   2.982  11.961  0.2688 -0.1829 -0.1031
16140W        W31609   4.252  16.186  13.351  0.4346  0.0360 -0.3650
16141W        W31610  17.279  12.497  14.167  0.0179 -0.0144 -0.1343
16142W        W31611  10.494  11.223  15.056 -0.1570  0.0166  0.1239
16143W        W31612   9.739  12.553  11.855 -0.1714  0.0974 -0.2232
16144W        W31613   0.488  14.102  10.933  0.1696  0.2454  0.1479
16145W        W31614   4.143  13.043   2.615 -0.2476  0.1062  0.1003
16146W        W31615  13.221   4.846  15.525  0.0762  0.1100 -0.1638
16147W        W31616  13.120   3.068   3.049 -0.1507  0.2287 -0.1361
16148W        W31617   3.851  10.753   4.014 -0.1383  0.1745 -0.1945
16149W        W31618   6.019   7.866  14.846  0.0840 -0.0961 -0.0019
16150W        W31619  12.151   9.470   0.238  0.2779  0.1234 -0.1844
16151W        W31620   8.192  11.822  13.359 -0.1218 -0.2402 -0.0321
16152W        W31621  11.286  14.846  14.697 -0.1661  0.0497 -0.1690
16153W        W31622  16.400   7.320  11.698 -0.3791  0.0004  0.1802
16154W        W31623   2.436   4.289  15.264  0.1121 -0.0545 -0.0712
16155W        W31624  11.276  12.663   5.523 -0.1509 -0.0735  0.0444
16156W        W31625  18.043   6.143   0.154 -0.3359  0.2804 -0.0848
16157W        W31626   0.689  15.664   2.865  0.2969 -0.2102 -0.0133
16158W        W31627  11.180   8.916   1.340  0.1105 -0.3044 -0.0209
16159W        W31628  16.695   1.861   3.787 -0.1378  0.3464 -0.0287
16160W        W31629  13.340   6.611   4.472 -0.0212  0.1037  0.1446
16161W        W31630  12.983  15.750   4.698  0.1165 -0.1213  0.0454
16162W        W31631   2.403  14.601  14.656  0.2884  0.0396 -0.0681
16163W        W31632  13.882   6.563   2.905  0.0036 -0.0488 -0.1790
16164W        W31633   7.074  11.226   3.480 -0.3040 -0.4583 -0.1917
16165W        W31634   3.066   0.212   2.517 -0.1762  0.0895 -0.0929
16166W        W31635   0.837   1.271   0.571 -0.0234 -0.5293  0.1903
16167W        W31636   4.146  11.054  15.525  0.0578 -0.0331  0.1966
16168W        W31637  13.942   2.862   4.315 -0.1006 -0.1236  0.0752
16169W        W31638  17.303   2.735  15.296 -0.1183 -0.0677 -0.0005
16170W        W31639   9.951   4.291   0.110 -0.0235 -0.3831 -0.2144
16171W        W31640  11.747  11.098   0.700 -0.0129 -0.2489  0.2404
16172W        W31641   7.283   0.564   3.398 -0.0224  0.2116  0.1750
16173W        W31642   8.374  11.978   5.161  0.0844 -0.0256 -0.1262
16174W        W31643  14.620   2.611   4.346  0.0025 -0.1971  0.0654
16175W        W31644  17.746  14.642  10.290  0.0171 -0.1962 -0.1213
16176W        W31645   5.551  10.173  11.707  0.0506 -0.0739  0.1723
16177W        W31646   3.319   1.549  13.497 -0.0456 -0.0357  0.0736
16178W        W31647  13.573   2.266  13.365  0.2634 -0.1530 -0.3305
16179W        W31648  10.247  14.182  12.345  0.1238  0.1896  0.0466
16180W        W31649  16.503  15.687   1.624 -0.1714 -0.1152  0.0769
16181W        W31650   7.034  15.384   3.084  0.1591 -0.1844  0.1090
16182W        W31651  11.470   2.102   2.445 -0.1760 -0.0333 -0.1901
16183W        W31652   8.551   1.994  14.687 -0.1171  0.1272  0.0426
16184W        W31653   1.815  14.222   3.044  0.1270 -0.1551 -0.3165
16185W        W31654   7.393   3.154  12.394  0.0948 -0.1622 -0.0809
16186W        W31655  15.473   7.765  13.745 -0.0660 -0.3563  0.0169
16187W        W31656   5.575  16.919   5.042 -0.0652  0.4656 -0.0960
16188W        W31657   8.931   2.487  14.532  0.0564  0.0024  0.1401
16189W        W31658  17.097  12.240  11.389  0.1274  0.1402  0.2108
16190W        W31659   5.976  10.987   1.414 -0.4083  0.0930 -0.1254
16191W        W31660   3.166   3.700   2.405  0.0093 -0.2084  0.0245
16192W        W31661   4.546   8.913  15.472 -0.0624  0.0041  0.2312
16193W        W31662  15.611  14.227   2.897  0.1799 -0.1117 -0.0972
16194W        W31663   6.926  16.267  13.318  0.1356  0.0438  0.0215
16195W        W31664   8.278   3.120   5.772  0.0527  0.1213  0.1671
16196W        W31665  18.219   6.714  15.666  0.0135 -0.1167 -0.0422
16197W        W31666  10.823  14.810   1.652 -0.1910  0.0837 -0.2180
16198W        W31667   4.092   2.562   0.355 -0.0959 -0.0495 -0.0186
16199W        W31668   8.963  10.318  15.127  0.0573 -0.0627  0.2046
16200W        W31669   2.807   7.174  12.706  0.1044 -0.2024  0.1074
16201W        W31670   1.226   8.928  12.591 -0.1976  0.0558 -0.3366
16202W        W31671  10.767   1.618  12.922  0.2482 -0.0516  0.0081
16203W        W31672   9.351   2.409   4.376 -0.0103 -0.0207  0.2482
16204W        W31673   9.041   8.862  13.760  0.2489  0.0924 -0.1703
16205W        W31674  13.403  13.558  13.704 -0.1554  0.2532  0.2110
16206W        W31675   4.300   0.531   3.746 -0.1943  0.3046 -0.0179
16207W        W31676   6.983  16.505   0.925  0.1239  0.3850  0.1885
16208W        W31677   1.368   7.773   1.628 -0.3548 -0.1688 -0.0518
16209W        W31678  14.210  11.068   3.896  0.1680 -0.2056 -0.1758
16210W        W31679   6.167  17.627  11.535 -0.1862  0.0782 -0.0746
16211W        W31680   0.169   5.251   3.757 -0.2275  0.1435  0.1380
16212W        W31681  11.118  15.653  11.604  0.3324  0.1671  0.0830
16213W        W31682   7.216   3.199  15.547 -0.2455  0.0058 -0.1172
16214W        W31683   8.779   8.914  15.036 -0.1713  0.0321 -0.1460
16215W        W31684   5.496  12.096  12.355  0.0702  0.1017 -0.2540
16216W        W31685  14.734  11.851   0.576  0.2927 -0.0662 -0.0600
16217W        W31686  15.188   7.433  15.514 -0.3901 -0.1010 -0.2167
16218W        W31687   3.808  13.526   1.053 -0.1425 -0.2007 -0.0193
16219W        W31688   2.285   4.709  14.813 -0.2228 -0.1831 -0.0678
16220W        W31689   5.130   3.814  15.890 -0.0068 -0.1117 -0.3782
16221W        W31690   6.915   5.385  14.500 -0.0702 -0.0312 -0.0316
16222W        W31691   1.049  14.860  11.433  0.2657  0.1997  0.2437
16223W        W31692   4.179  13.848   3.282 -0.1731  0.4100  0.2693
16224W        W31693   4.654  12.555  12.396  0.0664 -0.4003 -0.0834
16225W        W31694   2.015  12.644   5.782 -0.1582 -0.1166 -0.0253
16226W        W31695  17.269  12.860  10.759 -0.1423 -0.0301 -0.2202
16227W        W31696  17.482  16.746  13.723 -0.1234  0.2483 -0.0640
16228W        W31697   9.411  15.084   3.138  0.2315  0.1650  0.2034
16229W        W31698   0.186  17.197  11.481 -0.0832  0.0539  0.3618
16230W        W31699   5.133   4.035   5.273  0.0617  0.3310 -0.1004
16231W        W31700  12.539  10.079  11.739 -0.0549 -0.0951  0.1307
16232W        W31701   5.122   9.969   5.922 -0.1853 -0.1547  0.0156
16233W        W31702   5.232   3.328  10.968  0.2325 -0.3432 -0.1401
16234W        W31703  12.570  11.964  12.853  0.0216  0.1996 -0.1947
16235W        W31704  14.652   0.445   4.888 -0.0083  0.1665 -0.0683
16236W        W31705   1.030  17.484   3.035  0.1435  0.0753 -0.0419
16237W        W31706   3.830  11.916  10.833 -0.0055  0.0227 -0.0039
16238W        W31707   8.569  12.170  15.964  0.0844 -0.1615 -0.2295
16239W        W31708   0.172  17.703   5.999 -0.1017 -0.1800  0.0840
16240W        W31709   9.049   5.435  14.559 -0.3643  0.0542  0.1204
16241W        W31710  14.285   8.801   4.721 -0.1862 -0.2526  0.3318
16242W        W31711   1.189   0.026   4.048  0.0608  0.0105 -0.0676
16243W        W31712  14.224  18.075  13.451 -0.0042 -0.0247 -0.1581
16244W        W31713  18.081   1.348   4.423 -0.0617 -0.1967 -0.0382
16245W        W31714   8.074  15.316  12.840 -0.0303  0.2760 -0.0231
16246W        W31715   1.060   7.429  15.443  0.0121  0.1532 -0.0487
16247W        W31716  13.508  12.819  12.514 -0.0928  0.2883  0.0570
16248W        W31717  11.934  10.975  12.180 -0.0556  0.0763 -0.2072
16249W        W31718  18.161   8.524  14.488  0.0538  0.3379  0.1195
16250W        W31719  11.689  15.349  13.343 -0.1087  0.2222 -0.0102
16251W        W31720   5.833   0.358  12.823 -0.1100 -0.0487 -0.1050
16252W        W31721  11.523   5.813   1.207 -0.0379  0.2926 -0.0618
16253W        W31722   4.107  10.683  13.615 -0.1952  0.1670 -0.4911
16254W        W31723   9.171   7.537  11.890 -0.0862  0.1862  0.2817
16255W        W31724   4.442  17.681   2.912 -0.2227  0.0662  0.1262
16256W        W31725   5.383   2.971   2.546  0.1274  0.1960  0.2488
16257W        W31726  10.859  15.504   2.047  0.1729  0.1801  0.0138
16258W        W31727  11.334  11.194  14.493 -0.0531  0.1374  0.1001
16259W        W31728   6.254   7.692  11.825  0.1501 -0.0645  0.1188
16260W        W31729   6.515  17.240   1.065  0.1173 -0.1715 -0.0379
16261W        W31730  13.913  10.287   3.429 -0.0373 -0.1899 -0.0343
16262W        W31731   1.896  14.344   1.220  0.1855  0.1590  0.1220
16263W        W31732   0.802   7.571  14.440  0.0872  0.1338  0.3434
16264W        W31733   6.839   9.545  13.879 -0.3515  0.1953  0.1806
16265W        W31734   1.631   5.355   2.192  0.3259  0.0109 -0.0910
16266W        W31735   5.666  10.397   2.690  0.1712  0.0449 -0.2363
16267W        W31736  17.159  11.499  13.647  0.1610  0.1402  0.0374
16268W        W31737   0.155  16.899   0.251 -0.2287 -0.3975 -0.0538
16269W        W31738  13.559   5.859   5.142 -0.1790  0.1583  0.0291
16270W        W31739   2.871  12.676  13.727 -0.3520  0.1116 -0.1173
16271W        W31740  11.984   6.622   2.288 -0.0849 -0.0627  0.0155
16272W        W31741  16.182   2.472   4.479  0.1854  0.0871 -0.0163
16273W        W31742   2.534   2.990  13.700 -0.0799 -0.3347  0.3125
16274W        W31743  13.922  15.408   3.729 -0.0536 -0.0998 -0.0384
16275W        W31744  16.356   6.033   5.105  0.3244  0.0340  0.1930
16276W        W31745  17.320   6.736   1.988  0.1095 -0.2205 -0.0953
16277W        W31746   8.672   5.846   0.645  0.1984  0.2505  0.0797
16278W        W31747   5.142  16.352  11.706 -0.0581  0.0027 -0.2622
16279W        W31748  13.245  16.616   0.283 -0.0994  0.0409 -0.0899
16280W        W31749   2.281  16.761   2.972  0.1357 -0.0392  0.1970
16281W        W31750  12.470  16.711   3.045  0.3640  0.0879  0.0860
16282W        W31751   8.688  16.975   1.558  0.1000  0.0735 -0.3351
16283W        W31752  13.016  10.497   0.169 -0.3491  0.2820  0.2452
16284W        W31753  16.456   7.776   0.087  0.1565  0.1234 -0.2750
16285W        W31754  12.746   0.538  11.463 -0.2223 -0.1362  0.2666
16286W        W31755  10.283  17.306   4.508 -0.2531  0.0232 -0.1711
16287W        W31756   8.337   2.703  10.865 -0.1389 -0.1964 -0.3320
16288W        W31757   9.851  13.838  13.913 -0.0125  0.0311  0.3493
16289W        W31758  13.642   7.037  14.100  0.0653  0.2062  0.2170
16290W        W31759  17.792   5.464   3.594 -0.0492 -0.2544 -0.1749
16291W        W31760  14.609   1.664  12.261 -0.3353  0.1220  0.0129
16292W        W31761  17.168  13.152  15.591 -0.1187 -0.0948 -0.0622
16293W        W31762  16.458  11.448   2.874 -0.0288  0.2329  0.0588
16294W        W31763  12.562   8.713  13.762  0.3273  0.1058 -0.0939
16295W        W31764   2.032   2.023   5.362 -0.0465  0.0938 -0.0032
16296W        W31765   2.258  13.481   3.305  0.3256 -0.0553 -0.1025
16297W        W31766   4.465  17.874   1.622  0.0648 -0.0131 -0.1966
16298W        W31767  15.943  12.393  12.999  0.1207 -0.3472  0.0252
16299W        W31768  14.595   5.356  10.889 -0.3019 -0.1900 -0.4088
16300W        W31769  12.168   1.219   3.338  0.2435 -0.1233 -0.1436
16301W        W31770  15.537  16.534   2.860 -0.2549  0.0003 -0.0988
16302W        W31771   1.794   9.736  14.782 -0.4704  0.2347 -0.1463
16303W        W31772  16.926  11.902   1.057 -0.2100 -0.1925  0.0351
16304W        W31773   3.351  13.583   1.407  0.1910 -0.0268  0.3764
16305W        W31774  15.820  15.442  12.285  0.0904 -0.4471  0.0732
16306W        W31775   9.268   8.157   0.473  0.1875 -0.1089  0.2434
16307W        W31776  13.251   3.428   6.216  0.1516  0.1031 -0.0505
16308W        W31777  13.079  14.857   5.085  0.0671 -0.3119 -0.0380
16309W        W31778  11.341  15.926  14.804  0.0697  0.3046 -0.0216
16310W        W31779   6.105   2.265   2.173 -0.1837 -0.3044 -0.0879
16311W        W31780  13.972  15.254  14.252  0.0217  0.1068  0.1036
16312W        W31781  10.977  15.036   0.713 -0.2455  0.2129 -0.0062
16313W        W31782  11.455  16.614  15.155  0.1599 -0.4718 -0.1840
16314W        W31783  16.513   9.527   5.093  0.3838 -0.0419  0.1157
16315W        W31784   3.381   2.113  15.973 -0.0030  0.0864  0.0196
16316W        W31785   4.196   6.311  14.915  0.2132 -0.0464  0.1385
16317W        W31786  13.338  11.852   0.278  0.2967 -0.0060  0.3813
16318W        W31787   0.618   6.529   1.766 -0.3387 -0.0245  0.0179
16319W        W31788   2.719   9.813   0.713  0.2304  0.0372 -0.0444
16320W        W31789  17.701   3.892  12.827  0.1380 -0.2580  0.0915
16321W        W31790  15.537   8.072  11.782 -0.1058 -0.3950 -0.4795
16322W        W31791   4.174   0.217   4.770  0.0750  0.2081 -0.0936
16323W        W31792   8.871   6.262   0.060 -0.2380 -0.1874  0.0717
16324W        W31793  14.276  10.310  11.242 -0.0044 -0.1516 -0.0637
16325W        W31794  11.719  10.121   4.156 -0.0978 -0.0106  0.0436
16326W        W31795   5.015  16.232   4.148  0.1898 -0.2340  0.0147
16327W        W31796  10.031   9.056   0.384  0.0065 -0.1201 -0.1048
16328W        W31797  10.642   6.966  13.815  0.0941 -0.0422  0.1141
16329W        W31798   4.038  10.343  12.560  0.0390 -0.2431 -0.1981
16330W        W31799   3.210   3.100  14.867  0.1782  0.1614 -0.2408
16331W        W31800  10.482   6.038   2.480  0.0376 -0.1881 -0.1960
16332W        W31801   6.399   2.029   0.805 -0.1022 -0.0128 -0.2698
16333W        W31802  13.083   2.756   5.130  0.0214 -0.2962  0.0081
16334W        W31803  12.262  16.227   1.475  0.1422  0.1875  0.0759
16335W        W31804  10.348   9.251  11.599  0.1593  0.1533 -0.1655
16336W        W31805   8.244  10.978   0.654 -0.0386  0.3129  0.2838
16337W        W31806   5.140   2.731   3.548 -0.1825 -0.1843 -0.0380
16338W        W31807   7.780   5.338  11.519  0.1305 -0.2564 -0.1009
16339W        W31808   1.328   3.205   5.244 -0.1078  0.0082  0.0990
16340W        W31809   2.518   2.309  12.205 -0.1151  0.1262  0.1138
16341W        W31810  13.849   0.236  12.433  0.2774 -0.0393  0.0166
16342W        W31811   9.618   8.703  15.172  0.1269  0.1163 -0.0217
16343W        W31812   9.780   2.564  13.731 -0.3075  0.0148  0.1790
16344W        W31813  11.169   9.613   3.439  0.0180  0.2815  0.2898
16345W        W31814  17.640   2.629  11.296 -0.1513 -0.0413 -0.1200
16346W        W31815   1.869  12.269   4.438 -0.0157  0.0681 -0.0685
16347W        W31816  16.714   8.609  12.771 -0.2110 -0.1085 -0.2085
16348W        W31817  11.038  17.993  15.723 -0.0505 -0.0208  0.0505
16349W        W31818  12.006   9.917   0.878  0.1143 -0.1474  0.1172
16350W        W31819  10.408  10.854   6.063 -0.0236  0.3008  0.1248
16351W        W31820   2.659   6.434  14.478 -0.0007 -0.0591  0.2085
16352W        W31821  12.111   1.868  15.918  0.3008  0.0534  0.2777
16353W        W31822   0.994  13.940  14.393  0.6213  0.0967 -0.1601
16354W        W31823   5.263  12.461  15.424  0.0298  0.0166 -0.0584
16355W        W31824   9.502   0.076   0.152 -0.1680  0.0842  0.1528
16356W        W31825  12.276  17.705  13.711 -0.1183 -0.1595 -0.3734
16357W        W31826   3.214  10.623   0.995  0.3152  0.2776 -0.1670
16358W        W31827   4.535  16.040   3.963  0.1998 -0.2588 -0.0697
16359W        W31828  16.295  10.016  13.550  0.1194  0.3776  0.0062
16360W        W31829   0.096   4.120  12.309  0.0331  0.0898 -0.1006
16361W        W31830   4.875  11.672  11.669  0.1821  0.0774  0.1691
16362W        W31831   6.708  12.012  11.107 -0.0853  0.0704 -0.3462
16363W        W31832   2.776   0.202  14.798  0.2476  0.1914  0.1265
16364W        W31833   0.334   5.852  14.074 -0.2489 -0.0771 -0.1111
16365W        W31834   4.027  16.592  15.427 -0.2736  0.2218 -0.0315
16366W        W31835  15.529  11.867   0.201 -0.0121 -0.4036 -0.4690
16367W        W31836  16.739  15.088   3.402 -0.1036  0.0603 -0.0394
16368W        W31837   1.534   9.958   4.737  0.0242 -0.1603 -0.1073
16369W        W31838   5.235   3.240  12.360 -0.1917 -0.0777  0.3048
16370W        W31839   9.651   6.370  11.556 -0.1549 -0.0174 -0.0428
16371W        W31840   7.839   0.008  12.849  0.1450  0.0855 -0.2174
16372W        W31841   5.905   6.795  11.669 -0.2952 -0.1053 -0.1858
16373W        W31842   6.833   8.933   4.690  0.2683  0.2144 -0.2322
16374W        W31843  11.991  13.726  11.856 -0.1264  0.0970 -0.0966
16375W        W31844  15.377   5.670   2.816 -0.0278 -0.1198 -0.4961
16376W        W31845  11.780   7.657   1.492  0.1942 -0.1834 -0.1569
16377W        W31846   7.882   4.262  15.560  0.2736  0.0184 -0.0043
16378W        W31847   3.739   5.387  13.190 -0.1071 -0.1721 -0.0249
16379W        W31848   8.255   5.992   4.805 -0.2938  0.1235  0.1477
16380W        W31849  16.437  14.878   2.379  0.0228 -0.0897 -0.1099
16381W        W31850   4.087  16.748   3.488  0.0550 -0.1181  0.3119
16382W        W31851   6.745  17.700   1.805 -0.1421 -0.2057 -0.2677
16383W        W31852  15.937   3.761   1.339  0.0449 -0.4585 -0.1743
16384W        W31853  15.242  11.969  14.147  0.2174 -0.1972  0.1231
16385W        W31854  15.406   7.200  14.379 -0.2718 -0.2361 -0.1894
16386W        W31855   1.858   1.292  11.227  0.1593 -0.1288  0.0430
16387W        W31856  16.243  13.411   0.847  0.1553 -0.0407 -0.0697
16388W        W31857   2.734  16.649   5.282 -0.1938  0.0542  0.0643
16389W        W31858   4.779   4.120  11.416  0.0985 -0.0474  0.1659
16390W        W31859  13.350  15.752   6.114 -0.2302 -0.0557  0.1970
16391W        W31860   6.354   8.365   1.696 -0.3734  0.2554  0.1466
16392W        W31861   6.319   2.148   3.958  0.2078  0.1171  0.2406
16393W        W31862   5.547  14.196  12.661  0.0229  0.0262  0.0144
16394W        W31863   0.865   8.590   3.679  0.1094 -0.1766 -0.1660
16395W        W31864  10.082  11.844  16.169 -0.1818 -0.0005 -0.0215
16396W        W31865  15.266   1.124  14.475  0.3080 -0.0686  0.0695
16397W        W31866   3.207   9.866   5.659  0.1069 -0.0646  0.0990
16398W        W31867  15.693   4.340  11.344  0.1532  0.1286 -0.1121
16399W        W31868  10.840   5.255  14.227  0.0183 -0.2043  0.0561
16400W        W31869   4.617   4.215  10.945  0.1257  0.0095 -0.0914
16401W        W31870  17.896  13.272  15.484  0.0452 -0.0555  0.1480
16402W        W31871  11.687   2.806   4.180  0.0142  0.0636  0.1417
16403W        W31872   2.861   7.356   3.634  0.0126 -0.1113  0.2895
16404W        W31873   7.735   8.107   3.371  0.0017 -0.1565 -0.0940
16405W        W31874  17.868   1.796  11.287 -0.0377  0.3387 -0.1918
16406W        W31875   6.170   6.608   1.702  0.1988 -0.0577 -0.1376
16407W        W31876   0.229  14.872   0.188 -0.1174  0.1365 -0.1145
16408W        W31877  10.120  15.901  10.810 -0.1032 -0.0228  0.0189
16409W        W31878  14.330   2.042   1.705 -0.0515  0.1903 -0.0120
16410W        W31879  13.834   9.316   0.436  0.0964 -0.3251 -0.1999
16411W        W31880  18.219  16.542   3.650 -0.4135  0.0351  0.2628
16412W        W31881  15.767   0.801  11.634 -0.0166 -0.1896 -0.2182
16413W        W31882   3.379  12.908   3.024  0.2183 -0.0652  0.1785
16414W        W31883   0.288   3.257   6.314 -0.0241 -0.4586 -0.0245
16415W        W31884   6.276   0.464   2.405 -0.0493 -0.0511 -0.1824
16416W        W31885   4.925   0.404   0.247  0.3012  0.3083  0.2943
16417W        W31886  11.475   7.218  12.600  0.0312  0.0366  0.1988
16418W        W31887  14.172   7.982  13.044 -0.0291 -0.4307 -0.0083
16419W        W31888   8.873   6.752   0.835 -0.1529  0.0425 -0.2831
16420W        W31889   7.676  12.975  15.940 -0.1507  0.0158 -0.1206
16421W        W31890  11.436   5.271  13.476 -0.0636  0.1943 -0.0448
16422W        W31891   1.597   3.142  13.511  0.1907  0.3482 -0.0380
16423W        W31892  12.264  12.911   4.448  0.1320 -0.1674  0.2058
16424W        W31893  18.239   8.088  15.041  0.2356 -0.1265 -0.3091
16425W        W31894  14.423  14.194  11.268  0.0071  0.1466 -0.1443
16426W        W31895   8.130   5.424  14.207  0.2008 -0.0392 -0.0182
16427W        W31896  13.015  10.191   3.531 -0.0666 -0.3963  0.0946
16428W        W31897   6.592  13.687  14.264 -0.0870 -0.2075 -0.2475
16429W        W31898  17.863   5.623  13.751 -0.2742  0.1414  0.2803
16430W        W31899   9.456   6.798  11.193  0.0193  0.1074 -0.2080
16431W        W31900  13.679   2.349  15.196 -0.1422  0.0612 -0.4019
16432W        W31901   8.217  18.208  12.559 -0.0085  0.3511 -0.2047
16433W        W31902  14.155  15.447   2.844 -0.0610 -0.0687 -0.2532
16434W        W31903  11.038   3.308   0.453  0.0799 -0.1028  0.0532
16435W        W31904  16.907  12.274  13.240  0.2014  0.0449  0.0097
16436W        W31905   8.167  14.471  12.780  0.0995  0.2285  0.2562
16437W        W31906  17.936  11.535  13.853  0.1432 -0.1871 -0.0532
16438W        W31907   1.026   6.790   2.510 -0.1685  0.1949  0.1395
16439W        W31908   2.853  18.092   2.635 -0.1074  0.0013 -0.2835
16440W        W31909  18.134   8.177   2.212 -0.0381  0.2197  0.0913
16441W        W31910   6.266   0.897   1.626 -0.3480 -0.0319 -0.1466
16442W        W31911   5.785   2.841  11.532 -0.0554  0.2489  0.0021
16443W        W31912  10.143   2.820  14.901 -0.1075 -0.0630  0.2859
16444W        W31913  15.562  17.287  14.757 -0.0016 -0.2119 -0.2208
16445W        W31914  17.762   7.058   1.753  0.1990 -0.1763 -0.0066
16446W        W31915   0.075  14.679   4.949  0.3061  0.1566 -0.1325
16447W        W31916   5.054  14.853  15.190 -0.2282  0.4700 -0.1217
16448W        W31917   5.762  11.017  14.601 -0.0898  0.0476  0.0717
16449W        W31918   9.588   9.334  15.890 -0.0332  0.0472 -0.1269
16450W        W31919   8.586  12.234   3.017 -0.0079 -0.2725  0.1070
16451W        W31920  17.810   5.777  11.210 -0.0931 -0.1961 -0.2255
16452W        W31921  13.522   4.668  13.334  0.0221 -0.0766 -0.1205
16453W        W31922   5.547   5.322   2.285  0.0938 -0.0684 -0.0459
16454W        W31923   9.754  10.137   1.032 -0.0370 -0.1179  0.2759
16455W        W31924   4.032   2.183   2.983 -0.1406 -0.1671 -0.0619
16456W        W31925   7.683   8.052  13.931  0.2481  0.0340  0.1780
16457W        W31926  11.941  11.836   1.985 -0.2088  0.1196  0.0443
16458W        W31927   9.163   8.605  12.785  0.1258  0.1285  0.0183
16459W        W31928  13.533   5.263  15.663 -0.3043 -0.2134  0.0401
16460W        W31929   2.413  17.072   5.410  0.1793 -0.0856 -0.1482
16461W        W31930  16.871  14.416  15.769 -0.0072  0.3327 -0.0673
16462W        W31931  16.931   1.302   2.704  0.1164 -0.0564  0.0200
16463W        W31932   0.424  11.423   1.826  0.1873  0.0026  0.0894
16464W        W31933   0.734   5.369  16.152  0.2765 -0.1069 -0.0707
16465W        W31934  10.981   6.718   2.980 -0.3999  0.0393  0.0737
16466W        W31935   3.995   0.362  13.514  0.0320 -0.0486  0.1066
16467W        W31936   6.518   9.301   4.560  0.1409 -0.1628 -0.4157
16468W        W31937  17.180  15.492   2.674  0.1151  0.3060 -0.0270
16469W        W31938   7.653  17.215  14.807  0.0712 -0.0774 -0.1204
16470W        W31939   8.710  17.363  15.423 -0.1290 -0.2578  0.1175
16471W        W31940   2.774  11.590   5.180  0.0594 -0.0534  0.1533
16472W        W31941   9.937   2.187  15.585 -0.1731  0.1954  0.1112
16473W        W31942  14.884  16.309  14.132 -0.1177  0.3372 -0.0681
16474W        W31943   9.053  16.150  14.931  0.4861 -0.0859  0.0875
16475W        W31944   5.813   7.171   2.603 -0.0532  0.1448  0.0957
16476W        W31945  17.457  10.680   0.306  0.1033  0.0051  0.2114
16477W        W31946   7.302  13.160  10.905  0.2842  0.2070  0.0672
16478W        W31947  15.063   3.774  10.635  0.0320 -0.0294 -0.1490
16479W        W31948   6.647  15.539   1.540 -0.1533  0.1240 -0.2020
16480W        W31949  12.479   0.376   3.915 -0.1440  0.2136  0.4042
16481W        W31950  13.534  11.487  13.067  0.0105  0.0336 -0.0535
16482W        W31951   4.493  11.868   2.305 -0.4247  0.0945  0.2104
16483W        W31952   6.889  13.791  14.766  0.0254  0.0273 -0.0896
16484W        W31953   0.771  14.989  12.785 -0.0831 -0.1766  0.0286
16485W        W31954  11.214  11.048   5.686 -0.2305  0.0307 -0.0266
16486W        W31955  13.130   4.161   1.288  0.0733  0.1632  0.2975
16487W        W31956   6.178   0.953  15.882 -0.3717 -0.1308 -0.1940
16488W        W31957  11.639   0.292   2.264  0.0006 -0.0465 -0.0095
16489W        W31958   3.821  15.147   4.126 -0.2012  0.0201  0.0385
16490W        W31959   5.257   0.219   5.753  0.1198 -0.1305 -0.0469
16491W        W31960  11.164  14.014  10.921 -0.0631  0.0092  0.0493
16492W        W31961   1.605  11.506   0.010  0.1380  0.2554  0.2156
16493W        W31962  13.751  15.599  14.002  0.2725 -0.2652  0.1508
16494W        W31963   4.444  18.030   3.480 -0.0757 -0.3040  0.3948
16495W        W31964   7.978   0.478  14.096  0.1206 -0.1979  0.3096
16496W        W31965  17.034  13.416  15.179  0.3745  0.1307  0.0499
16497W        W31966   2.828   9.843   2.915 -0.1301  0.1959 -0.0282
16498W        W31967   6.807   8.514   6.079  0.0210 -0.0872  0.1400
16499W        W31968   8.673   4.490  14.384 -0.1238 -0.2128 -0.1934
16500W        W31969  17.595   4.919  15.121  0.0765  0.3189 -0.2092
16501W        W31970   1.996   1.698  15.056  0.0229 -0.0524  0.0089
16502W        W31971   1.717   0.059  16.015  0.0984  0.0128 -0.2787
16503W        W31972   3.235  11.206   3.254  0.1802 -0.1456  0.2969
16504W        W31973   6.990   4.226   5.912 -0.1390  0.0224 -0.0477
16505W        W31974   9.554   5.407  11.383 -0.1806 -0.1103 -0.0425
16506W        W31975  13.807   8.581  15.322 -0.0288  0.1310 -0.0583
16507W        W31976   8.201  10.793   5.031 -0.1174  0.0742  0.1368
16508W        W31977   2.625   1.601   3.039  0.0985 -0.2940 -0.0712
16509W        W31978   8.106   3.136  14.683  0.0065 -0.1924  0.1869
16510W        W31979  11.422  12.650   1.497  0.1325  0.0861 -0.1021
16511W        W31980  17.383   0.844  12.726  0.1629  0.0691  0.3181
16512W        W31981   0.571   1.102   4.594  0.0652  0.1191 -0.0399
16513W        W31982   2.644   2.086  13.154 -0.1173  0.0449 -0.1015
16514W        W31983  11.169  17.218  15.210 -0.3064 -0.0964 -0.1571
16515W        W31984   3.133  17.937   0.223 -0.2011 -0.0170  0.0956
16516W        W31985  10.865  13.461   5.431 -0.2962  0.3068  0.1471
16517W        W31986   3.106   3.469   5.433 -0.0746  0.1754 -0.0420
16518W        W31987  13.169   6.146   3.364  0.0224 -0.1944  0.1639
16519W        W31988  11.548  15.116   4.922  0.0057 -0.2191 -0.0631
16520W        W31989   9.202   9.296  13.550 -0.1698 -0.1202 -0.1505
16521W        W31990   5.265   6.028  11.878 -0.4159  0.1257 -0.1268
16522W        W31991  15.122   3.482   2.201 -0.2120 -0.1730 -0.0395
16523W        W31992   1.100   9.314  11.632  0.1163  0.0465 -0.1768
16524W        W31993  12.350   6.232  12.143  0.1652  0.0256  0.1399
16525W        W31994   4.377   6.108   4.775 -0.2186 -0.0934 -0.2792
16526W        W31995   5.003  11.582   0.596  0.1959 -0.1217 -0.0274
16527W        W31996  13.157   6.161  15.870 -0.0010  0.1464  0.4071
16528W        W31997   9.768  14.846  11.852 -0.0175 -0.3650  0.0053
16529W        W31998   3.416  12.646   0.826  0.1622 -0.1757 -0.0973
16530W        W31999  10.374  14.076  15.742  0.1019  0.0856 -0.1302
16531W        W32000  10.038   8.613   0.090 -0.0949  0.2940  0.0223
16532W        W32001  13.212  17.121  15.227 -0.1119 -0.1597  0.0830
16533W        W32002   7.026   3.544  12.531  0.2113 -0.2635  0.2480
16534W        W32003  16.838  14.707   2.609  0.0084  0.1904 -0.0924
16535W        W32004  14.944  18.010   4.230  0.2176  0.1218  0.2073
16536W        W32005  14.678   0.812   2.992 -0.1912 -0.1840  0.2201
16537W        W32006   9.309  11.437   2.540  0.1654  0.1947  0.1455
16538W        W32007  12.558   9.455  13.033 -0.0119 -0.1818 -0.1305
16539W        W32008  15.366   7.205  15.078  0.0252  0.3938 -0.4612
16540W        W32009  16.168  12.117   0.640  0.0940 -0.0998 -0.0328
16541W        W32010   8.417   8.244   3.529  0.0503  0.1784 -0.0072
16542W        W32011  15.739  17.097   3.505  0.2416  0.2749  0.0776
16543W        W32012   3.473  18.168   3.259  0.0224  0.1427 -0.0937
16544W        W32013  16.330   6.278  12.627  0.0648 -0.1145 -0.3675
16545W        W32014   8.557  10.185  14.454  0.0154 -0.3251  0.2250
16546W        W32015   1.699  17.237  15.075 -0.0317 -0.1035 -0.3289
16547W        W32016  11.025  13.432  12.385 -0.1213  0.2250  0.0264
16548W        W32017  17.781  17.436   1.731  0.1007  0.1192 -0.0297
16549W        W32018   9.925  15.040  15.762 -0.1743  0.1759 -0.0645
16550W        W32019   5.371   8.878  13.629 -0.2916  0.2653 -0.2734
16551W        W32020   4.111   1.289  11.579 -0.0948  0.2237  0.2149
16552W        W32021   5.233  13.121  11.986 -0.1161 -0.0356 -0.0072
16553W        W32022   3.685  15.632  16.153 -0.2074 -0.1072  0.0854
16554W        W32023  13.491   2.766   1.293  0.1021 -0.1085 -0.1272
16555W        W32024  12.546  13.015  15.793  0.2271  0.1037 -0.1160
16556W        W32025   3.245   6.803  13.960  0.0548  0.0208 -0.1378
16557W        W32026  13.128  10.240  11.933 -0.4115  0.1278  0.1445
16558W        W32027  11.717   9.290   2.601  0.1364 -0.0573 -0.3494
16559W        W32028  14.999  11.569  14.353 -0.1883  0.2468 -0.0059
16560W        W32029  16.946  16.355  15.925  0.0332  0.1469 -0.1631
16561W        W32030   7.172   2.245   4.888  0.2027 -0.1303 -0.0592
16562W        W32031   5.818  15.542  12.711 -0.0893  0.0315 -0.0432
16563W        W32032  12.498  10.725  15.086  0.3958  0.1253  0.0693
16564W        W32033   2.690  15.500  12.734  0.0629  0.2480  0.0392
16565W        W32034  13.564  12.000  13.074  0.4427  0.2086 -0.1184
16566W        W32035   8.187  16.719   1.508 -0.0250  0.0367  0.0754
16567W        W32036  16.107  12.153   2.326  0.0075 -0.2516  0.1218
16568W        W32037  10.882   0.925  13.387 -0.1157  0.0951  0.4380
16569W        W32038   4.633   9.125  14.450 -0.1371  0.0364  0.1069
16570W        W32039  14.401   9.633  13.804 -0.1899  0.1349 -0.1105
16571W        W32040  12.008   1.394  14.838 -0.1784  0.1201 -0.1258
16572W        W32041   9.998  12.691  11.240 -0.0149 -0.0887 -0.2099
16573W        W32042  14.483  10.434   3.869  0.1314 -0.2026  0.0371
16574W        W32043  15.600   2.080  14.586  0.2786  0.0421  0.0416
16575W        W32044   6.403   8.972  11.283  0.0619 -0.1528 -0.3447
16576W        W32045  15.772  13.200  14.663 -0.0641  0.0124  0.1711
16577W        W32046   6.608  14.377  14.623 -0.2147 -0.0322 -0.1470
16578W        W32047   0.402   7.064   5.546 -0.0940 -0.2393 -0.0856
16579W        W32048   6.430  14.342  10.399 -0.1131  0.2454  0.1946
16580W        W32049   7.969  13.464   3.959 -0.1518  0.1489 -0.0160
16581W        W32050  16.696  17.386   5.705  0.4058  0.1332  0.1205
16582W        W32051  17.528   5.805  12.849  0.1897  0.2747 -0.0799
16583W        W32052  17.485  13.381   1.637  0.0731 -0.0791  0.0541
16584W        W32053  14.137   4.433   2.814  0.1627  0.1327 -0.0089
16585W        W32054   8.424   4.721  12.362 -0.1694  0.0673  0.0418
16586W        W32055  17.584   7.321   1.363 -0.2452  0.0440  0.2077
16587W        W32056  14.133  16.634  12.470  0.2449  0.4255 -0.1193
16588W        W32057  17.282  10.715  15.065  0.1020 -0.0342 -0.2589
16589W        W32058  10.328  10.447  11.245  0.1108  0.0658  0.0644
16590W        W32059   4.503   1.232   0.215  0.1032  0.3803  0.1138
16591W        W32060   5.747   5.133  13.353 -0.0065  0.0751 -0.0936
16592W        W32061   0.278  10.034   4.793  0.1815  0.0884 -0.1391
16593W        W32062   1.155   1.584  13.931  0.5551 -0.2256  0.4606
16594W        W32063   2.662   0.623  15.076  0.1110  0.0457 -0.0328
16595W        W32064  15.144   2.358  12.071 -0.1604  0.0117 -0.0329
16596W        W32065   4.931   6.223  15.846  0.1430  0.0090  0.0066
16597W        W32066  15.286  17.163   3.858 -0.1438 -0.2305 -0.3074
16598W        W32067   1.426   9.150   3.182 -0.1732 -0.0342  0.1060
16599W        W32068   4.945  16.999  11.000  0.1010  0.1755 -0.0270
16600W        W32069  11.601   0.789  12.485  0.1574  0.0217 -0.0079
16601W        W32070  12.758  12.154   4.345 -0.0554  0.5126  0.1352
16602W        W32071  18.214  12.202   4.487 -0.0630 -0.2124 -0.3916
16603W        W32072   0.498  17.641  15.312  0.0324 -0.1445  0.2629
16604W        W32073  17.935   9.513   2.663  0.3107 -0.1492  0.0866
16605W        W32074  10.018  15.960  16.120  0.0340 -0.4576  0.0582
16606W        W32075   0.560   9.034   2.605 -0.1630 -0.1683  0.0677
16607W        W32076   0.745  17.948  15.798 -0.0840 -0.0368 -0.1846
16608W        W32077  11.485  13.090  15.628  0.1166 -0.2908 -0.2172
16609W        W32078   5.052   6.829   3.027  0.1713  0.1417  0.0541
16610W        W32079   8.374   2.712   3.222  0.0874  0.3818 -0.1602
16611W        W32080   8.086  15.860   3.024 -0.0660 -0.1134  0.0246
16612W        W32081  13.262   7.306   1.707 -0.1329 -0.2185 -0.4716
16613W        W32082   8.048  13.305  13.191 -0.0910 -0.2394  0.4964
16614W        W32083   7.886   8.036   2.748  0.1869  0.3513  0.5080
16615W        W32084  11.977   1.904  15.003  0.3435 -0.0360 -0.0825
16616W        W32085  14.212   3.293  11.350 -0.0020  0.0386 -0.0465
16617W        W32086  14.034  14.692   2.683  0.1964 -0.1773  0.0864
16618W        W32087   9.411  12.804  12.759 -0.1376 -0.3214  0.0903
16619W        W32088  15.431   9.392  12.838  0.2216  0.1020 -0.1215
16620W        W32089   6.397  17.660  15.903  0.0940  0.1069 -0.1465
16621W        W32090  18.152   6.190  11.225 -0.0626  0.0266  0.1303
16622W        W32091   5.248   5.471  13.905  0.0067 -0.0717  0.1406
16623W        W32092   6.075  12.107   4.702 -0.2216  0.2208  0.0220
16624W        W32093   6.089   0.951   2.180 -0.1037 -0.1396 -0.0064
16625W        W32094   6.067   4.058   2.345  0.2381 -0.1440 -0.0080
16626W        W32095   5.840   3.777  14.095 -0.0013 -0.1492  0.0156
16627W        W32096   0.292   6.956  14.218  0.2280  0.0051  0.1385
16628W        W32097   8.369   7.855   2.793  0.2579  0.1447 -0.1105
16629W        W32098  14.373  11.961   5.397  0.4642  0.2766 -0.1656
16630W        W32099  10.923  10.666   2.479 -0.0740  0.0057 -0.0028
16631W        W32100  12.357  11.832  12.303  0.3886 -0.0371  0.1000
16632W        W32101   1.788   3.117   4.880 -0.1250 -0.2498 -0.2654
16633W        W32102  12.800   3.818   0.242  0.2179  0.0862  0.0745
16634W        W32103  11.717   3.773  11.637  0.1950  0.2607 -0.0054
16635W        W32104  14.454   8.357   4.888 -0.1824  0.0821 -0.4670
16636W        W32105  10.027   9.686   5.691  0.1405 -0.3789 -0.1183
16637W        W32106   2.235   4.135  11.728 -0.0277  0.2043 -0.1352
16638W        W32107   0.830  14.697   0.154 -0.3130 -0.2954 -0.1043
16639W        W32108   5.921  14.344   1.343 -0.0936  0.1868 -0.2208
16640W        W32109   2.043   1.043   5.526  0.1028  0.3825 -0.1280
16641W        W32110  14.638   8.337   1.661 -0.2254  0.3563 -0.3798
16642W        W32111  13.131  14.855  15.360  0.1808  0.0266 -0.0898
16643W        W32112   6.725  14.023   0.604 -0.2289  0.1068  0.0133
16644W        W32113   3.852   6.412   0.476 -0.1339  0.0639 -0.0573
16645W        W32114  11.924  12.809  12.158  0.0201 -0.0816  0.1502
16646W        W32115   8.624  11.017   5.337 -0.1856  0.2754  0.2160
16647W        W32116   8.352   1.514  14.968 -0.2493 -0.1803  0.0479
16648W        W32117   1.930   2.658  13.221 -0.3855 -0.1958  0.1890
16649W        W32118  17.207   5.193  14.617  0.1203 -0.4718  0.1500
16650W        W32119  14.610   3.064  12.067 -0.2500 -0.1864 -0.0808
16651W        W32120  15.595   0.695   4.563 -0.0500  0.0790 -0.3454
16652W        W32121  13.472   6.848  14.959  0.1400 -0.0264  0.2114
16653W        W32122   0.851   4.831   1.823 -0.1454  0.3981  0.0364
16654W        W32123  17.626  15.418   1.639 -0.0805  0.3426  0.0139
16655W        W32124   2.877   9.355  14.323 -0.2295  0.1988 -0.2202
16656W        W32125  11.405   1.589   0.129 -0.0398  0.1436  0.0681
16657W        W32126   2.063   9.067  11.829  0.4885 -0.1086 -0.2142
16658W        W32127  10.708  17.376   3.394  0.1095 -0.2524 -0.1213
16659W        W32128  16.797  11.217  12.348 -0.0181 -0.1012 -0.1148
16660W        W32129   7.851  17.499  13.775 -0.1241  0.1316 -0.2944
16661W        W32130  14.890   2.105   0.798 -0.0624  0.3439  0.3531
16662W        W32131   6.524   2.280  11.637 -0.1103 -0.2289 -0.4127
16663W        W32132   8.318  13.476   4.992  0.1799 -0.0780  0.1265
16664W        W32133   6.996   5.216   3.696  0.0670 -0.0775  0.1687
16665W        W32134   6.819   1.314  14.246 -0.0858 -0.1200  0.1841
16666W        W32135   8.096  18.227   1.926 -0.2156  0.0059 -0.0822
16667W        W32136   6.696  17.876   3.213 -0.0911 -0.0069  0.1049
16668W        W32137  11.645   5.874  12.769  0.0221 -0.2023  0.2584
16669W        W32138  11.024  14.213  13.170 -0.1065 -0.1701  0.1252
16670W        W32139   0.735  11.800   4.313  0.1984 -0.4246 -0.1052
16671W        W32140  14.370  12.288  14.592  0.3487 -0.0501  0.3293
16672W        W32141   9.373  11.507  12.057  0.0258 -0.1864  0.3673
16673W        W32142  14.250   0.760   2.684  0.1654  0.1314 -0.0225
16674W        W32143   2.627  11.584   2.540  0.0082  0.1714 -0.3031
16675W        W32144  17.855  14.659   2.047  0.1020 -0.2360 -0.0338
16676W        W32145  10.416  12.763   5.946 -0.0868  0.0190  0.2157
16677W        W32146  15.402   5.804   4.638  0.0887  0.1142 -0.2055
16678W        W32147  14.399   6.828   2.240  0.0306  0.1765  0.2574
16679W        W32148   7.149  10.981   4.421 -0.0641 -0.0642  0.0152
16680W        W32149   3.972  16.278   5.942 -0.2538  0.1192  0.1390
16681W        W32150  18.107   3.061   3.572 -0.1527 -0.1015  0.1766
16682W        W32151   5.823   1.597   2.712 -0.0952  0.0856 -0.2420
16683W        W32152  17.887   3.804   4.587  0.0003 -0.2678 -0.1430
16684W        W32153  12.020   0.596  11.718 -0.0716  0.1974  0.3277
16685W        W32154   0.536  15.693  15.217  0.2434 -0.1009 -0.0003
16686W        W32155  14.555   9.450   1.167 -0.2436 -0.0052 -0.1272
16687W        W32156   2.693  17.218  12.597 -0.0248 -0.2341  0.0405
16688W        W32157   2.132   1.840  15.562 -0.0099  0.1426  0.0328
16689W        W32158   1.602  18.219  14.493 -0.1836  0.3105  0.3319
16690W        W32159   8.439   1.109  11.264 -0.0013 -0.1043  0.1368
16691W        W32160  17.432   9.218  12.748  0.1492 -0.0064  0.1963
16692W        W32161   9.204   6.609  11.636  0.0157  0.1858 -0.0544
16693W        W32162  13.894  11.783   2.293 -0.1843 -0.1710  0.0826
16694W        W32163  12.335   5.840   1.264  0.2319 -0.2105  0.1857
16695W        W32164   9.402  13.849  11.934  0.2149 -0.1466 -0.2961
16696W        W32165   4.624   1.679   0.007  0.1326 -0.2108 -0.4057
16697W        W32166  12.842  10.256   0.624  0.1337 -0.1278  0.1045
16698W        W32167   7.550  12.986  14.484  0.3753 -0.2833 -0.0113
16699W        W32168   4.568   6.261   3.872  0.1132 -0.0222  0.2465
16700W        W32169  13.705  12.146   1.967 -0.1194 -0.1123  0.0629
16701W        W32170  12.656  13.865  13.591  0.3386 -0.1527  0.0278
16702W        W32171   8.604  12.756  11.806 -0.2160 -0.1883  0.0005
16703W        W32172   8.938   6.501   3.566 -0.1266  0.1955 -0.2457
16704W        W32173   8.600   3.124   1.415  0.5227 -0.0487  0.2059
16705W        W32174  12.075  15.346   2.799  0.3831  0.1579  0.0908
16706W        W32175  14.906   9.130   3.671  0.2464  0.4766  0.0272
16707W        W32176  12.648  17.003   3.937  0.2744  0.2389 -0.0299
16708W        W32177  11.007   1.944  11.433 -0.1563  0.2239 -0.1091
16709W        W32178  12.183  11.266   2.299 -0.1589  0.0548 -0.2447
16710W        W32179  11.349   4.531  13.030 -0.2755 -0.2264  0.2278
16711W        W32180   6.562  14.037  13.437  0.2576  0.0570  0.1237
16712W        W32181   0.131  14.939   4.370 -0.2508  0.0151 -0.0052
16713W        W32182   4.719  14.877   5.490  0.1200 -0.0063  0.0087
16714W        W32183   2.757  13.762  12.394 -0.0549 -0.3010 -0.1570
16715W        W32184   3.050  16.449  14.506  0.3950 -0.0496  0.2821
16716W        W32185  18.209   6.285   3.837 -0.0392  0.1237 -0.1798
16717W        W32186   4.005  15.234  15.799  0.1614 -0.0211 -0.3050
16718W        W32187   7.227   5.871   1.803  0.0249 -0.0022  0.0985
16719W        W32188  17.554  12.978  14.685  0.0224 -0.0350 -0.1688
16720W        W32189  12.539  16.868   4.814 -0.1366  0.1682 -0.2480
16721W        W32190   1.192   0.414   3.269 -0.1772  0.0369  0.1363
16722W        W32191   4.650  12.699   3.958 -0.0460  0.0774 -0.0191
16723W        W32192   7.149  10.695   3.413  0.2776 -0.1037 -0.3501
16724W        W32193  14.868  17.260   3.095 -0.1612 -0.0227  0.0068
16725W        W32194   6.585  15.317  12.611 -0.2519  0.0670 -0.1290
16726W        W32195  12.737  17.727   3.341  0.1088 -0.0477  0.0982
16727W        W32196  12.176   5.982   3.953  0.1492 -0.0835 -0.0759
16728W        W32197  14.771  10.010   3.402  0.1170  0.1143  0.1713
16729W        W32198  15.376   7.165   2.167  0.0347  0.0637  0.4990
16730W        W32199   8.308  11.337   1.903 -0.0775 -0.0888 -0.6281
16731W        W32200  11.035   9.654   2.255  0.0799  0.0385  0.0820
16732W        W32201   2.129   0.388   3.919 -0.0573  0.3088 -0.0900
16733W        W32202   5.603   7.242  13.633 -0.1247 -0.3378 -0.0160
16734W        W32203  15.475   8.602   2.056 -0.0410 -0.1636  0.0377
16735W        W32204   1.721   8.177  12.602  0.0402 -0.1582 -0.1797
16736W        W32205   3.886   0.757  12.553 -0.1411  0.2357 -0.0953
16737W        W32206   6.484   2.446   4.372  0.0570  0.0071  0.2037
16738W        W32207   7.801  12.191   5.319  0.3996 -0.0508  0.0700
16739W        W32208  11.659  16.711   2.693 -0.1395 -0.1838 -0.0561
16740W        W32209  16.765  13.782   2.982 -0.1921 -0.1199  0.0293
16741W        W32210  10.167  16.780  15.447 -0.2670  0.0522 -0.0424
16742W        W32211   7.704  16.345   0.758 -0.1616 -0.0115 -0.0387
16743W        W32212  10.268  14.482  16.019  0.0250  0.0555 -0.2849
16744W        W32213   8.346   1.910  11.546 -0.1303 -0.0851 -0.0927
16745W        W32214  11.014   6.852  12.864 -0.0201  0.2110 -0.1987
16746W        W32215  16.093  10.231  11.600 -0.3756  0.0169 -0.1844
16747W        W32216  10.629  16.948  13.118 -0.2060  0.1885  0.1952
16748W        W32217   5.493   1.608  11.370  0.1292  0.2584 -0.2483
16749W        W32218  11.786   9.927   4.627 -0.0777 -0.1535 -0.0678
16750W        W32219   2.464  16.306   2.761  0.2650  0.2332  0.0076
16751W        W32220   0.347   7.217   6.035  0.0897 -0.1585 -0.0938
16752W        W32221  11.351  11.169   3.992  0.3548 -0.0397  0.1484
16753W        W32222   5.404   7.228  14.370 -0.0065 -0.0308 -0.0843
16754W        W32223  17.880   0.436   2.197 -0.0779 -0.1802  0.0174
16755W        W32224  13.180   9.347  11.349 -0.2803 -0.1360  0.1316
16756W        W32225   5.713   7.931   2.033  0.0737  0.1354 -0.1520
16757W        W32226   7.280   1.166   5.465  0.0440  0.3433 -0.2269
16758W        W32227   3.652   4.690  16.168 -0.2338  0.0963  0.0064
16759W        W32228  13.132  10.988  16.068 -0.1188  0.0999 -0.1442
16760W        W32229  18.234   5.763   3.671 -0.1648  0.0048  0.0401
16761W        W32230  17.447  11.250  11.710  0.0815  0.0033 -0.0161
16762W        W32231   3.635   2.171  14.566  0.1844 -0.0221 -0.3650
16763W        W32232   1.469  10.263   0.046 -0.3235  0.0326  0.1422
16764W        W32233   5.165  16.121   1.474  0.3201 -0.2486  0.2347
16765W        W32234  14.744   8.017   2.104 -0.1673  0.0121  0.2139
16766W        W32235  13.469   1.884  12.397 -0.2230  0.6493 -0.0466
16767W        W32236   0.404   6.176   0.663 -0.1318  0.1672 -0.2968
16768W        W32237   0.993   8.376  13.056  0.1317 -0.1130 -0.0256
16769W        W32238  10.202  13.623   9.930 -0.1902 -0.1031 -0.0000
16770W        W32239  16.810  10.654  15.260  0.0112  0.0305 -0.0692
16771W        W32240  11.739   1.581  14.039  0.0645 -0.0528  0.0026
16772W        W32241  11.563   0.283   4.798  0.1763 -0.0796 -0.0823
16773W        W32242   3.954  16.764   4.465 -0.0470 -0.1465 -0.0034
16774W        W32243   9.269   0.676   0.649  0.2139 -0.3764 -0.1592
16775W        W32244   1.260   6.035  13.110 -0.0651 -0.0359 -0.0197
16776W        W32245  14.798   3.074  12.608  0.0277 -0.1612  0.1207
16777W        W32246  10.238   2.373  15.067 -0.0326  0.0150 -0.2010
16778W        W32247   1.724   3.022   3.065  0.0988 -0.0891  0.2844
16779W        W32248   5.364   0.383   3.490 -0.4503  0.2848  0.1894
16780W        W32249   0.796   4.043   2.152 -0.0711 -0.0014 -0.0898
16781W        W32250   3.522   3.031   4.648  0.2382 -0.3597 -0.1653
16782W        W32251   2.435  15.165   3.756 -0.2972  0.2157 -0.2495
16783W        W32252  11.629   0.227   5.308  0.3322  0.0395  0.0743
16784W        W32253  13.020   9.847   5.899  0.3993  0.1252  0.1636
16785W        W32254  12.503   1.766  13.752  0.4488  0.1120 -0.0057
16786W        W32255  11.644   0.670   5.113  0.0880 -0.1806 -0.0002
16787W        W32256   9.249   0.997   0.254  0.0906  0.0125  0.0781
16788W        W32257  11.999  11.755   3.925 -0.3073  0.0470 -0.3212
16789W        W32258  16.275   6.915  14.745  0.0133 -0.3691  0.0475
16790W        W32259  13.520  16.467   5.115 -0.1172  0.1780 -0.1069
16791W        W32260  16.339   1.230   5.199  0.3873  0.1698 -0.2827
16792W        W32261   1.240  12.241   0.085  0.0529  0.0739 -0.0629
16793W        W32262  15.223   3.879   2.587 -0.1364  0.1866  0.2179
16794W        W32263  13.454   7.799   1.761  0.1427 -0.1367  0.1450
16795W        W32264   5.410   1.637   2.941 -0.2884  0.2031  0.0621
16796W        W32265  15.816  11.010   0.033  0.0988  0.1935 -0.0682
16797W        W32266   3.727  17.867   0.340 -0.3003 -0.0428  0.1588
16798W        W32267   5.814   0.100  11.288  0.2027 -0.0610  0.0421
16799W        W32268  14.071  12.300  12.881 -0.2146  0.1127  0.2855
16800W        W32269   7.261   8.547  14.660  0.0728 -0.0948  0.2729
16801W        W32270   5.908  15.572  11.404  0.1117  0.1447 -0.1510
16802W        W32271   9.913  14.784  12.760  0.3220 -0.3032  0.1091
16803W        W32272  10.310  17.697  14.079 -0.1582 -0.0241 -0.1923
16804W        W32273  11.686  16.744   1.261  0.0632  0.0281 -0.1243
16805W        W32274  16.964  16.001   5.098  0.1677 -0.2506  0.2857
16806W        W32275   0.076   7.456  15.938  0.2491 -0.0346  0.1479
16807W        W32276   7.369  17.007   1.444  0.1260 -0.1198  0.0555
16808W        W32277  13.224   5.029   3.003  0.2547  0.0972  0.2171
16809W        W32278   7.583   2.022   1.557 -0.2738 -0.0326 -0.1045
16810W        W32279   1.356   9.683   4.391  0.4774  0.1648  0.0433
16811W        W32280   7.799  15.633  12.505 -0.1246 -0.2257 -0.0311
16812W        W32281  14.411   3.769  13.861 -0.0334 -0.0711 -0.2807
16813W        W32282   2.137  11.230  13.997  0.0581  0.1434 -0.0322
16814W        W32283   4.702   5.571  14.468  0.1241 -0.2245  0.1069
16815W        W32284   7.095   0.027  11.953 -0.0361  0.2519  0.2200
16816W        W32285  13.279  12.382   0.328 -0.1047  0.3566 -0.1240
16817W        W32286   6.636   9.055  13.811  0.1651 -0.2050 -0.3160
16818W        W32287  11.990  10.301   1.685 -0.2833  0.1895 -0.1384
16819W        W32288  15.278   0.437   4.231 -0.1719  0.0819  0.1996
16820W        W32289  16.850   0.006   2.780  0.0687 -0.0926  0.0830
16821W        W32290   2.340  14.131   2.019  0.1118  0.1221 -0.2618
16822W        W32291   7.962  15.321  15.127  0.2559 -0.1873  0.3080
16823W        W32292   1.682   9.928   3.693  0.1046 -0.1119 -0.2118
16824W        W32293   5.415   1.206  14.411  0.0195 -0.0645 -0.2471
16825W        W32294   7.032   1.035  10.056  0.2853  0.0068  0.0999
16826W        W32295   6.076  15.243   2.539  0.0298  0.4112  0.0807
16827W        W32296   0.711  12.497  12.019 -0.0913 -0.0497 -0.4516
16828W        W32297  15.244   8.455   4.413  0.1431  0.0842 -0.0722
16829W        W32298  15.858   8.112  14.000 -0.0472  0.0456 -0.2544
16830W        W32299   3.539   6.410  15.799  0.0017 -0.0919  0.1613
16831W        W32300   7.455  12.865   2.553  0.2457  0.1316 -0.2137
16832W        W32301   1.276  18.261  13.171  0.1115  0.1753 -0.1755
16833W        W32302  10.442   5.538  12.510 -0.2400 -0.2077 -0.1093
16834W        W32303  16.005  10.489   4.393 -0.0628 -0.0783  0.0257
16835W        W32304  14.831  14.094   5.495  0.1316 -0.2158 -0.0745
16836W        W32305  16.933   1.558  15.776  0.1493  0.1844  0.0062
16837W        W32306   7.013  14.825  11.948 -0.1197 -0.0880  0.1217
16838W        W32307  12.341  17.892   1.830  0.0511 -0.3391 -0.3167
16839W        W32308  17.922   9.447  11.802  0.0877 -0.0746  0.1696
16840W        W32309   2.452  11.804   3.805  0.1493  0.4332  0.1366
16841W        W32310   8.314  14.587   2.509 -0.0395  0.4193 -0.0825
16842W        W32311  10.952   3.797   4.332  0.1582  0.1203  0.3449
16843W        W32312  17.241  17.793  11.078  0.1284 -0.1180  0.0667
16844W        W32313  14.174   7.069   4.793  0.1413  0.1799 -0.3177
16845W        W32314   3.030   7.574   0.036  0.0750  0.0543 -0.1803
16846W        W32315   2.613  18.282  10.814  0.0544  0.0147 -0.1001
16847W        W32316  17.419  14.884  11.978 -0.1301 -0.0959  0.0923
16848W        W32317   3.659   9.601   3.376  0.0626 -0.2296  0.0803
16849W        W32318   9.651   0.372   1.356  0.2622  0.0392 -0.0182
16850W        W32319  17.734   9.851   0.089 -0.1190  0.2273 -0.2711
16851W        W32320   2.406  13.823  11.626 -0.3949 -0.2058 -0.0119
16852W        W32321  14.572   7.188   2.595 -0.1047  0.1838  0.2069
16853W        W32322   1.465  17.661   0.588  0.0663  0.2549 -0.0688
16854W        W32323   9.393  17.285   3.728  0.0199 -0.0596 -0.0235
16855W        W32324  14.718  15.820   4.476 -0.0255  0.3132 -0.0933
16856W        W32325  16.532  17.416   3.942  0.2342  0.1311 -0.2544
16857W        W32326  16.437  10.017  15.720 -0.0517 -0.1399  0.1089
16858W        W32327  11.463   0.059   2.750  0.0821 -0.0458 -0.1311
16859W        W32328  17.025  16.853  15.165 -0.0459 -0.1942 -0.0995
16860W        W32329  17.604  17.609  11.356 -0.2162  0.4411  0.0102
16861W        W32330  14.853  16.121   5.865  0.1087 -0.0379  0.2641
16862W        W32331   7.662  10.279  14.285 -0.0964 -0.2376 -0.2985
16863W        W32332   7.567  14.399   4.034 -0.0399 -0.0907  0.1442
16864W        W32333   6.840   6.690   2.602 -0.0048  0.3501  0.1032
16865W        W32334  15.215   1.078   1.642  0.1802  0.2867 -0.0511
16866W        W32335   4.154  10.124   4.259  0.0033 -0.1401 -0.0942
16867W        W32336  15.730   1.603   4.266  0.1309  0.1857 -0.1195
16868W        W32337  17.070  13.185   3.556  0.0594  0.2430  0.1032
16869W        W32338   3.032   8.603  13.316  0.0045  0.0782  0.0505
16870W        W32339   0.711  16.079   3.138 -0.2693 -0.0929 -0.0954
16871W        W32340   5.572   4.998  13.831 -0.0809  0.1373  0.0647
16872W        W32341  16.847  14.179  13.711  0.1404  0.1492 -0.0220
16873W        W32342  17.592  13.950  11.648 -0.0680 -0.1394  0.1381
16874W        W32343   9.381  11.226  11.155  0.0834 -0.0721 -0.0880
16875W        W32344  10.532   2.980  15.882 -0.2415 -0.0260 -0.1930
16876W        W32345  14.069   8.486  13.330 -0.0545 -0.3394 -0.1590
16877W        W32346   4.429   5.280  12.594  0.1696  0.0616  0.1342
16878W        W32347   0.837  11.638  14.399  0.3833 -0.1722  0.1706
16879W        W32348   8.458  12.584  10.323 -0.1322  0.1138 -0.1715
16880W        W32349  12.254  17.636  15.370  0.0908 -0.0214  0.0509
16881W        W32350   6.862   3.132  14.021  0.2058 -0.2717 -0.1860
16882W        W32351   3.737  15.281  13.804  0.1253  0.1985  0.2296
16883W        W32352   8.249   0.111   4.539  0.1597 -0.1670 -0.0505
16884W        W32353   7.222   0.470  13.750  0.0421  0.1625  0.1253
16885W        W32354   4.552   2.961  13.030 -0.0546  0.1669  0.1200
16886W        W32355   5.723   1.050   0.866 -0.0214 -0.1929 -0.0213
16887W        W32356   4.500   7.359  15.743  0.0344 -0.2776 -0.3765
16888W        W32357  13.138   1.709  12.837 -0.1249  0.0232  0.1258
16889W        W32358  14.240   9.664   3.985 -0.1455 -0.0454  0.0762
16890W        W32359   0.197  16.041  11.618 -0.0463  0.1326 -0.2977
16891W        W32360  10.177   0.245  12.682 -0.0529 -0.2866  0.1311
16892W        W32361  11.735   7.797  13.956 -0.1807  0.0656 -0.1318
16893W        W32362  17.255  11.566   0.039  0.0364 -0.0456  0.1013
16894W        W32363   6.217   9.289  13.845  0.2021 -0.1308  0.0395
16895W        W32364  14.998   2.522   3.618 -0.3778 -0.0501 -0.2426
16896W        W32365  10.944  12.695   3.754 -0.1652 -0.0200 -0.3099
16897W        W32366   1.693   9.255   5.960 -0.0338  0.2897 -0.0334
16898W        W32367   7.970  14.180   4.235 -0.0062 -0.1887 -0.1814
16899W        W32368  15.684  12.722   1.835 -0.1891 -0.1417 -0.1404
16900W        W32369   3.733  15.942   0.365 -0.3234 -0.2367  0.3887
16901W        W32370   1.313   2.287   1.180  0.2312  0.2245 -0.0547
16902W        W32371   7.259  17.513  10.800 -0.0652 -0.1528 -0.0892
16903W        W32372  15.036   2.284   4.398  0.1796  0.1197 -0.2432
16904W        W32373   4.385   9.983  10.689 -0.0759 -0.1606  0.2755
16905W        W32374  16.335   8.195  12.881  0.0591 -0.1480  0.3009
16906W        W32375  12.506  15.216   3.637 -0.1296 -0.1834 -0.1836
16907W        W32376  16.867  15.958  11.001 -0.2244  0.0109 -0.0994
16908W        W32377  10.694   9.768   1.075 -0.2366 -0.0270 -0.1736
16909W        W32378  17.144   2.128   4.587  0.2134  0.3272 -0.2383
16910W        W32379  14.153  14.181   1.203  0.2666  0.2959 -0.3714
16911W        W32380   3.914  12.907   4.697  0.1400 -0.2003  0.1709
16912W        W32381  13.502   3.618  14.229 -0.0566  0.2777  0.1452
16913W        W32382   2.293  10.316   4.969 -0.1792  0.2667  0.1958
16914W        W32383   3.727   6.246  11.032  0.0379  0.1603  0.0841
16915W        W32384   6.322   4.844   5.573  0.4469 -0.0467 -0.0388
16916W        W32385  16.732  11.422   5.277 -0.0480  0.0812  0.0510
16917W        W32386   6.162   9.531   0.955  0.0990 -0.0276 -0.3036
16918W        W32387  16.829  13.126  12.134  0.0339  0.2626 -0.1028
16919W        W32388  12.823   8.081  13.832  0.0585  0.4408 -0.0364
16920W        W32389  15.770   8.946  15.976 -0.2528  0.2316 -0.0710
16921W        W32390   9.713  10.674   3.533 -0.0185 -0.0446  0.0604
16922W        W32391  15.381  17.320  15.789 -0.1604  0.0920 -0.1551
16923W        W32392   8.970  12.753   4.784  0.0994  0.1207 -0.0451
16924W        W32393   4.131   2.016  12.398 -0.1049 -0.3839 -0.1632
16925W        W32394  12.284  17.782   3.667  0.0485  0.0093  0.2335
16926W        W32395  12.471  14.896   4.593  0.2835  0.3283 -0.1850
16927W        W32396   4.310   1.716   5.713 -0.2987  0.0814 -0.0689
16928W        W32397   7.617   6.591   0.466 -0.3339  0.1575 -0.4051
16929W        W32398   9.081  15.370  15.521 -0.2025 -0.2079 -0.2487
16930W        W32399   1.321   0.430  14.899  0.2859  0.1423  0.0240
16931W        W32400   3.655  15.521   2.594  0.2254 -0.3378 -0.0919
16932W        W32401   2.324   3.761  11.340 -0.0669  0.1394 -0.0984
16933W        W32402   5.128  16.662  13.367  0.2117  0.1159  0.0809
16934W        W32403   5.973  17.389   4.995  0.3240 -0.0330 -0.0936
16935W        W32404  17.211   7.811  11.708 -0.1079  0.0087 -0.2257
16936W        W32405  16.323   8.083   1.766 -0.0254  0.0396  0.0045
16937W        W32406  18.120   8.976   1.852  0.2576  0.0177  0.1878
16938W        W32407  10.470   2.279   4.899  0.0603  0.2888  0.3424
16939W        W32408   4.404  15.803  14.849  0.0711 -0.1007  0.6043
16940W        W32409   5.597   9.306   5.518  0.0292 -0.0745  0.0543
16941W        W32410  16.305  14.439   2.666 -0.1344 -0.0728  0.2347
16942W        W32411  15.954   4.678  14.347 -0.1151 -0.0946  0.0120
16943W        W32412  12.584  16.427  13.170  0.0466 -0.2032 -0.2481
16944W        W32413  13.002   3.018   1.221  0.1162  0.1467 -0.1574
16945W        W32414   0.718  16.726   5.251 -0.2057  0.4598 -0.0267
16946W        W32415   7.441  14.093  11.056 -0.2764 -0.1689 -0.0823
16947W        W32416   5.146  11.549  14.756 -0.1912 -0.1042 -0.2259
16948W        W32417   4.604  17.472  14.545 -0.2110  0.1729  0.0266
16949W        W32418   2.023   6.962  11.901  0.4429 -0.0979  0.0725
16950W        W32419   9.842   7.287  12.635  0.0317  0.0059 -0.1247
16951W        W32420   1.219  16.447   5.364  0.3813  0.0154 -0.0799
16952W        W32421  13.459   7.871   5.997 -0.0259  0.0138 -0.0408
16953W        W32422   4.932  17.157   5.121  0.1523 -0.0825  0.0930
16954W        W32423  14.225  10.082   6.034 -0.0594  0.1126  0.0754
16955W        W32424   1.216   6.669   0.999 -0.0910  0.2186  0.1767
16956W        W32425   0.160   1.136  12.455 -0.1587  0.1875  0.0705
16957W        W32426   2.984   2.684   2.851 -0.0018  0.3325  0.0656
16958W        W32427   7.943   1.298  11.326  0.0843 -0.1290  0.1293
16959W        W32428   7.547   1.711  15.669  0.2084 -0.0861 -0.0969
16960W        W32429   0.623  16.225  15.210  0.1527  0.1676 -0.1571
16961W        W32430  17.686  15.398  13.143  0.6757  0.2075 -0.0677
16962W        W32431   8.464  14.732  10.902  0.0369 -0.1236 -0.1594
16963W        W32432  16.232   4.998  14.065  0.3040 -0.0687  0.4205
16964W        W32433   1.968   1.961   2.139  0.0023 -0.1650 -0.1285
16965W        W32434   2.962  15.499  13.226 -0.1675  0.0092  0.3383
16966W        W32435   0.561  15.859   0.370  0.0630 -0.2443  0.0642
16967W        W32436  17.607   8.348   3.478  0.1216 -0.1234  0.0167
16968W        W32437  12.115   2.474  14.959  0.2625  0.2723  0.2519
16969W        W32438  13.384   4.828  14.363  0.2294  0.0867  0.0399
16970W        W32439   1.930   3.572   0.444  0.1397 -0.0861 -0.1613
16971W        W32440  12.987  15.033  13.565  0.4238  0.1188 -0.1850
16972W        W32441  10.770   0.062   4.177  0.1046  0.0532 -0.0472
16973W        W32442   5.799   1.314  11.808 -0.0226  0.3210 -0.0038
16974W        W32443   3.763  15.039   2.396 -0.0129 -0.0320 -0.0365
16975W        W32444  17.410   1.680  11.139  0.1896  0.1432 -0.0262
16976W        W32445   9.554   6.068   3.793  0.0702  0.3492 -0.0444
16977W        W32446   2.443   0.987  12.431  0.2513  0.1210  0.2484
16978W        W32447   2.647   4.302  11.476  0.2385  0.0472  0.0756
16979W        W32448   3.979   1.753   2.704  0.2226 -0.2316  0.0260
16980W        W32449   1.662  14.013   4.353  0.2863  0.0714 -0.0533
16981W        W32450  12.121  15.776   2.471  0.3247 -0.2670 -0.1306
16982W        W32451   2.614   4.594   0.052  0.2461 -0.1132 -0.0349
16983W        W32452   1.373  15.438   4.100 -0.1657 -0.1470 -0.1202
16984W        W32453  17.375   5.772  13.742  0.3750 -0.1009  0.1562
16985W        W32454  16.560   8.877   3.382  0.1512 -0.2039  0.0909
16986W        W32455   3.643   2.968  11.551  0.1714  0.1900 -0.4065
16987W        W32456  12.076   7.462  16.135 -0.0803 -0.0616 -0.0240
16988W        W32457  11.233   4.641   4.891  0.1063  0.1685  0.2960
16989W        W32458   0.652  16.538   2.910  0.0637  0.0125 -0.3361
16990W        W32459   6.476   5.397  13.225 -0.3491  0.2670  0.2160
16991W        W32460   1.685  14.097   1.640 -0.1188 -0.1677 -0.0914
16992W        W32461   0.747  18.063  14.645  0.0903  0.0332  0.0016
16993W        W32462  11.137   5.212  12.639  0.1632  0.0475 -0.0727
16994W        W32463   1.820   1.968  13.900  0.1845 -0.1925 -0.1880
16995W        W32464  15.162  10.539  13.861  0.0426  0.1196  0.3466
16996W        W32465  14.565  13.865   1.900 -0.0590  0.4005  0.1409
16997W        W32466  15.355   8.862   0.080 -0.0062  0.0410  0.1746
16998W        W32467   8.690  17.406   1.009 -0.1842  0.4289  0.2833
16999W        W32468  16.947  13.876  12.393 -0.2604  0.3178  0.0853
17000W        W32469   2.778   3.292  13.036 -0.1706 -0.1536 -0.0799
17001W        W32470  17.027   5.610  14.435 -0.0019 -0.0981 -0.2219
17002W        W32471   1.207   3.167   3.220 -0.0199  0.0612 -0.0445
17003W        W32472   3.413   8.755  14.967  0.2915 -0.0333 -0.1612
17004W        W32473   4.182   7.126   1.909  0.1355 -0.3551 -0.1455
17005W        W32474   6.992  17.605   0.881  0.1297 -0.0309  0.0183
17006W        W32475   5.318   6.275   0.716 -0.0905  0.0538  0.0183
17007W        W32476  14.632   6.876   1.746  0.4844  0.0421 -0.1478
17008W        W32477   5.314  17.829  14.449 -0.1025  0.0575 -0.3920
17009W        W32478  14.371  15.346  15.379  0.0482 -0.0776  0.3360
17010W        W32479  12.770  16.733   0.908  0.0317 -0.2323  0.0836
17011W        W32480   3.990   7.104  12.306  0.2672  0.0134  0.0734
17012W        W32481  14.157   3.906  14.929 -0.0261  0.0738 -0.4427
17013W        W32482  14.657   0.498   0.558  0.1502 -0.0593 -0.2778
17014W        W32483   6.054   6.370  15.142  0.0088  0.0049  0.1117
17015W        W32484   3.440   0.832  12.898 -0.1922  0.1079 -0.1262
17016W        W32485   5.861   1.277  14.395 -0.1747 -0.4112 -0.0904
17017W        W32486   3.988  15.284  12.312  0.2293 -0.0687  0.3575
17018W        W32487  14.442   5.099   5.894 -0.2173  0.2366 -0.0326
17019W        W32488   2.112   7.363  14.391 -0.3047  0.0618 -0.2213
17020W        W32489   7.235   6.908  15.861 -0.0550  0.2044 -0.1118
17021W        W32490   6.858  15.008   9.677  0.1215 -0.0891  0.3422
17022W        W32491   6.342  13.419  10.495 -0.3307  0.0631 -0.1644
17023W        W32492  16.427  15.276  15.232 -0.3005 -0.1355  0.1890
17024W        W32493   2.286   1.973  14.095  0.3064 -0.1001  0.1749
17025W        W32494   8.006   2.709  12.001  0.1355 -0.3320  0.0393
17026W        W32495  14.612  13.758   4.270  0.1592  0.1355  0.1401
17027W        W32496   6.907  15.429  10.612 -0.0022 -0.1165  0.1340
17028W        W32497   1.131   5.447  15.305 -0.1114  0.0140 -0.1842
17029W        W32498   9.199   3.925  12.974  0.2546  0.1380  0.0572
17030W        W32499  16.907  10.572   1.220  0.2198  0.0056 -0.0712
17031W        W32500  11.611  10.176  13.377  0.1904 -0.4697  0.3429
17032W        W32501   3.345   7.262  15.472  0.0958  0.0051 -0.2833
17033W        W32502  13.922  10.923  15.304  0.0275  0.0632 -0.1539
17034W        W32503  13.778  16.094   2.771  0.0398 -0.1729 -0.4913
17035W        W32504   4.394  10.645  15.367 -0.3562  0.0301  0.1305
17036W        W32505   8.188  14.915   2.946 -0.1639  0.4016 -0.2705
17037W        W32506   4.825   3.281   1.201  0.1108 -0.0844  0.2260
17038W        W32507  11.202  17.499  15.618 -0.0421 -0.1874 -0.1336
17039W        W32508   0.989  15.285   2.724  0.1262 -0.2212  0.3345
17040W        W32509  12.803   6.743   1.326  0.2184  0.2044  0.0348
17041W        W32510   9.842  15.846  14.325  0.0436  0.1070  0.1115
17042W        W32511   3.032   5.128  13.793  0.1799  0.1277  0.0960
17043W        W32512   3.021   0.532  12.116 -0.0963 -0.0433  0.2228
17044W        W32513  12.988  11.878  14.841  0.0064 -0.0854  0.1857
17045W        W32514   6.481   6.162   2.420 -0.0969  0.0589 -0.1783
17046W        W32515   3.064  10.380   3.513  0.0373 -0.0095  0.0476
17047W        W32516  11.446   1.104  16.107 -0.1957 -0.2105 -0.1340
17048W        W32517   5.884  16.894  15.441 -0.0510  0.2628 -0.3323
17049W        W32518   9.598  16.242   4.544  0.0548 -0.1012  0.0608
17050W        W32519  12.670  14.843   0.505  0.3380  0.0608 -0.0781
17051W        W32520  15.644  11.259  13.766 -0.0175  0.0226 -0.1949
17052W        W32521   3.515  11.142   2.812  0.1273  0.0781 -0.1611
17053W        W32522  15.977   3.998   3.206 -0.3101 -0.2137 -0.1057
17054W        W32523   6.930   9.751   2.961 -0.4303 -0.0714  0.2929
17055W        W32524  10.008   0.771  15.880 -0.0582  0.1379 -0.1402
17056W        W32525   6.711   3.441   1.953 -0.0528  0.1618  0.0205
17057W        W32526   8.305  11.934   1.136 -0.0403  0.2633 -0.4180
17058W        W32527   0.227   0.108   0.757  0.2279 -0.2889 -0.0173
17059W        W32528   2.871  12.896   0.225  0.0689 -0.3090 -0.2213
17060W        W32529  12.511  11.118  16.057  0.3335  0.0649 -0.1951
17061W        W32530   8.018  10.213   3.478  0.0247  0.0402  0.0530
17062W        W32531   4.485  12.525  15.854 -0.2242 -0.2583  0.1970
17063W        W32532   2.577   8.399  12.548 -0.0440 -0.3845 -0.2456
17064W        W32533   5.307   5.653   4.383 -0.0100  0.3105 -0.0835
17065W        W32534   8.930  13.862  10.766  0.1793  0.1042 -0.3648
17066W        W32535   4.479  16.750   2.936 -0.0653 -0.0106  0.0082
17067W        W32536   1.285   7.436  11.309 -0.1775 -0.0536  0.1194
17068W        W32537  10.753  12.925  15.113 -0.0532  0.1067  0.1998
17069W        W32538   7.939  17.885   1.089  0.1321  0.0152 -0.0920
17070W        W32539   8.406   0.276   1.639  0.0163 -0.0622 -0.1111
17071W        W32540  14.406   3.468  14.835  0.0200 -0.3026  0.0949
17072W        W32541   3.396  14.635   0.095  0.0983 -0.0337 -0.0255
17073W        W32542  11.730   3.904  16.063 -0.2167  0.3714 -0.2717
17074W        W32543   7.354   5.887   2.808  0.2560 -0.0297  0.3101
17075W        W32544  16.033   0.588  13.209  0.0756 -0.0805 -0.1243
17076W        W32545  16.038   4.743  12.052  0.2765 -0.3445 -0.1739
17077W        W32546  11.772   2.179  12.463  0.1442 -0.4469  0.0797
17078W        W32547   2.972  12.317   3.460 -0.2219 -0.1467 -0.1765
17079W        W32548   5.748  12.764  13.838  0.1923 -0.1860  0.2492
17080W        W32549  15.019   6.389   4.701 -0.2611 -0.1452 -0.1147
17081W        W32550  12.705   7.166   5.300  0.2058  0.1450 -0.0281
17082W        W32551  11.892   1.730   0.978  0.2089 -0.2786 -0.2430
17083W        W32552   9.294   2.700  15.547  0.0054 -0.0928  0.1606
17084W        W32553   8.214  17.231   4.331 -0.2574  0.1889  0.2547
17085W        W32554   0.772  10.099   4.113 -0.0239 -0.1565 -0.1448
17086W        W32555  14.416   4.329  15.079 -0.2447  0.2548  0.1925
17087W        W32556  12.472   2.022  11.795 -0.1793 -0.3100 -0.0642
17088W        W32557   6.992  14.424  11.660  0.0332 -0.3703 -0.1056
17089W        W32558   9.792  17.560   2.434 -0.0200  0.0029 -0.2462
17090W        W32559   8.622  10.119   5.000  0.1203 -0.2789  0.0145
17091W        W32560   4.853   4.889  13.345  0.0275  0.0729  0.2396
17092W        W32561  14.643   4.437   3.534 -0.3572 -0.2057  0.1468
17093W        W32562   2.491  11.807  11.466 -0.1550  0.1190 -0.1291
17094W        W32563   2.091  10.756  15.013  0.2093  0.4444 -0.1742
17095W        W32564  12.726   1.649   0.698  0.1384  0.3298  0.0649
17096W        W32565   4.270   6.113   0.967  0.3808  0.1695 -0.1964
17097W        W32566   4.122  17.413  12.705  0.0534  0.1475 -0.0254
17098W        W32567   2.863  12.026   4.965 -0.0705 -0.1066  0.2552
17099W        W32568   2.893  16.771  13.334  0.1138  0.0841  0.0602
17100W        W32569  14.649   0.506  12.092  0.1243  0.0159 -0.0013
17101W        W32570   8.110  15.098   2.482 -0.2855 -0.0164  0.3823
17102W        W32571   2.360  16.115   0.675  0.0107  0.1604  0.0095
17103W        W32572  12.883   4.946   1.204  0.2461 -0.4602  0.0983
17104W        W32573   2.449   1.329  13.743 -0.1543  0.1473  0.0898
17105W        W32574   4.673  10.496  10.141 -0.1029 -0.0257  0.0913
17106W        W32575  11.840  18.164   1.768 -0.2422  0.0540 -0.1508
17107W        W32576   0.786  10.711  15.154 -0.0867 -0.0158  0.0957
17108W        W32577   9.365  10.083   4.731  0.0171 -0.0835  0.1634
17109W        W32578  15.062   9.408   4.623  0.1570 -0.2104 -0.0353
17110W        W32579  10.167  13.051   1.681  0.0294 -0.0647 -0.1025
17111W        W32580  17.150   2.180   5.127  0.0041 -0.0938 -0.1307
17112W        W32581   4.161   8.118   1.307 -0.1039  0.4148 -0.0201
17113W        W32582   9.118   1.641   5.484  0.1158 -0.1983  0.1238
17114W        W32583   4.906  17.122  14.268 -0.0976  0.0491  0.1315
17115W        W32584  16.796   3.484   1.639 -0.1078 -0.1087 -0.3684
17116W        W32585   7.943  10.901   1.128  0.1245  0.4111  0.0985
17117W        W32586   7.393   6.722  13.356 -0.0576  0.1742 -0.2222
17118W        W32587   3.175   7.857   2.505  0.0110  0.2556 -0.1690
17119W        W32588   7.295   8.410  12.293 -0.1561  0.0797 -0.2351
17120W        W32589  13.284   6.500   1.256 -0.1889 -0.5546  0.3466
17121W        W32590   5.952   7.351   2.131 -0.0152 -0.2767 -0.1217
17122W        W32591   5.048  13.650  14.638 -0.0803  0.0400 -0.1669
17123W        W32592  13.768  14.876   3.712  0.5113 -0.2003  0.2311
17124W        W32593  17.702  12.277   3.144 -0.0129  0.0521 -0.0899
17125W        W32594   8.312  13.460   0.592 -0.2779  0.1141  0.1523
17126W        W32595   1.168  11.053   4.816 -0.1111  0.1097 -0.0080
17127W        W32596   1.127  14.903  14.128 -0.3119 -0.0015  0.1320
17128W        W32597  16.613  17.466   0.378 -0.3417  0.3811 -0.0238
17129W        W32598  17.287   3.735   5.157 -0.1001 -0.1888  0.1318
17130W        W32599  14.465   6.361   3.496 -0.1324 -0.3182 -0.2319
17131W        W32600   4.831   6.393  11.738  0.1840  0.2190  0.2574
17132W        W32601   0.822   7.116   3.772  0.0256  0.4117 -0.2537
17133W        W32602   1.939  11.080  13.014  0.3407 -0.1098 -0.0814
17134W        W32603   8.458   3.745   4.053 -0.3136  0.2350 -0.1187
17135W        W32604  10.655   4.262  15.671  0.2676  0.3070 -0.2300
17136W        W32605   8.933   4.535   2.334 -0.0569 -0.1953 -0.0139
17137W        W32606   1.711  12.858   3.376 -0.2148 -0.1393 -0.1430
17138W        W32607  10.120   8.480  11.181  0.1147 -0.1884  0.0664
17139W        W32608  15.850   9.501  13.054  0.1352  0.0777 -0.1313
17140W        W32609   0.536   8.397   1.822 -0.0522 -0.4267  0.0619
17141W        W32610   2.043  15.951   0.980 -0.0426  0.0979 -0.1926
17142W        W32611   9.448   8.436   3.210  0.2018  0.2650  0.2130
17143W        W32612  13.862   1.722   3.711 -0.3179 -0.0115 -0.1470
17144W        W32613   7.369   4.304  14.619 -0.1671 -0.1157  0.0117
17145W        W32614   0.724  13.307   2.281 -0.3869 -0.1646  0.2542
17146W        W32615  14.324   3.496   0.157  0.1212 -0.1387 -0.0430
17147W        W32616  13.695   2.640  13.703 -0.0991 -0.3156  0.1070
17148W        W32617  11.313   9.584   1.323 -0.1062  0.2221  0.0530
17149W        W32618  17.066   2.005   1.787 -0.0270  0.1285  0.0500
17150W        W32619   2.721  17.240  13.445 -0.1616 -0.1933  0.0990
17151W        W32620  16.536   8.592  15.468 -0.0339  0.1611 -0.2052
17152W        W32621  10.264   0.937   2.444 -0.0091 -0.2764  0.1147
17153W        W32622  12.843  11.148  15.252 -0.0730  0.0747 -0.0865
17154W        W32623   0.177   5.313  15.447  0.1344  0.2087 -0.2167
17155W        W32624  16.437  16.696   3.173 -0.2877 -0.0990 -0.3642
17156W        W32625  13.493   9.422  14.954 -0.1741 -0.1408 -0.0085
17157W        W32626   3.392  17.316   2.542 -0.3406  0.1163  0.1151
17158W        W32627   6.713  14.018  13.895 -0.0990 -0.2607 -0.2390
17159W        W32628   4.662   0.641   5.273  0.0642 -0.2504  0.1743
17160W        W32629  17.377  13.450  13.801 -0.1614 -0.2393  0.4102
17161W        W32630   1.396  10.667   1.914 -0.1708  0.0461 -0.0007
17162W        W32631  14.700  16.079   2.282 -0.2831 -0.1225  0.1044
17163W        W32632  14.310  15.809  15.589  0.2662  0.0435  0.0188
17164W        W32633  14.305  15.832   2.008 -0.0049 -0.1968 -0.0778
17165W        W32634  13.978  15.207  15.033  0.2895 -0.0401  0.1228
17166W        W32635   3.192   0.277   4.225  0.1939 -0.0826  0.0916
17167W        W32636   3.432  12.384   3.092  0.1846 -0.1190  0.0781
17168W        W32637  14.947   5.051  16.026 -0.0732  0.1312 -0.3580
17169W        W32638   9.905   1.180  15.459  0.0878  0.2398  0.1179
17170W        W32639  10.412   1.248  13.136  0.1167 -0.3646  0.1423
17171W        W32640  16.752   9.817   1.017 -0.2767 -0.2634 -0.1305
17172W        W32641  14.172  12.012  11.066 -0.2265 -0.1475  0.2441
17173W        W32642  17.527   6.809  14.365  0.1367 -0.0582 -0.0344
17174W        W32643  14.141   8.515   0.896  0.0010  0.0241  0.1696
17175W        W32644  11.407  13.641  12.164  0.2025  0.0662  0.2411
17176W        W32645   8.424   2.804  12.319 -0.0482 -0.0648 -0.2683
17177W        W32646  17.676  12.015  12.288  0.0679  0.0954 -0.0767
17178W        W32647   2.481  15.473  13.781  0.0046  0.0190 -0.1329
17179W        W32648   4.432  12.943  13.062  0.2387  0.1088 -0.2349
17180W        W32649   8.190   5.745   0.861 -0.1215  0.2236  0.1060
17181W        W32650   6.838   6.837   0.012 -0.1298 -0.1534 -0.1673
17182W        W32651  10.377   3.554   3.157 -0.1938  0.1909 -0.0494
17183W        W32652  15.276   1.498   2.955  0.1392  0.0438  0.0332
17184W        W32653   4.941   2.405  11.358 -0.2527 -0.2503 -0.3916
17185W        W32654   4.251  11.616   0.900  0.1090  0.1192 -0.3859
17186W        W32655   7.364   3.536   3.674  0.0723 -0.0509 -0.1708
17187W        W32656  16.026   7.009  10.969 -0.1192  0.2117 -0.2544
17188W        W32657  14.193   6.676   3.258  0.1491  0.2894 -0.0373
17189W        W32658  11.608  12.904   2.453  0.0447  0.1361 -0.0407
17190W        W32659   4.780  15.346   4.649  0.0243 -0.2392  0.2072
17191W        W32660  17.098  13.802  14.791  0.0617 -0.5259  0.3286
17192W        W32661   0.713  16.674  15.077  0.0044  0.0951  0.0453
17193W        W32662   1.285   8.847   0.849  0.3099 -0.3497 -0.0583
17194W        W32663   3.070  12.438   3.990  0.0894 -0.3012 -0.0466
17195W        W32664   3.469   8.372   1.674 -0.0307  0.1718  0.3787
17196W        W32665  13.989   9.073   2.841  0.2928  0.0857 -0.1063
17197W        W32666  10.687   9.416  11.277 -0.1770 -0.0590  0.3866
17198W        W32667   6.528  11.298  14.785  0.1311  0.3335 -0.0484
17199W        W32668  15.982   6.467  10.784  0.3205 -0.0165 -0.1595
17200W        W32669   2.428   9.806   4.633  0.2689 -0.2151 -0.0091
17201W        W32670   6.129  17.912   1.506  0.0959 -0.2341 -0.0857
17202W        W32671  11.862   7.715   4.813 -0.1697  0.3831  0.1076
17203W        W32672  13.685  11.305  14.748 -0.0280  0.0830 -0.0521
17204W        W32673   5.898   7.059  14.332  0.0543  0.2280 -0.0294
17205W        W32674   0.151  12.938   3.147 -0.2535 -0.0413  0.0035
17206W        W32675  16.888  17.901   0.557 -0.3506  0.2122  0.1544
17207W        W32676   3.212   6.208   2.269  0.1311 -0.0626 -0.0967
17208W        W32677   0.887   5.071  14.082 -0.4276  0.2191  0.0310
17209W        W32678   0.576  16.946   2.311  0.0864  0.3132  0.1383
17210W        W32679  11.040   7.571  12.219  0.0056 -0.1942  0.0169
17211W        W32680   3.059   7.621  14.768  0.1576  0.1696  0.0981
17212W        W32681  13.964  12.235  13.684 -0.0086 -0.3085  0.1980
17213W        W32682  10.398   9.427   0.251 -0.1192 -0.1003  0.3865
17214W        W32683  13.699  11.754  10.995  0.0453  0.0100  0.0490
17215W        W32684   2.261   2.126   1.309  0.2381 -0.2303 -0.0008
17216W        W32685   8.145  13.301  12.590 -0.2609  0.2500  0.2125
17217W        W32686  14.585  16.607   3.268 -0.0388 -0.1585 -0.2791
17218W        W32687   8.127  18.274  11.928  0.1012  0.1507  0.0394
17219W        W32688   7.632  12.316  14.873 -0.4336  0.3001  0.1420
17220W        W32689   4.128  12.537  10.958  0.0693  0.1269 -0.1280
17221W        W32690  13.697  12.192  15.410  0.2937 -0.0771 -0.0858
17222W        W32691   6.841   0.215   0.784 -0.0687  0.1260  0.4069
17223W        W32692   2.350  13.786  12.826  0.0515  0.1379  0.3085
17224W        W32693  14.162   9.350  11.425  0.2030  0.1384 -0.0181
17225W        W32694  13.778  15.087   2.840 -0.2514 -0.0550  0.1526
17226W        W32695   3.045   6.677  15.769  0.1361  0.0153  0.3443
17227W        W32696  17.502   1.309   5.557 -0.3074  0.3248 -0.3403
17228W        W32697   1.285  17.626   2.182 -0.0144  0.3300  0.1643
17229W        W32698   9.126   6.655  12.173 -0.1364 -0.1081 -0.1215
17230W        W32699   1.892  14.162   4.747 -0.2513 -0.1752 -0.0262
17231W        W32700  15.987   5.863  13.999 -0.4148 -0.0251  0.1574
17232W        W32701   5.611  14.013   0.997 -0.1303 -0.2231 -0.1038
17233W        W32702   7.808  12.881  15.021  0.0596 -0.0295 -0.0635
17234W        W32703  14.455   1.435   5.874 -0.1891 -0.2916  0.0683
17235W        W32704   0.399   4.027   2.551  0.1310  0.0692  0.1654
17236W        W32705  15.906  11.590   3.143  0.1543 -0.1382  0.1454
17237W        W32706   5.860   6.316  14.477 -0.2079 -0.0488 -0.0794
17238W        W32707   4.837   1.855   4.755 -0.0717 -0.1821  0.0952
17239W        W32708  14.452   0.228   0.979  0.1058  0.1864 -0.0029
17240W        W32709  12.173  12.135  13.198 -0.0208  0.1050 -0.1909
17241W        W32710   6.179  16.373   4.646  0.0181 -0.1981  0.1879
17242W        W32711  17.871  12.161  11.144  0.0296  0.0528  0.1931
17243W        W32712  13.707   8.583   1.647  0.1314  0.0550 -0.2408
17244W        W32713   3.046   9.495  11.892  0.0057  0.0148  0.0595
17245W        W32714  15.613  12.155   2.336  0.1563  0.0446  0.1085
17246W        W32715   0.347  17.826  12.095  0.1780 -0.2448  0.4966
17247W        W32716   2.709  13.257  13.702  0.0198  0.1916  0.0332
17248W        W32717   4.166  11.726  11.318 -0.0209 -0.0791  0.2777
17249W        W32718   3.800   4.005   0.715  0.0486  0.1835 -0.7928
17250W        W32719  16.697   2.007  10.615  0.1841  0.0633  0.1719
17251W        W32720   1.093  15.607   0.834 -0.0068  0.1710 -0.1842
17252W        W32721   5.029   9.811  11.811 -0.2754 -0.1274 -0.0296
17253W        W32722   0.847   9.657  12.371  0.1444 -0.0186  0.1311
17254W        W32723  15.269   9.063   5.148 -0.2277 -0.2178  0.1325
17255W        W32724  14.252   7.844  14.297 -0.1141 -0.2239  0.1299
17256W        W32725  12.626  14.408  16.081  0.0333  0.2109  0.1402
17257W        W32726   2.945   5.231  11.457 -0.3344  0.0454  0.0966
17258W        W32727   4.679  12.230   2.789 -0.0163  0.1697  0.0369
17259W        W32728   4.451  15.792   3.485 -0.3122 -0.1690  0.1685
17260W        W32729   0.269   2.315   1.944  0.3305  0.0839 -0.1312
17261W        W32730   9.626   7.957  15.797  0.0666  0.1047 -0.2409
17262W        W32731   1.143   1.152  14.267  0.2642 -0.1325 -0.1590
17263W        W32732  10.873  14.149   0.437  0.0269  0.0330  0.0104
17264W        W32733  15.256   1.421   3.956 -0.0242 -0.0458  0.0358
17265W        W32734   2.985  13.028  11.312 -0.0821  0.2058 -0.2398
17266W        W32735  15.932   4.035  12.741  0.0330 -0.0875  0.1914
17267W        W32736  11.596  16.546  12.477  0.0612 -0.1722  0.2103
17268W        W32737  12.236   0.858  14.513 -0.0571 -0.0048 -0.2340
17269W        W32738  13.343   8.319  13.063  0.0599  0.0959 -0.0003
17270W        W32739  16.313   1.690   5.442 -0.2275 -0.0746  0.0492
17271W        W32740  18.071  17.142  12.605 -0.0768 -0.0706  0.1011
17272W        W32741  11.425   3.832   1.781 -0.3170 -0.0907  0.4141
17273W        W32742   0.130  11.274   5.351 -0.1316 -0.0809 -0.0876
17274W        W32743  11.281  12.315   0.603 -0.0800 -0.0498  0.2003
17275W        W32744   6.827   4.964   3.205  0.0863 -0.1200 -0.2577
17276W        W32745  12.260   3.686  16.131  0.1394  0.3065 -0.3527
17277W        W32746   3.517  15.725  14.000  0.2267 -0.0013 -0.0509
17278W        W32747  14.297  17.623   3.507 -0.0425  0.0039  0.0596
17279W        W32748  11.299   3.541   5.902 -0.2547  0.0549 -0.0224
17280W        W32749   7.547  15.559  16.065 -0.2284 -0.2838 -0.0654
17281W        W32750   9.952   2.350  14.660 -0.0137  0.0080  0.1521
17282W        W32751   3.600  10.723   0.190 -0.0845  0.3287  0.2868
17283W        W32752   9.941   6.992  12.142  0.0155  0.0237 -0.1627
17284W        W32753   7.413   1.656  12.515 -0.6922 -0.0130 -0.2106
17285W        W32754  12.867  12.148   4.900 -0.2034 -0.0286 -0.2932
17286W        W32755   4.233   4.434   1.705 -0.2451  0.2986  0.4596
17287W        W32756   2.779   3.451   3.998  0.1594 -0.0604 -0.0928
17288W        W32757  14.189   5.598  12.889 -0.1129 -0.1538 -0.0246
17289W        W32758  14.037   8.586   5.162 -0.0631 -0.1783  0.0500
17290W        W32759  13.719  11.246   5.338  0.2687 -0.3531 -0.0322
17291W        W32760  14.227   1.953  11.870 -0.0510  0.0953 -0.0731
17292W        W32761   9.220   7.678  15.783  0.0206  0.0674 -0.1891
17293W        W32762  10.798  12.556   5.227  0.2544 -0.2748  0.1181
17294W        W32763  17.493   3.888   1.008  0.0471 -0.0500 -0.0295
17295W        W32764  16.278   1.425  14.315 -0.0190 -0.1857 -0.0094
17296W        W32765  14.220  17.062  14.841  0.3088  0.0430  0.1104
17297W        W32766   0.670   3.056  12.850 -0.1669 -0.0445  0.2247
17298W        W32767   1.460   0.269   4.504 -0.0297 -0.1551 -0.1089
17299W        W32768  16.915   7.700  13.502 -0.0234  0.0713 -0.0699
17300W        W32769   2.087  13.810   3.945  0.2239  0.1175  0.2527
17301W        W32770   2.299   1.158  13.239  0.4132 -0.6053 -0.2978
17302W        W32771  12.147   3.389  12.824  0.0062  0.1199  0.4380
17303W        W32772   8.979   4.461  14.924 -0.1028 -0.1038  0.0014
17304W        W32773   4.372   5.243   1.016  0.3831 -0.0649  0.1599
17305W        W32774   4.994  14.488   1.329 -0.3810  0.0583  0.0421
17306W        W32775  10.680   3.475  13.131 -0.2374  0.0424 -0.0651
17307W        W32776  13.675  16.825   5.471  0.0472 -0.1044 -0.2148
17308W        W32777   3.846  10.452  14.816  0.0439 -0.0591  0.0005
17309W        W32778   3.082  17.627   3.307  0.2053  0.2530  0.3488
17310W        W32779   0.926   5.975   4.183  0.0151  0.1866 -0.3287
17311W        W32780  10.545  10.100  15.542  0.0898  0.0575 -0.1093
17312W        W32781  15.274   4.369  13.163  0.2326  0.2896  0.0804
17313W        W32782  16.293   2.502   4.973 -0.0606 -0.1812  0.1887
17314W        W32783  17.505  14.178   2.616 -0.0669 -0.0150 -0.2284
17315W        W32784   6.042  13.055   3.290  0.0999  0.1062 -0.0501
17316W        W32785   0.314   6.699   1.428 -0.1977  0.1687  0.0279
17317W        W32786  11.745   6.191   2.947 -0.2465  0.0482 -0.2419
17318W        W32787  16.618  16.586   1.994  0.0361 -0.2951 -0.2902
17319W        W32788   8.434   1.375  13.474  0.2278  0.2137 -0.1418
17320W        W32789  16.629   3.629  13.976 -0.5484 -0.3016  0.2653
17321W        W32790   9.017  17.826   4.101 -0.5674  0.2306  0.1697
17322W        W32791  10.502   3.095   5.445  0.1876  0.0133  0.2710
17323W        W32792  17.907   0.870   3.388  0.0940  0.3234  0.3065
17324W        W32793   9.591   9.902  15.748 -0.2645  0.1296  0.0348
17325W        W32794   9.286   9.863   1.449 -0.2004 -0.1358  0.2644
17326W        W32795   8.777  13.017   4.314  0.2092  0.2504 -0.3658
17327W        W32796  17.499   7.677   1.735 -0.0374 -0.1414 -0.1027
17328W        W32797  16.615   9.520  11.720 -0.0170 -0.0999  0.2400
17329W        W32798   6.828  10.257   1.544  0.5189  0.2289  0.0593
17330W        W32799  15.053  13.092   3.419  0.1608 -0.1592 -0.1089
17331W        W32800   9.400  11.213  12.663 -0.0246 -0.0313  0.0247
17332W        W32801  15.299  13.122   4.709 -0.3685  0.1990 -0.1337
17333W        W32802  15.011   8.742   1.902  0.2571  0.1065  0.1805
17334W        W32803  17.263   1.653   5.232 -0.1644 -0.0209 -0.1737
17335W        W32804  13.979  11.300  12.489  0.1771  0.1603 -0.1239
17336W        W32805  16.693   6.402   4.763 -0.0050 -0.1121  0.0919
17337W        W32806   7.869   1.725  11.734 -0.1765 -0.1240 -0.0123
17338W        W32807   7.766  17.968   5.537 -0.0317  0.0991  0.1353
17339W        W32808   9.435   6.781   2.649 -0.0403  0.0501 -0.0925
17340W        W32809  14.875   5.395   1.062 -0.2786 -0.0081 -0.1272
17341W        W32810   9.587   8.348  12.716  0.2718 -0.3064  0.2338
17342W        W32811   5.091   0.948  14.055  0.2305  0.0106 -0.1171
17343W        W32812  15.891  10.514   0.153  0.1657 -0.3399 -0.2729
17344W        W32813  13.743  15.212  13.185 -0.0663  0.1013 -0.1849
17345W        W32814   5.529   0.267  10.791  0.1287  0.1459  0.0362
17346W        W32815   5.943  16.039   3.226 -0.0083  0.0588 -0.4045
17347W        W32816  16.832   1.483  11.269  0.2253 -0.3364  0.4134
17348W        W32817   6.184  17.953   3.565 -0.1533  0.2440  0.2079
17349W        W32818  12.210  17.855  12.179 -0.3296 -0.1759 -0.0592
17350W        W32819   9.899  10.869  11.371  0.0624  0.0941  0.0447
17351W        W32820   4.494  13.799  10.940  0.4238 -0.1331 -0.0935
17352W        W32821  10.703   3.286  14.017  0.0003  0.0977  0.0114
17353W        W32822  10.073  15.778   3.543 -0.1122  0.0175  0.3204
17354W        W32823  11.648  14.514  12.568 -0.1544  0.0907 -0.1383
17355W        W32824  14.397   5.775   2.979 -0.2054  0.1959 -0.2045
17356W        W32825  16.147  16.765  15.382  0.2264  0.1158 -0.2491
17357W        W32826  17.983  17.988  12.422  0.1281  0.0285  0.0468
17358W        W32827  16.322   6.698   0.859  0.0870  0.0645  0.0267
17359W        W32828   6.219   3.423  13.648 -0.0629  0.1894 -0.2329
17360W        W32829  13.740  14.489   1.060  0.3432  0.2937 -0.0479
17361W        W32830   0.501   0.779   2.547  0.1051 -0.1826  0.0987
17362W        W32831   8.240  17.444  14.127  0.1729  0.0176  0.0944
17363W        W32832   8.969  16.141   4.539  0.0155  0.1622 -0.1224
17364W        W32833  15.384   0.367  15.452  0.0566 -0.1607  0.0029
17365W        W32834   8.904   9.834  15.256 -0.1758  0.1082  0.2089
17366W        W32835  17.443   1.400  16.073 -0.2173  0.0495  0.2895
17367W        W32836   1.696   0.171  12.447  0.0036 -0.0348  0.1515
17368W        W32837  12.241   7.451   3.339 -0.1391 -0.1164 -0.0730
17369W        W32838  17.326   9.346   3.426 -0.0497  0.2220 -0.2078
17370W        W32839   6.522   5.798   0.323 -0.1229  0.0236  0.0726
17371W        W32840   2.971  14.706   2.655 -0.3435 -0.1946  0.0753
17372W        W32841  15.284   6.287  14.682  0.1840 -0.2328  0.1433
17373W        W32842   4.821   6.604  13.574  0.1216 -0.0133  0.2302
17374W        W32843  12.140   4.155  11.788  0.1631  0.1511 -0.0875
17375W        W32844  15.395   3.060  16.102 -0.1792  0.0605  0.0658
17376W        W32845   7.653  17.564   3.650 -0.1469  0.1951  0.3411
17377W        W32846  12.452   3.169   3.749  0.0820 -0.1480 -0.0878
17378W        W32847  15.440  13.879   1.349 -0.2340 -0.1777  0.0154
17379W        W32848   1.021   4.470   5.115  0.3897  0.1998  0.0654
17380W        W32849  16.009   6.434   1.910  0.2073 -0.2720  0.0144
17381W        W32850  15.211  12.702   3.642  0.1139 -0.0969 -0.0308
17382W        W32851   3.071   1.853  11.866  0.1327  0.2322  0.4652
17383W        W32852  16.912   7.754   3.322 -0.2046 -0.1647  0.1951
17384W        W32853   8.010  15.480  13.880 -0.1080 -0.1618  0.2458
17385W        W32854   7.166   6.191   3.871  0.3691  0.1188  0.0312
17386W        W32855   7.891   5.641  15.156  0.2121 -0.3403 -0.1858
17387W        W32856   5.640  14.410  11.916  0.0553 -0.2278  0.3169
17388W        W32857   2.351  15.383   2.259  0.0853  0.0507 -0.3906
17389W        W32858   8.998  11.786  13.962  0.0936  0.1697  0.1627
17390W        W32859   9.932  13.033  14.314 -0.2108  0.2956  0.3165
17391W        W32860   5.728  13.761   5.098  0.2497 -0.3296 -0.0029
17392W        W32861  15.209  15.964  16.124  0.0053  0.0140  0.1880
17393W        W32862   1.564  12.310   5.738  0.0470 -0.1933  0.3131
17394W        W32863   5.659  11.372  13.544  0.1068  0.0568  0.3193
17395W        W32864   6.917   6.311  15.245 -0.1742  0.0433  0.2500
17396W        W32865  12.365  11.594   2.613  0.1724 -0.2700 -0.0298
17397W        W32866  14.995  14.900   2.624 -0.1459 -0.0340 -0.1678
17398W        W32867  13.684  13.131   5.080 -0.4367  0.1222  0.0206
17399W        W32868   7.027   1.879   6.240 -0.0070 -0.4045 -0.0358
17400W        W32869   4.477   0.709   3.306  0.0724 -0.0019 -0.1511
17401W        W32870  11.720   1.255  15.244 -0.1178  0.3197 -0.3160
17402W        W32871   3.581   6.710   3.809 -0.1128  0.2251  0.2502
17403W        W32872   8.277   3.426  15.141  0.0591 -0.3719 -0.0992
17404W        W32873  13.632  11.646  10.260 -0.1995  0.1848  0.2061
17405W        W32874  12.230   8.279  11.443  0.0918 -0.0261 -0.4521
17406W        W32875   8.636   9.141   5.749 -0.1594  0.3222 -0.0334
17407W        W32876   5.724   2.556  16.129 -0.4655  0.1573 -0.0841
17408W        W32877   2.731   0.322  11.082 -0.2601 -0.0439 -0.3493
17409W        W32878   2.013   3.322   3.432  0.0878 -0.1089 -0.0364
17410W        W32879   3.361  11.990  14.036  0.1593 -0.0902  0.1477
17411W        W32880  16.469  16.716   4.461 -0.0791  0.1513 -0.0511
17412W        W32881  10.102  18.150   0.784  0.0509  0.1702 -0.1703
17413W        W32882  11.052   5.311   6.312  0.3112  0.0540 -0.1561
17414W        W32883   3.802   0.308  12.775  0.2118  0.1271 -0.0849
17415W        W32884  17.778  10.344   0.610  0.1524 -0.0005 -0.0170
17416W        W32885   0.463   2.067   0.188  0.2421  0.1246  0.1235
17417W        W32886  12.989   7.045  11.998 -0.0549  0.2374  0.3396
17418W        W32887  12.559   9.008  15.762  0.1851  0.1851  0.3028
17419W        W32888   5.700   0.712  13.205  0.0192  0.2033 -0.0178
17420W        W32889  13.127   7.145   4.371 -0.2064 -0.3847  0.0167
17421W        W32890  17.282  11.375   3.614  0.2999  0.4134 -0.1009
17422W        W32891  15.117   2.703  15.479  0.2581 -0.0715 -0.0133
17423W        W32892   0.986  16.384   4.902  0.3372  0.1621 -0.3496
17424W        W32893  17.932   1.669   4.815  0.0682  0.2240  0.0606
17425W        W32894  15.703  11.995   4.140  0.1403 -0.1272 -0.2225
17426W        W32895   4.148   7.430  16.081  0.0323 -0.1597 -0.1399
17427W        W32896  18.067   9.889  14.808  0.2330 -0.3944  0.2111
17428W        W32897  13.373   9.842  11.364 -0.0578  0.0914 -0.0477
17429W        W32898   4.975   5.199  11.109  0.0864 -0.1260 -0.1220
17430W        W32899   5.183  15.948   0.952  0.0058  0.0978  0.1096
17431W        W32900   9.143  15.741  16.071 -0.0379  0.1346 -0.1589
17432W        W32901   4.864  12.574   4.828 -0.0617  0.0432 -0.1893
17433W        W32902  17.596   3.677   9.886  0.0212  0.0826  0.1782
17434W        W32903   1.157   9.030   3.602 -0.1594 -0.1341  0.0800
17435W        W32904   9.669   4.480   4.529  0.2490 -0.2642  0.2050
17436W        W32905  16.654  14.913  15.475  0.0040  0.0256  0.0651
17437W        W32906  16.786   7.183  13.541 -0.0797  0.1018  0.1251
17438W        W32907  17.507   9.291  13.415 -0.1178 -0.0924 -0.3246
17439W        W32908  15.640   4.851   5.052 -0.0379 -0.4382 -0.0039
17440W        W32909   7.032  10.515   4.240  0.0550  0.1172  0.0470
17441W        W32910   4.748   6.412   1.702 -0.0166 -0.2495 -0.3183
17442W        W32911   3.076   5.886  14.892 -0.1174  0.0755 -0.0130
17443W        W32912  17.889  10.173  13.279  0.0742 -0.6725  0.1489
17444W        W32913   6.152   0.658   4.203  0.1946 -0.1608  0.1078
17445W        W32914  18.301   3.541  11.536  0.2909 -0.1573  0.0511
17446W        W32915   5.902   0.290   0.445  0.0549 -0.0353  0.0766
17447W        W32916   8.566   8.887   0.612 -0.1307 -0.0462 -0.1277
17448W        W32917   7.419  14.969  13.183  0.2119 -0.2713 -0.0252
17449W        W32918   1.650   9.202   4.484 -0.0948  0.0251 -0.0797
17450W        W32919  14.919   0.347  15.576 -0.1520 -0.2411  0.2447
17451W        W32920  14.209  16.766  15.318  0.0619 -0.1753  0.2713
17452W        W32921  17.939  11.097  14.622 -0.1080  0.3183 -0.1465
17453W        W32922   4.056   2.695  13.058  0.0092  0.0627 -0.1912
17454W        W32923  11.244   8.342  16.123  0.2834  0.0639 -0.4756
17455W        W32924   0.623  18.255  12.736 -0.0552 -0.0185 -0.2398
17456W        W32925   2.597  13.538  15.799 -0.0129 -0.1584 -0.1286
17457W        W32926  12.644   6.236  15.981 -0.0183 -0.3570  0.2205
17458W        W32927  10.870  15.510   3.764 -0.0504 -0.0718  0.1564
17459W        W32928  15.235  18.305  11.608 -0.0283 -0.0726 -0.0712
17460W        W32929  16.653  17.230  15.549  0.2794 -0.0475 -0.2187
17461W        W32930   9.584  13.936  14.467  0.2266  0.2080 -0.0750
17462W        W32931  18.242   0.156  15.871  0.4154  0.2455  0.0453
17463W        W32932  15.780  17.119   0.201 -0.0798 -0.2473  0.0277
17464W        W32933   5.958   8.305  15.152  0.1631  0.1517 -0.0366
17465W        W32934  17.463   7.373   5.048 -0.0812  0.3224 -0.1568
17466W        W32935   9.774  15.884   1.436  0.0845  0.0835 -0.1739
17467W        W32936   7.535  12.785  15.458 -0.1862 -0.0658  0.0591
17468W        W32937  15.795  14.202   0.207 -0.0769  0.3363  0.0054
17469W        W32938  13.074   1.248  14.648 -0.0253 -0.3568  0.4608
17470W        W32939   8.487   4.594  16.166  0.0584  0.1361  0.0326
17471W        W32940   2.766  16.695  11.255  0.1383  0.0876 -0.0710
17472W        W32941  14.654   5.892   3.471 -0.0143 -0.1804 -0.1107
17473W        W32942   9.926  16.785   2.873 -0.0716  0.0452 -0.4843
17474W        W32943   2.571   7.988   1.352  0.1506  0.0474 -0.5949
17475W        W32944   0.097  14.018  14.683  0.0994 -0.1004  0.1215
17476W        W32945   3.867  18.042  14.625 -0.1915 -0.0157  0.0697
17477W        W32946  14.080   1.214   3.627  0.0869 -0.1402  0.3188
17478W        W32947  16.413  18.293   2.419  0.0185 -0.0994 -0.0487
17479W        W32948   3.653  17.190  12.332 -0.3718 -0.1323 -0.0850
17480W        W32949   0.585   4.147  12.245  0.3885 -0.0309  0.1181
17481W        W32950  16.287  16.405   3.607  0.0448 -0.1804  0.0489
17482W        W32951   1.595   2.964  15.909 -0.0889  0.3816  0.0490
17483W        W32952  13.995  14.106   0.246  0.2508 -0.1333 -0.0533
17484W        W32953   8.015   1.976   4.937  0.0153  0.2680 -0.0394
17485W        W32954   8.889  12.126   3.997  0.4287  0.2487  0.1540
17486W        W32955   7.897  11.117   4.782 -0.2055 -0.1525 -0.2109
17487W        W32956   7.782   1.554  14.353  0.0308  0.0877 -0.2133
17488W        W32957  14.921   5.101   5.751  0.2348  0.0529 -0.4568
17489W        W32958   4.956   0.400  15.332 -0.1057 -0.2712  0.0357
17490W        W32959   5.482   1.735  15.571  0.1341  0.1986 -0.2323
17491W        W32960   9.927  15.519   4.039 -0.1501  0.2911 -0.0569
17492W        W32961   7.107  11.448   0.174 -0.1153  0.1881  0.2181
17493W        W32962   1.689  17.857  15.905  0.1256  0.1038 -0.0394
17494W        W32963   4.990  15.401  13.186  0.1926 -0.0093 -0.1690
17495W        W32964   7.528   3.007   4.205  0.1334  0.2407 -0.2174
17496W        W32965   6.709   3.030   3.711  0.0562  0.1275  0.3014
17497W        W32966  13.421  10.852  12.519 -0.0014 -0.1093 -0.0532
17498W        W32967   7.323  11.924  14.475  0.0567 -0.0138 -0.3174
17499W        W32968   0.661  17.024  11.709  0.2460 -0.0411 -0.1751
17500W        W32969   9.402  14.447  15.402 -0.0127 -0.1329 -0.1887
17501W        W32970  13.862  17.392  14.565  0.1759  0.2067 -0.3179
17502W        W32971   8.359  14.386   3.964 -0.4815  0.1491 -0.0570
17503W        W32972   1.681   3.595  14.321 -0.3694  0.0272  0.3642
17504W        W32973  15.095   8.937   2.989 -0.1334 -0.0432  0.1315
17505W        W32974  12.795  16.691   0.035 -0.0621 -0.1023  0.0383
17506W        W32975   0.580  13.713  12.637 -0.0107  0.1581  0.1282
17507W        W32976  14.880  13.431   1.836 -0.3114  0.0906 -0.1011
17508W        W32977  15.441  18.130   1.190 -0.0700 -0.0357  0.0094
17509W        W32978   4.935  14.579  10.742 -0.1503  0.1547  0.0969
17510W        W32979   4.193  10.970  10.835 -0.0107  0.0101 -0.1421
17511W        W32980   6.094  17.371   1.395 -0.0930 -0.0577  0.2024
17512W        W32981  14.567   7.016   4.518  0.2757 -0.1722 -0.0377
17513W        W32982  17.982  14.676  15.460  0.0214 -0.3251 -0.2172
17514W        W32983   6.503   0.485   4.637 -0.0342  0.1568  0.0990
17515W        W32984   4.489  17.205  15.052 -0.0934  0.0954  0.1713
17516W        W32985  14.868   7.939   3.132 -0.1112 -0.2005  0.2543
17517W        W32986   8.474   3.226  14.286 -0.1501  0.0934  0.1174
17518W        W32987  17.284   3.732   4.595  0.0168  0.0191 -0.0544
17519W        W32988  18.134  15.779   2.994  0.2189 -0.1078 -0.2554
17520W        W32989  13.389  16.380   4.107  0.2641  0.2202 -0.3112
17521W        W32990  14.461  18.109   1.390 -0.0376  0.1402  0.3380
17522W        W32991  18.026   4.085   5.045  0.0794  0.0018  0.2969
17523W        W32992   9.463  17.527   5.098 -0.2417 -0.0477 -0.0240
17524W        W32993   6.564  14.639   9.996  0.2251  0.0604 -0.0134
17525W        W32994   9.884   4.335   2.943 -0.1961  0.0378 -0.0035
17526W        W32995  17.354   3.746  14.560 -0.0574 -0.0264 -0.0315
17527W        W32996   2.731   8.847  11.352 -0.1398 -0.1978 -0.1284
17528W        W32997  17.645   2.723   0.759 -0.1160  0.2845  0.0196
17529W        W32998  15.075  14.943  12.856 -0.3273  0.1092 -0.0358
17530W        W32999   8.233   2.960   4.822  0.2470 -0.0482  0.0641
17531W        W33000  14.995   6.281  12.073 -0.1958 -0.3559 -0.0164
17532W        W33001   7.137  12.510   3.782 -0.0954  0.0270  0.0048
17533W        W33002   6.603   4.833   0.647 -0.1252  0.2999  0.0290
17534W        W33003  14.811  14.433   6.336 -0.0264 -0.1792  0.1365
17535W        W33004   7.043  14.138   2.964 -0.2046 -0.1724 -0.2002
17536W        W33005   3.950   4.301  11.687  0.1825  0.0933 -0.1516
17537W        W33006  15.997  10.009   0.874  0.0619  0.1579 -0.0178
17538W        W33007   6.750  10.527  15.726  0.0096  0.3143  0.2859
17539W        W33008  11.967  14.226   5.170  0.0524 -0.0559 -0.0066
17540W        W33009   8.670   5.644   5.469  0.2638 -0.0296  0.1530
17541W        W33010  16.771  15.024  14.935  0.2493 -0.0517  0.2505
17542W        W33011  15.603   5.356   5.191  0.1924  0.0528 -0.0559
17543W        W33012  12.250   9.109  12.800 -0.0919 -0.0395  0.1146
17544W        W33013  11.345   7.397  14.266  0.2141  0.1204 -0.1196
17545W        W33014  15.824   1.159   4.501  0.1612  0.2399  0.1293
17546W        W33015   1.191   8.140  12.183  0.2149 -0.0787  0.1376
17547W        W33016  12.869  16.740  15.074  0.1185  0.1284  0.0610
17548W        W33017   0.658   7.262   1.421 -0.1115 -0.5735  0.0148
17549W        W33018  10.606  15.329  13.164 -0.1974 -0.2683  0.2366
17550W        W33019   1.560   8.860   0.432  0.2511  0.0999 -0.2623
17551W        W33020  15.461   7.684   2.911  0.1035  0.2274  0.0781
17552W        W33021   8.664   4.233  13.909 -0.0166  0.1029  0.1815
17553W        W33022  13.979   8.759  16.126 -0.0587  0.0144  0.0173
17554W        W33023   4.708  11.583  13.838  0.1543  0.2180 -0.0451
17555W        W33024  15.092  14.627   2.165  0.1838  0.2350 -0.2935
17556W        W33025  12.594  17.263  15.409  0.0424 -0.0559  0.0678
17557W        W33026   8.586   8.034  15.800 -0.0596  0.1601 -0.0056
17558W        W33027   4.490   8.652  11.603  0.0496  0.2125  0.2571
17559W        W33028  14.570   7.699   1.123  0.0261 -0.3293 -0.0353
17560W        W33029  13.962   7.248   2.877  0.0798  0.0389  0.1558
17561W        W33030  13.694   3.910  14.603 -0.0228  0.3576 -0.0827
17562W        W33031  12.750  13.197  15.285 -0.3345 -0.0089 -0.1874
17563W        W33032   5.788   5.702   4.550 -0.2407  0.0742 -0.0808
17564W        W33033  10.379  12.431   0.428 -0.1520 -0.1784 -0.0072
17565W        W33034   7.614  15.989   2.868  0.3828  0.0045 -0.1188
17566W        W33035  14.567  13.539   2.353 -0.0028 -0.0677  0.1153
17567W        W33036   7.960  15.074  12.075 -0.2440  0.1792 -0.1576
17568W        W33037  10.564  16.829   5.494 -0.3108  0.0315 -0.0479
17569W        W33038  11.089   3.538  15.071 -0.1201  0.0007  0.3076
17570W        W33039   4.859   7.906  11.964 -0.0117 -0.1550 -0.2425
17571W        W33040  10.034   9.570   0.601  0.3152 -0.0894  0.1033
17572W        W33041   0.521   7.859  11.619  0.0457  0.0588  0.0371
17573W        W33042   4.338   0.705   0.313 -0.2152  0.0451  0.0545
17574W        W33043   6.384   4.487  14.283  0.0622  0.1442 -0.0621
17575W        W33044   7.303   7.239  11.733  0.0801 -0.0885  0.0170
17576W        W33045   6.017   9.066   4.580  0.2206  0.3571 -0.1178
17577W        W33046   5.769   3.254  13.999 -0.3048 -0.3082 -0.1030
17578W        W33047   1.878  13.235  13.244  0.1135 -0.0984  0.0149
17579W        W33048  14.669  16.809   0.909  0.1409 -0.2190 -0.3364
17580W        W33049  13.286  13.885  11.822 -0.1236 -0.1181 -0.1353
17581W        W33050   1.283  17.571  15.233 -0.0907  0.1328  0.0829
17582W        W33051  13.554   4.008  16.048 -0.0261  0.0211 -0.1738
17583W        W33052   5.127   7.501  13.361 -0.2049 -0.3267  0.1620
17584W        W33053  10.990  11.137  11.652 -0.0828 -0.0428 -0.2788
17585W        W33054  12.051  17.574   5.036 -0.0798  0.1267  0.1725
17586W        W33055   5.055  13.750   0.349  0.1416 -0.0500  0.2285
17587W        W33056   9.883   1.809   1.637 -0.0234 -0.3202  0.2134
17588W        W33057   1.286   8.090   0.037  0.0022 -0.1876 -0.0736
17589W        W33058   5.656   1.837  16.078 -0.2939  0.3183 -0.0696
17590W        W33059   0.863  15.872  15.531  0.0929  0.2317 -0.0341
17591W        W33060  12.110   7.621  15.394 -0.1544 -0.1081  0.0958
17592W        W33061   3.753  11.461   0.766  0.0980 -0.2336 -0.3639
17593W        W33062  13.631   3.238  12.175  0.0198 -0.0837 -0.0750
17594W        W33063   8.132  16.127  15.396 -0.1094  0.1078  0.0325
17595W        W33064  17.011   3.353   0.624 -0.2516  0.1538  0.1544
17596W        W33065   2.666  14.752   5.366 -0.0408 -0.1270 -0.2397
17597W        W33066   8.174  14.936  12.540  0.0843  0.1213 -0.1323
17598W        W33067  12.317   1.740  13.212  0.3396 -0.1411  0.0441
17599W        W33068  17.725   6.785   2.260  0.1304 -0.1622  0.1811
17600W        W33069   5.297   5.552  11.743  0.1106 -0.2134 -0.0250
17601W        W33070   4.098   3.837  12.439  0.0576 -0.1346  0.1558
17602W        W33071   4.212   6.096  13.157 -0.3597 -0.0572 -0.1465
17603W        W33072   5.874   8.356  16.042  0.1663  0.2217  0.1742
17604W        W33073   6.989  10.455   5.372 -0.1559  0.1894 -0.1378
17605W        W33074   5.268   0.779   5.921  0.0203 -0.0176 -0.0760
17606W        W33075   1.575   3.578  13.816  0.4863  0.0285  0.0478
17607W        W33076  14.499   9.082  15.915 -0.1009 -0.2643  0.1994
17608W        W33077  13.977  16.577  13.953 -0.2164  0.1891  0.2225
17609W        W33078   8.727  12.914   1.277 -0.0840 -0.1650 -0.1666
17610W        W33079   6.025  11.607  12.992 -0.2354 -0.2101  0.2605
17611W        W33080  10.428  15.198  10.432  0.0941 -0.1528 -0.0628
17612W        W33081   0.587   6.925  12.486  0.2379  0.4317  0.1570
17613W        W33082   7.550   6.748   2.047  0.4202 -0.2895  0.1229
17614W        W33083   7.504  11.625  10.886 -0.0619 -0.1659  0.1256
17615W        W33084   6.138  10.157  14.731  0.1779  0.0822 -0.2466
17616W        W33085   2.658   0.268   2.142  0.0494 -0.2828 -0.0582
17617W        W33086   1.775   9.215  10.132  0.1549 -0.0326 -0.3816
17618W        W33087   6.381   8.935   4.261  0.0041 -0.5227 -0.0717
17619W        W33088  17.689  15.954  11.683  0.0138  0.2461 -0.2069
17620W        W33089  12.922  14.376  13.939  0.2605  0.0271 -0.1495
17621W        W33090   4.911  13.209   2.300  0.0316  0.0393  0.0520
17622W        W33091   7.756   7.821   0.645  0.1402 -0.1618  0.1205
17623W        W33092  15.801   1.709   5.383 -0.1507  0.0316  0.1759
17624W        W33093  17.514   6.063  11.591  0.0786 -0.3335  0.0055
17625W        W33094  13.195  12.485  14.815 -0.1079  0.1158 -0.2360
17626W        W33095  15.233   0.775  13.077 -0.0271  0.1349 -0.1424
17627W        W33096   2.535  11.545  14.066  0.0102  0.1652 -0.0389
17628W        W33097  17.341  17.113   1.667 -0.1365  0.1450  0.1991
17629W        W33098   9.789   8.113  11.728  0.1657  0.2864 -0.3409
17630W        W33099  14.211   1.145   0.011  0.3889 -0.0606 -0.1450
17631W        W33100   5.381  17.839  11.064  0.1456 -0.1560  0.1610
17632W        W33101   8.780  15.029  11.767 -0.1179 -0.1513  0.4215
17633W        W33102  11.439   9.894  11.728  0.1159  0.3136  0.0590
17634W        W33103  14.774  16.988  14.790  0.0004 -0.0561  0.3533
17635W        W33104   8.776  10.601  14.133 -0.0762  0.1713 -0.1141
17636W        W33105  14.595   8.183  15.970  0.0345  0.4333 -0.0970
17637W        W33106   8.831  13.593   2.365  0.2715  0.0047 -0.3158
17638W        W33107  15.893  10.576  10.648 -0.1967  0.0570  0.1857
17639W        W33108   5.009   9.687  14.929  0.0704 -0.1157 -0.3053
17640W        W33109  15.258   2.457   5.881  0.0750 -0.1928 -0.0597
17641W        W33110  11.205   1.645   2.432  0.0507 -0.0607  0.2993
17642W        W33111   4.072  11.413  11.656  0.1006 -0.1619 -0.2304
17643W        W33112  15.598   5.581  10.541  0.3535  0.1211 -0.1383
17644W        W33113   1.882  12.351  14.342 -0.1708 -0.2710 -0.1966
17645W        W33114  14.708   7.682  11.235  0.1871  0.0591  0.0110
17646W        W33115   5.781  12.741   2.402 -0.1675  0.0325  0.2836
17647W        W33116  12.239  16.494   4.900 -0.0789 -0.0684  0.3363
17648W        W33117  16.739   3.904   2.780  0.5895  0.0340  0.1077
17649W        W33118   6.095   1.968   4.898  0.0956 -0.2541 -0.3804
17650W        W33119  16.108  15.934   5.235  0.1540 -0.2831  0.1576
17651W        W33120  11.579  12.518  15.254 -0.1599 -0.0058  0.0025
17652W        W33121  11.327   9.141  13.876 -0.0975 -0.2310 -0.1590
17653W        W33122   9.580  12.496  13.164  0.0848 -0.3024  0.2601
17654W        W33123   0.209   4.817   3.545  0.2540 -0.0036 -0.0357
17655W        W33124   8.893   2.654   4.221 -0.2440  0.0709 -0.1567
17656W        W33125   7.256  18.260  12.916  0.1663 -0.2298  0.0522
17657W        W33126  13.087   6.442  14.962 -0.2369 -0.2437  0.2271
17658W        W33127   7.989  14.807  14.893  0.2394  0.0029 -0.2392
17659W        W33128   5.533  13.744   1.875  0.2091 -0.0290 -0.1053
17660W        W33129  14.843  12.966   3.933 -0.2849 -0.0646  0.2655
17661W        W33130  13.643   8.216   2.010  0.2688 -0.1311 -0.1337
17662W        W33131  16.760  15.131   4.248  0.2697 -0.0878 -0.1136
17663W        W33132   1.875  17.151  11.555  0.0741  0.0830  0.1095
17664W        W33133  12.071  18.250  14.591  0.2001  0.1594  0.1244
17665W        W33134  12.357  12.113   2.502 -0.1353 -0.2768 -0.1200
17666W        W33135  10.309  15.184  12.791  0.0751 -0.0896  0.1870
17667W        W33136  17.597   6.023   4.471  0.1086 -0.2065  0.1279
17668W        W33137  17.448  11.312   3.086 -0.0381 -0.0330  0.1486
17669W        W33138   9.249   2.420  12.321  0.0305 -0.2265  0.2751
17670W        W33139  15.717  11.862   1.510  0.0570  0.0754 -0.5257
17671W        W33140  11.363  15.432   1.878  0.0108  0.3339  0.0595
17672W        W33141   6.756  13.050   3.982 -0.1473 -0.1740 -0.0851
17673W        W33142  10.048   2.936   5.203  0.0110  0.0294  0.3358
17674W        W33143  15.984  10.526  15.813  0.3078 -0.0676  0.2916
17675W        W33144   5.095  12.622  15.878 -0.1792  0.1768  0.0783
17676W        W33145  18.169   3.637  12.437 -0.0805 -0.0936  0.0385
17677W        W33146   2.443  11.039   3.271  0.6010  0.2280  0.0610
17678W        W33147   2.640  13.221   5.523 -0.1691 -0.0643  0.3527
17679W        W33148   9.225  11.641  15.015 -0.1202 -0.1187  0.1640
17680W        W33149   6.624   8.447  12.950  0.0129  0.2824  0.2534
17681W        W33150  14.329  15.077  14.698  0.0005  0.0885 -0.0152
17682W        W33151  11.403   5.893  14.184 -0.1369  0.6312  0.1959
17683W        W33152  17.611   8.300  15.932  0.0029 -0.0644 -0.0724
17684W        W33153   0.645  16.149   2.643 -0.2436 -0.2410  0.2128
17685W        W33154  15.256  12.394   0.986 -0.0355 -0.0339 -0.4284
17686W        W33155  12.613  15.888   4.269 -0.1123  0.0316  0.0756
17687W        W33156   0.377   6.448  11.446 -0.2180  0.4020  0.0757
17688W        W33157   5.285   6.254  12.713  0.0512  0.0842  0.1597
17689W        W33158   2.224   6.367  13.552 -0.2510 -0.4738 -0.3451
17690W        W33159  15.159  14.959  15.208  0.0868 -0.1085  0.2674
17691W        W33160   7.249  15.282  11.758  0.3367 -0.0937 -0.6566
17692W        W33161   3.024   8.545   1.902 -0.1341 -0.0228 -0.0993
17693W        W33162   7.783   0.289   3.353  0.0288 -0.1080 -0.2403
17694W        W33163   2.280  12.927  13.740 -0.0584 -0.2521  0.1341
17695W        W33164   0.596  18.118  15.096  0.1851 -0.0496  0.0742
17696W        W33165   5.948   8.316   5.241 -0.0151 -0.0853 -0.1203
17697W        W33166  16.121  11.054  15.709  0.3784  0.2104 -0.1151
17698W        W33167   4.820  16.161  14.994  0.0794  0.3973 -0.2859
17699W        W33168  17.756  11.518   3.822  0.3692  0.1776 -0.0430
17700W        W33169  13.963   1.981  15.804 -0.4054  0.0341 -0.1917
17701W        W33170  12.962   2.131  13.796  0.1473  0.4390  0.0641
17702W        W33171  16.898   0.357   0.022 -0.1480 -0.0202  0.0069
17703W        W33172   1.094   0.131  12.741 -0.0623  0.1404 -0.0120
17704W        W33173   7.956   8.957  16.075  0.0059  0.2273 -0.1433
17705W        W33174   7.289   6.917   2.565 -0.0464 -0.0144 -0.0969
17706W        W33175  17.186   5.668   4.332  0.0007 -0.1475  0.2160
17707W        W33176   7.688   1.185   3.803  0.0879 -0.2751 -0.1080
17708W        W33177   7.282   6.372   0.858 -0.2416 -0.1410  0.0204
17709W        W33178  14.384   3.216  13.828 -0.0787  0.0760 -0.4578
17710W        W33179  11.393  13.750   4.610  0.1356  0.0071 -0.1302
17711W        W33180   9.517  18.254  13.218  0.2692  0.2235 -0.3695
17712W        W33181   1.396  12.740   4.515 -0.0263  0.1221  0.1772
17713W        W33182   1.694   8.766  10.327  0.0129  0.0666 -0.2255
17714W        W33183  13.976   1.999   0.925  0.0433  0.0842  0.4349
17715W        W33184  15.802   8.458   4.282  0.3047 -0.3003  0.0723
17716W        W33185  12.947   0.025   1.349  0.1043  0.3291  0.0920
17717W        W33186  12.395   7.365  13.293  0.1575  0.2069  0.0440
17718W        W33187   3.699  14.510   2.266 -0.1857  0.1398 -0.0467
17719W        W33188   5.403  14.282  14.330 -0.0377  0.1682  0.1495
17720W        W33189  15.233   9.954   5.863  0.0866  0.0014  0.0138
17721W        W33190  12.012   2.753   0.271 -0.0711  0.0078 -0.0967
17722W        W33191  13.946   2.800  11.621 -0.1368  0.2452  0.0489
17723W        W33192  17.236   8.834  14.244  0.0042  0.2297 -0.0413
17724W        W33193  11.528  15.493  11.891  0.2230 -0.0980 -0.1604
17725W        W33194  14.348  15.514  11.434 -0.1591 -0.0461 -0.2821
17726W        W33195   0.656   8.894   5.938 -0.0353  0.0747 -0.1464
17727W        W33196   6.357  17.856   0.283  0.2643 -0.0473 -0.0953
17728W        W33197   2.267  12.286   1.244  0.0331  0.1391 -0.0239
17729W        W33198   4.716   1.813   1.456 -0.2995  0.0437 -0.0089
17730W        W33199  11.964  14.097   2.139 -0.0111  0.0539 -0.2060
17731W        W33200  14.290  14.105   5.564  0.3406 -0.2017  0.0420
17732W        W33201   2.902   1.368   4.939 -0.0776  0.2016  0.1140
17733W        W33202   2.124   5.651  14.137  0.0832  0.3215  0.1475
17734W        W33203  13.296  10.082   3.949 -0.1023 -0.0408 -0.0378
17735W        W33204  13.577   1.687   1.093  0.0668  0.2261  0.2151
17736W        W33205  12.991   6.267  11.270 -0.0896 -0.2596 -0.1962
17737W        W33206  14.579   5.399  16.133  0.2553 -0.0535  0.0745
17738W        W33207   9.035  11.315   3.453 -0.0861  0.1474 -0.0407
17739W        W33208   4.176   9.839  13.343  0.1350  0.0332  0.2221
17740W        W33209   4.900   4.318   1.638  0.0491 -0.0285  0.2350
17741W        W33210  17.955   4.780  14.776 -0.1505 -0.1902  0.1658
17742W        W33211   1.941   9.824   5.022  0.0764 -0.0438  0.2086
17743W        W33212  10.152  10.957  12.191 -0.3179 -0.3563  0.2358
17744W        W33213   1.528   0.435  14.387 -0.1067  0.0481  0.0153
17745W        W33214   9.595  13.017   1.850 -0.0634 -0.2025 -0.0067
17746W        W33215   0.151   5.729  12.755  0.0531 -0.0455 -0.0369
17747W        W33216   5.165   3.249  12.895 -0.4472 -0.1616 -0.1352
17748W        W33217   4.566  11.340   5.075 -0.0219  0.0735 -0.2359
17749W        W33218   9.404  12.341   4.024  0.2440  0.0331  0.2836
17750W        W33219   4.971  10.085  15.487 -0.1535 -0.2357  0.0177
17751W        W33220  17.465  14.139  15.741  0.2225 -0.1778  0.0233
17752W        W33221  15.665  15.747   0.298  0.2456 -0.1242 -0.1001
17753W        W33222   9.014  13.642  12.192 -0.3690 -0.0677  0.0618
17754W        W33223  18.245  16.439   5.027 -0.3422 -0.1809 -0.1904
17755W        W33224  13.458  15.452  15.906  0.1762  0.2141 -0.0274
17756W        W33225   3.478   4.924  13.763  0.4812 -0.0758 -0.0871
17757W        W33226  15.315  13.010   2.996  0.0538  0.0078 -0.2081
17758W        W33227  15.136  15.247   1.763  0.0465 -0.3773  0.1954
17759W        W33228  16.519   0.378   5.634 -0.0246 -0.1293 -0.0309
17760W        W33229   8.109   6.833   2.181  0.3864 -0.1481 -0.1439
17761W        W33230   2.057   2.162  15.959  0.0783 -0.0418  0.1098
17762W        W33231   5.322  12.408   0.378  0.0516  0.0266  0.0889
17763W        W33232   7.915  16.857   4.237 -0.0244  0.1474  0.0431
17764W        W33233   8.779   1.396  11.484  0.1274 -0.3544  0.0116
17765W        W33234  15.088  10.707   4.965 -0.2631  0.4350  0.0909
17766W        W33235  10.824   6.530  12.508  0.1807  0.0512 -0.1828
17767W        W33236  10.633  13.923  10.801 -0.0279  0.1722 -0.1362
17768W        W33237  14.726  13.337  10.350  0.3452 -0.1536 -0.0584
17769W        W33238  13.042  12.811   2.754 -0.3078  0.1057 -0.0781
17770W        W33239   2.585   9.840  15.454 -0.1876 -0.1754  0.0833
17771W        W33240   2.312  17.884  11.628  0.1235  0.0383  0.0965
17772W        W33241   4.101   6.266  12.282 -0.1703  0.1558  0.0853
17773W        W33242   0.090   8.680  15.420 -0.1339  0.0576  0.0832
17774W        W33243  11.736   5.059  14.768  0.0984 -0.2119  0.0885
17775W        W33244   8.186   7.223   1.063  0.1261 -0.3512 -0.0935
17776W        W33245   2.763   1.348  15.794  0.1750 -0.0867 -0.1327
17777W        W33246   0.202  14.987  12.644  0.1356  0.1155 -0.2176
17778W        W33247   9.761   8.138   0.819 -0.1228 -0.0079 -0.0816
17779W        W33248   6.943   1.161   4.025  0.0705  0.1630  0.3931
17780W        W33249  10.347   1.769   4.827  0.0893 -0.2924 -0.0467
17781W        W33250   4.283  17.130   3.191  0.3115  0.2187  0.2609
17782W        W33251  10.013  10.414   6.030 -0.0130 -0.0986 -0.2259
17783W        W33252  12.084   2.440   4.155  0.2485 -0.2773  0.0354
17784W        W33253   3.700  12.844  10.597 -0.0006  0.0974 -0.0014
17785W        W33254  16.388   5.718   3.174  0.2721  0.0369  0.2285
17786W        W33255   0.099   3.303  16.111  0.1288  0.0827  0.1860
17787W        W33256   8.792   4.517   1.216  0.2566  0.0852  0.3150
17788W        W33257   9.011  15.634   2.732 -0.6229 -0.2110 -0.1225
17789W        W33258   9.391  13.841   4.606  0.0155 -0.1436 -0.0509
17790W        W33259  15.064  13.040  12.235  0.2205  0.0406 -0.0285
17791W        W33260   8.858  15.000  15.767  0.3073  0.1915  0.2077
17792W        W33261   6.357  16.490   1.626 -0.0849 -0.1745 -0.4838
17793W        W33262  14.076   7.326  14.108  0.1366  0.0521  0.0065
17794W        W33263  11.558   0.320  11.685  0.3525 -0.1501 -0.1772
17795W        W33264   8.559   3.890  11.488 -0.1071 -0.2636  0.0362
17796W        W33265   6.899   3.927   5.469 -0.0575 -0.0469  0.0062
17797W        W33266   0.955   7.607  13.584  0.3059 -0.0288  0.0654
17798W        W33267  15.987  13.008   4.116 -0.3267 -0.0125 -0.0832
17799W        W33268  15.570   2.825  13.334  0.0636  0.0895  0.1302
17800W        W33269   7.780   6.861  15.706  0.1800 -0.2602  0.3739
17801W        W33270  14.899   6.510   0.982 -0.0672  0.1939  0.0806
17802W        W33271   7.062   6.802   2.046  0.1687  0.0901 -0.2339
17803W        W33272  11.104  17.076   5.597 -0.3129 -0.1898 -0.0365
17804W        W33273  12.459  11.028   4.932  0.0265 -0.1847 -0.2731
17805W        W33274   8.843   1.242  12.659 -0.2409 -0.1343 -0.1833
17806W        W33275  17.716   6.336   4.000  0.2405  0.1703 -0.0214
17807W        W33276   6.015   5.474   0.476  0.0186  0.1083  0.1105
17808W        W33277  15.814  13.808   4.122  0.0709  0.0165 -0.2203
17809W        W33278   1.950   2.954   1.131  0.1525 -0.0912 -0.2516
17810W        W33279   9.506  15.262  14.893  0.1731 -0.1942  0.2808
17811W        W33280  15.026   7.069   5.188 -0.1617  0.2366  0.0666
17812W        W33281  11.145  11.723  15.738  0.0582 -0.2118  0.1738
17813W        W33282  12.961   2.822   4.133 -0.0272  0.0352 -0.0336
17814W        W33283  11.189  14.446   3.781  0.0412 -0.2456  0.0309
17815W        W33284   2.959   6.745   5.835  0.0891 -0.1680  0.3037
17816W        W33285  12.377  17.596   4.446 -0.0246 -0.3225 -0.3439
17817W        W33286   6.690  12.967  11.092 -0.0540  0.0565 -0.0203
17818W        W33287  10.506   6.366  13.923 -0.3290  0.0790  0.0513
17819W        W33288  17.394   9.825  15.824  0.2560  0.2355  0.1956
17820W        W33289  15.034   7.432  14.665 -0.1218 -0.0598 -0.2135
17821W        W33290   5.408  17.023  14.626 -0.2254  0.1420 -0.1275
17822W        W33291   5.646  16.479   3.585 -0.0458 -0.1075 -0.2078
17823W        W33292   8.175   7.441  13.300  0.0874 -0.1276 -0.0382
17824W        W33293   0.339   3.261   4.446  0.3537 -0.0520  0.3499
17825W        W33294  12.933   5.189   5.465 -0.1582 -0.1174 -0.2371
17826W        W33295   3.664   8.990  16.034 -0.1758 -0.1912  0.2196
17827W        W33296   9.620   8.595  11.083  0.1548 -0.0357 -0.1141
17828W        W33297  16.817   9.311   1.260  0.1015 -0.0623 -0.0359
17829W        W33298   0.113   5.734   0.627  0.3525  0.2444 -0.0882
17830W        W33299  13.888  10.395  12.157  0.2133 -0.0566 -0.1694
17831W        W33300   7.962   2.755   0.637 -0.2487 -0.0445 -0.0024
17832W        W33301  14.333   8.284   9.910  0.0253  0.1756  0.0428
17833W        W33302  16.439  17.644   5.177  0.2013  0.0990 -0.0567
17834W        W33303   2.363   0.082  15.785  0.2493 -0.1821 -0.1470
17835W        W33304   1.512  10.888   5.490 -0.0387  0.0133  0.0312
17836W        W33305  16.387   3.710   2.358  0.0567  0.0509  0.0103
17837W        W33306  13.607   9.139  13.731 -0.1759 -0.1246  0.3887
17838W        W33307  11.750   7.268   3.292 -0.1730  0.0655  0.0196
17839W        W33308   3.993   0.941   3.971  0.0791  0.0586 -0.2540
17840W        W33309  18.302   1.425   1.349  0.1805  0.1171 -0.1790
17841W        W33310   9.414   5.598  11.987 -0.1972  0.0346  0.0821
17842W        W33311   1.362   2.025  13.200 -0.0254  0.1704  0.0968
17843W        W33312   5.395  13.531   2.945  0.0377  0.0820  0.2508
17844W        W33313   0.942   2.083  10.004 -0.1446 -0.2773  0.1697
17845W        W33314  10.297   3.810  12.071 -0.1811  0.1405 -0.1887
17846W        W33315   3.785   5.984   0.869  0.0922  0.2809 -0.5356
17847W        W33316  10.311   9.501  12.105  0.0948 -0.2917 -0.0766
17848W        W33317   3.334  12.153   5.007  0.3386  0.0347 -0.0281
17849W        W33318   5.334   4.375   3.232 -0.1093  0.1061 -0.0125
17850W        W33319   1.173  15.836  14.550 -0.2130 -0.0713  0.3164
17851W        W33320   1.648   1.574  15.519  0.0853 -0.2904  0.1694
17852W        W33321  15.473   0.088  11.033  0.1362 -0.3844  0.1355
17853W        W33322  17.514   5.210   1.083  0.0172  0.2723 -0.2933
17854W        W33323  10.205  10.275   0.860 -0.1545  0.0262  0.1631
17855W        W33324   8.071  17.598  14.692 -0.1037  0.3390 -0.3325
17856W        W33325   0.897  14.127   0.500  0.2407  0.1863 -0.0429
17857W        W33326   0.208  10.614  15.311  0.0639 -0.0755 -0.1205
17858W        W33327  12.996   3.891   3.531 -0.0609  0.1214  0.0609
17859W        W33328   0.645   8.070   1.016  0.0551  0.0497 -0.1988
17860W        W33329  17.281   4.047   3.812 -0.1237  0.3215  0.0265
17861W        W33330  12.701   7.612  13.888 -0.0044  0.2167 -0.1236
17862W        W33331   9.794   8.352   1.832 -0.1803 -0.1482  0.1693
17863W        W33332  12.831  11.761   6.177 -0.0216 -0.3795  0.0619
17864W        W33333   2.478   7.630   3.996 -0.0420  0.0690  0.2746
17865W        W33334  12.696   9.201   2.396 -0.2024 -0.0613 -0.1711
17866W        W33335   7.187   5.670   3.856  0.2351 -0.0093 -0.1698
17867W        W33336   0.959  13.388  11.503  0.0205  0.1434  0.0254
17868W        W33337   7.194   2.963  16.047  0.1724  0.1350 -0.2507
17869W        W33338   8.902   0.365  10.954 -0.0085  0.0750  0.3223
17870W        W33339   7.836   6.094  14.874  0.0412  0.3188 -0.1624
17871W        W33340  10.134   8.200  13.921  0.0995 -0.0325  0.1503
17872W        W33341   8.995  13.613  11.698  0.1929  0.0030 -0.0933
17873W        W33342   8.600   2.396  14.966  0.3849  0.4098 -0.0990
17874W        W33343   3.429   4.425   0.470 -0.0030 -0.1398  0.0127
17875W        W33344   6.804   0.510  12.003 -0.2683  0.0934  0.2271
17876W        W33345   8.905   7.578  10.943 -0.1369 -0.1451 -0.1420
17877W        W33346  17.876  15.129   5.873  0.2317  0.2188 -0.2821
17878W        W33347  10.113   5.602   1.151  0.1973  0.2172  0.1754
17879W        W33348  14.076  15.528  16.064  0.1914 -0.0074  0.1247
17880W        W33349  10.306  14.760   1.670 -0.0485 -0.1124  0.1122
17881W        W33350   2.329   2.876   5.458 -0.0087  0.0766  0.1982
17882W        W33351   9.641   1.070   0.651  0.0405 -0.0462  0.0648
17883W        W33352  11.393   6.908   5.066 -0.2607  0.0408  0.0204
17884W        W33353   6.435  10.448   1.105  0.0885  0.0036  0.2153
17885W        W33354   8.942  12.743  12.220 -0.1244  0.1434  0.0566
17886W        W33355  16.517  17.624  15.788 -0.5459 -0.0683 -0.0190
17887W        W33356  10.370  15.512  14.072 -0.0582  0.0199  0.0284
17888W        W33357   8.451  16.574   5.820 -0.1958 -0.2010  0.1405
17889W        W33358   0.536  10.459  11.786 -0.0336  0.0721  0.0998
17890W        W33359   7.305   9.133   4.621 -0.2365  0.2985 -0.2151
17891W        W33360   7.995  10.248  11.308  0.2939 -0.2372  0.2073
17892W        W33361   6.658   0.812  15.975 -0.1085 -0.1626  0.1415
17893W        W33362  14.176   1.300  12.529 -0.2663 -0.1412 -0.1979
17894W        W33363  15.097   0.832  14.055 -0.1546  0.0662  0.0830
17895W        W33364  13.297   6.915   5.795 -0.0074  0.2462  0.1840
17896W        W33365  10.152  12.364  14.023 -0.1805 -0.0124  0.1157
17897W        W33366   2.260   3.815  14.076 -0.0418  0.2912  0.0679
17898W        W33367   4.318  15.218   3.211 -0.0527  0.2087 -0.0401
17899W        W33368   6.275  11.499   2.688 -0.2587 -0.2630 -0.2392
17900W        W33369  10.083   6.928   4.063 -0.1548 -0.0802  0.2280
17901W        W33370  15.580   6.012  11.400  0.1747 -0.1951 -0.0922
17902W        W33371  11.092  14.283  14.038  0.1587 -0.1959  0.1523
17903W        W33372  17.952   0.546  13.345 -0.0045 -0.0075 -0.2706
17904W        W33373   8.190  17.766  12.222  0.0038  0.1466 -0.0755
17905W        W33374   6.966  10.706  11.264  0.1316 -0.0830 -0.3949
17906W        W33375   1.725  12.144   1.026 -0.0482  0.1392 -0.1938
17907W        W33376  17.008   0.538   1.847 -0.1376  0.3273  0.3078
17908W        W33377   6.222  16.973   1.932  0.1786 -0.2234  0.1364
17909W        W33378  14.346  12.133  11.603  0.0619  0.1172  0.0062
17910W        W33379  10.763   3.506  11.096 -0.0936 -0.1701  0.0662
17911W        W33380   4.849  10.535  13.043  0.1796  0.1567  0.1593
17912W        W33381   5.841  11.125  10.895  0.0972  0.4967 -0.2228
17913W        W33382  13.526   8.947  12.089  0.1043  0.0315  0.1407
17914W        W33383   5.558   5.923   5.330 -0.0025 -0.0616 -0.0911
17915W        W33384  13.665  14.856   2.389 -0.1665 -0.1398 -0.0415
17916W        W33385   6.132  10.932   5.578 -0.2112  0.0731  0.1072
17917W        W33386   1.478  17.427   3.866  0.2492 -0.0991  0.2131
17918W        W33387   9.569  14.281   5.011 -0.1151 -0.0764 -0.0666
17919W        W33388   8.025  17.757   0.300 -0.2354  0.2347 -0.4127
17920W        W33389  13.286  12.656   3.186 -0.0079 -0.0137  0.0867
17921W        W33390   0.254  12.578   2.660 -0.0340 -0.1582 -0.0265
17922W        W33391   9.131   6.614   3.097 -0.1973  0.0553 -0.2012
17923W        W33392   0.382   1.559  15.293 -0.1934  0.1047  0.0551
17924W        W33393   5.768  12.356   3.248  0.3259 -0.0535 -0.0211
17925W        W33394  17.359   4.699  12.019  0.1275  0.4120 -0.1983
17926W        W33395  14.128   0.451   0.451 -0.0136  0.0631 -0.1337
17927W        W33396   1.606   7.149   1.113  0.0529  0.2697 -0.1025
17928W        W33397   4.277  17.851  12.936  0.0782  0.2336  0.1042
17929W        W33398  13.377   4.011   4.635 -0.1871 -0.2940 -0.2475
17930W        W33399   3.171  14.054   1.506 -0.0653 -0.4866  0.2916
17931W        W33400  13.816   2.934   2.559 -0.0206 -0.2249 -0.0213
17932W        W33401   3.122  15.247   1.420 -0.0586 -0.2254  0.1845
17933W        W33402  17.173   6.073   0.192  0.0557  0.1414 -0.3442
17934W        W33403   7.398  12.122   4.082  0.2170  0.1441 -0.2182
17935W        W33404   2.657  11.778  15.611  0.1792 -0.0821  0.1316
17936W        W33405   2.155  12.516  11.161  0.3158  0.0833  0.2449
17937W        W33406  16.140   7.886  14.925  0.0581  0.1773 -0.1190
17938W        W33407   7.304   1.215   0.578  0.0426  0.1048 -0.4276
17939W        W33408  14.838   5.193   4.007  0.1273  0.1086  0.0985
17940W        W33409   1.260  14.809   1.827  0.0629  0.4849 -0.1800
17941W        W33410   3.279   8.158   1.143 -0.3528  0.1461 -0.1071
17942W        W33411  15.271  17.926  12.439 -0.4140  0.1331  0.0652
17943W        W33412   3.879   0.746  10.404  0.1845  0.1026 -0.2327
17944W        W33413   7.212  17.567   3.269 -0.1190 -0.0924  0.1482
17945W        W33414   8.616   6.962  12.542 -0.1216 -0.1081  0.1408
17946W        W33415  14.537  12.642   0.368  0.0080 -0.2039  0.1986
17947W        W33416  12.308  12.646  11.833 -0.1265 -0.0882 -0.2686
17948W        W33417  15.148  11.144  10.972  0.1248  0.2861  0.0958
17949W        W33418  12.618  14.395   0.379  0.0556 -0.1758 -0.1818
17950W        W33419  14.195  13.010  13.360  0.1983 -0.1566  0.2371
17951W        W33420   4.791   0.083  14.918  0.3605 -0.1097  0.1479
17952W        W33421   2.497   2.844   2.802  0.1537 -0.2376  0.0478
17953W        W33422   0.717   2.408   4.280  0.2033  0.1564 -0.6294
17954W        W33423   8.648  14.623   2.997 -0.2894  0.0529 -0.0423
17955W        W33424   0.407  12.307  13.196  0.2260 -0.0155 -0.0474
17956W        W33425   6.887  14.573   3.214  0.1103  0.4187  0.2196
17957W        W33426   6.455   5.822   2.835  0.2341 -0.1953  0.1412
17958W        W33427   3.917  14.421   2.732 -0.1691 -0.1012  0.1422
17959W        W33428  12.726   7.031  14.244  0.3410 -0.3101  0.2229
17960W        W33429  10.246   3.912   4.002  0.1395  0.0317  0.0582
17961W        W33430   7.681  10.222   2.212 -0.1506 -0.0534 -0.0281
17962W        W33431   3.984   0.848   0.726 -0.0983 -0.2810 -0.1077
17963W        W33432  17.511   9.107   3.864  0.4756  0.1529  0.3721
17964W        W33433   3.490   9.416   3.893  0.1830 -0.2602  0.0079
17965W        W33434  17.827   8.347  12.988 -0.2161  0.2364  0.2900
17966W        W33435   3.769  17.708  12.590  0.0843 -0.1356 -0.1116
17967W        W33436   7.898   5.172  12.696 -0.0804 -0.0803  0.1676
17968W        W33437   3.654   7.561   4.036 -0.0036 -0.1564 -0.3947
17969W        W33438  11.073   1.132  15.158 -0.0517 -0.5221 -0.0096
17970W        W33439  18.156  14.367   5.269  0.1823  0.0789 -0.2783
17971W        W33440   8.712   3.476   1.087 -0.4340  0.0685  0.0996
17972W        W33441  17.559   9.063  11.716  0.3317 -0.0856  0.1413
17973W        W33442   6.892  11.424  15.104  0.1460 -0.3064 -0.1593
17974W        W33443  10.727  11.234  16.092  0.2151  0.3484  0.1536
17975W        W33444   0.490  17.531   5.544 -0.2094 -0.2162  0.2121
17976W        W33445  11.673  17.073   2.023  0.0501  0.1653  0.1413
17977W        W33446   5.186   6.842   1.518  0.1265  0.0272  0.0317
17978W        W33447   3.723   5.774   6.734  0.2063  0.1055  0.0006
17979W        W33448   2.949   4.286  10.318 -0.2191  0.3847 -0.2785
17980W        W33449  17.628   8.950   4.848 -0.0869 -0.0103  0.2661
17981W        W33450   4.488   9.227   0.433  0.0200  0.1810 -0.3928
17982W        W33451   3.250  12.328  14.491  0.1351  0.3148  0.0777
17983W        W33452  11.740  10.317  10.832  0.0069  0.5080 -0.2001
17984W        W33453  10.530   0.422   3.885 -0.0076  0.2302  0.0575
17985W        W33454   0.093   2.619   9.933 -0.0992  0.0140  0.1112
17986W        W33455   3.660  14.363   0.861  0.0239 -0.0622  0.0899
17987W        W33456  17.557  12.089  13.249  0.1600  0.1887  0.0115
17988W        W33457   2.331   6.950   1.727 -0.4372  0.1128  0.2307
17989W        W33458   8.803   1.975  11.291 -0.0567 -0.2098 -0.2143
17990W        W33459   6.998   3.552  15.868  0.0403 -0.1606  0.1460
17991W        W33460   0.237  15.787   3.300  0.2702  0.2166  0.1667
17992W        W33461  15.618   9.486  14.706  0.3311  0.0680 -0.1579
17993W        W33462   5.278   6.391   5.406 -0.1268 -0.4188 -0.1708
17994W        W33463   1.223   4.525  13.366  0.1237 -0.3074  0.0710
17995W        W33464   0.865   9.488   0.263  0.0011 -0.0517  0.0059
17996W        W33465  11.316   7.138   2.616  0.0203  0.4369 -0.0271
17997W        W33466   5.468  10.054   2.068 -0.2902  0.2099  0.2114
17998W        W33467   6.636   8.580   3.658  0.1133 -0.0263  0.0095
17999W        W33468   9.080  12.264  13.077  0.2417  0.2779 -0.1066
18000W        W33469  16.766   8.430   2.054 -0.1310 -0.0793 -0.1644
18001W        W33470   9.438  13.677  14.897  0.0529  0.1157 -0.0621
18002W        W33471   2.800  17.148  11.544  0.1457  0.0062  0.0397
18003W        W33472  17.632  14.608  15.944 -0.3519  0.3032 -0.0332
18004W        W33473  16.434   2.757  12.971 -0.0052 -0.1787  0.1401
18005W        W33474   7.244  14.377  10.530 -0.0963 -0.0106 -0.1346
18006W        W33475   9.387   9.698  13.908 -0.5059  0.0275  0.0996
18007W        W33476  14.017  12.057   1.415  0.0269 -0.1262  0.0975
18008W        W33477   2.849   0.231   3.732  0.2089 -0.4608 -0.3837
18009W        W33478  15.132  10.650   1.821  0.4467  0.1215 -0.5077
18010W        W33479  18.287  12.363   0.340  0.2887 -0.1438 -0.5138
18011W        W33480   9.484   8.926   1.384  0.0761  0.0820  0.1940
18012W        W33481  15.065   4.796   0.715 -0.2472  0.1094  0.0905
18013W        W33482  13.660   7.410   3.563 -0.2538 -0.0895  0.0512
18014W        W33483  15.652  15.233   2.567  0.1278  0.3383  0.2154
18015W        W33484   1.525  16.039  13.050 -0.2530 -0.0608 -0.0612
18016W        W33485   3.608   5.591   1.633 -0.0826  0.2463 -0.2382
18017W        W33486  17.951  13.797  12.877 -0.0947  0.0021 -0.1589
18018W        W33487   4.124   6.576   5.034  0.0936  0.2010  0.3941
18019W        W33488   4.323  11.559  10.871 -0.3453 -0.0829  0.1046
18020W        W33489   9.417   0.163  11.715 -0.4495  0.0636 -0.2052
18021W        W33490   0.944  13.679   1.366  0.2389  0.3375 -0.4214
18022W        W33491   1.342  13.121   1.504 -0.1227  0.2407  0.0803
18023W        W33492  12.019   4.617   4.612  0.2086 -0.2190  0.3790
18024W        W33493   2.081  14.807  10.732 -0.0678 -0.0885 -0.0111
18025W        W33494  10.794   1.769   3.096  0.0567  0.0435  0.1078
18026W        W33495   7.057  15.342  12.868 -0.0846 -0.0222 -0.0088
18027W        W33496   5.054   2.313   3.336  0.1797  0.0579  0.0269
18028W        W33497   5.745   8.350   1.672  0.0926 -0.0564 -0.2232
18029W        W33498   3.314  16.255   0.982 -0.2038 -0.1038 -0.0660
18030W        W33499   3.019  18.122   4.016  0.1297  0.2800  0.1134
18031W        W33500  17.644  18.086  14.595  0.0815  0.1369 -0.0579
18032W        W33501   2.107  17.167   3.751  0.2964  0.1314  0.0505
18033W        W33502   5.212  13.932   3.851 -0.0389 -0.1154  0.0457
18034W        W33503   1.858   7.818   3.064  0.2079  0.0477 -0.1659
18035W        W33504  13.967  15.709  12.226  0.0887 -0.2743  0.1630
18036W        W33505   0.624  17.545  11.769 -0.0933 -0.4536  0.1231
18037W        W33506  12.847  13.894  11.587  0.1569  0.2983 -0.2181
18038W        W33507  18.131   5.941  15.366 -0.0011 -0.2293 -0.0464
18039W        W33508  14.589  14.794  13.687 -0.3180 -0.1133  0.0703
18040W        W33509  13.533  16.550   4.531 -0.3459 -0.1299 -0.0752
18041W        W33510   5.578   7.079   3.203 -0.1310  0.0233  0.0445
18042W        W33511  14.146   4.702   1.880  0.0000 -0.2323  0.1988
18043W        W33512   1.089   1.257   1.023  0.0088  0.0601 -0.1034
18044W        W33513  12.951  14.302  11.837 -0.1385  0.1152  0.0817
18045W        W33514  14.670   5.490  15.211 -0.1036 -0.2430 -0.0784
18046W        W33515  14.442   9.383  11.028  0.0991 -0.0731  0.0945
18047W        W33516  15.662  10.519  11.493 -0.2972 -0.0871 -0.1222
18048W        W33517   1.918   2.174   3.196  0.0905 -0.0824 -0.0239
18049W        W33518  13.163  11.812   4.136 -0.0540  0.0880  0.2227
18050W        W33519  16.627  17.518   0.979 -0.1671  0.1024 -0.0609
18051W        W33520  16.039  10.781  11.294 -0.1777 -0.0431 -0.0249
18052W        W33521  10.190   0.496  11.469 -0.1973 -0.2207 -0.0162
18053W        W33522   4.647  16.549  11.031  0.1686  0.2404 -0.2929
18054W        W33523   6.353  17.777  12.023  0.0368 -0.0659 -0.0594
18055W        W33524   1.910  10.659   5.417  0.1763 -0.3301  0.2975
18056W        W33525   4.451   3.632   3.466  0.1015  0.2377 -0.0048
18057W        W33526  16.681  10.477  11.350  0.0007 -0.2605  0.1644
18058W        W33527   9.544   2.882  11.471 -0.1383 -0.0173 -0.0305
18059W        W33528   4.302   5.606   6.102 -0.0355 -0.1101  0.0204
18060W        W33529  17.672   8.199   4.939 -0.1674  0.0897  0.1026
18061W        W33530  12.551   9.086   3.905  0.0898  0.3847 -0.1796
18062W        W33531  16.209   4.960   0.290 -0.3170 -0.0090  0.1126
18063W        W33532  11.570  10.637   4.179  0.0105 -0.0489  0.3507
18064W        W33533  18.021  17.152  14.957 -0.1340 -0.3161  0.1715
18065W        W33534  12.214  16.689  15.768 -0.2296  0.0457 -0.2431
18066W        W33535   7.176   0.617  11.006 -0.1284  0.1467  0.1878
18067W        W33536  17.109   6.428  11.623  0.0530 -0.4146  0.2722
18068W        W33537   8.394  11.339  11.782 -0.0136  0.3970  0.0177
18069W        W33538  17.806  16.580  13.324 -0.2655  0.0533  0.1427
18070W        W33539   1.123   4.067  13.203  0.1244  0.0032 -0.3029
18071W        W33540   5.132  13.309   0.115  0.1082 -0.0368 -0.1004
18072W        W33541  17.652   6.267  11.026  0.1861  0.0722  0.3573
18073W        W33542  12.620   7.533  14.390 -0.1124  0.1476 -0.0483
18074W        W33543   3.489   2.713  15.703 -0.0504 -0.2769 -0.3601
18075W        W33544   5.905  10.254  13.763 -0.0187  0.2705  0.0270
18076W        W33545   0.284   8.656   5.111  0.1238 -0.1317  0.1312
18077W        W33546  15.263   7.901  16.169  0.2989  0.2175  0.3091
18078W        W33547   3.223   4.666   1.458  0.0416 -0.3437  0.0465
18079W        W33548  15.676  11.483   5.154 -0.0554  0.0668 -0.1920
18080W        W33549   1.499  13.099   4.143  0.3228 -0.0084  0.0819
18081W        W33550   7.782  13.155   1.651 -0.1712 -0.2098 -0.1737
18082W        W33551   2.235   9.281   4.416 -0.0126  0.0602 -0.1597
18083W        W33552   1.819  12.920   2.622  0.0324 -0.1011 -0.1775
18084W        W33553  16.231  16.000  13.407  0.2860  0.0053 -0.0854
18085W        W33554  15.150   3.559   5.130 -0.1997 -0.0936  0.1204
18086W        W33555  17.874  13.333  12.090 -0.0882  0.0131  0.0561
18087W        W33556  16.756   0.830   0.004  0.0714  0.0895  0.1001
18088W        W33557  14.208   3.928   3.153  0.1525 -0.4016 -0.1360
18089W        W33558  16.579   2.023  11.150 -0.0157  0.3079 -0.3291
18090W        W33559  10.014   9.652  11.722 -0.0484  0.0934  0.0765
18091W        W33560   3.671  18.097  10.833  0.0838  0.2346  0.1984
18092W        W33561   0.369   1.525   0.734 -0.4159 -0.2505 -0.1164
18093W        W33562  15.716  10.510   1.521  0.1265  0.4645  0.2473
18094W        W33563   8.323   9.549  15.421 -0.0396  0.1289 -0.3406
18095W        W33564  17.587   0.479  13.713 -0.2854 -0.4615 -0.2757
18096W        W33565   7.893   1.563   1.597 -0.0291 -0.2070  0.3260
18097W        W33566   6.948   8.119   2.808 -0.0842  0.2632  0.0506
18098W        W33567   2.445   2.504  15.873  0.0715 -0.1766  0.0277
18099W        W33568   8.834   3.637  13.286 -0.0299  0.3339  0.1391
18100W        W33569  16.073   9.768   2.337  0.2939  0.2501 -0.0091
18101W        W33570  15.133   3.529  16.105 -0.1037  0.0559 -0.1033
18102W        W33571  12.323  14.891   2.768 -0.0941  0.0456  0.0084
18103W        W33572   8.014  12.312   0.946  0.2901 -0.1025 -0.2293
18104W        W33573   8.008   1.926   0.603 -0.0172 -0.3300 -0.2084
18105W        W33574   8.134   5.694  11.325 -0.1483  0.2484 -0.1239
18106W        W33575  10.208  14.029  15.181  0.1936  0.1031 -0.1801
18107W        W33576  17.781  13.335  10.092  0.2603  0.1288  0.0229
18108W        W33577   9.834  16.913   3.736  0.1899 -0.2330 -0.4901
18109W        W33578   8.192   9.161   1.887 -0.0345  0.2352  0.0328
18110W        W33579  11.689  15.190  13.838  0.1559 -0.1095  0.1498
18111W        W33580   1.809   6.114   2.001 -0.1896 -0.4384 -0.0384
18112W        W33581  17.642  10.707  11.799 -0.1169  0.1307 -0.2439
18113W        W33582  11.988   9.173  15.586  0.1169 -0.0256 -0.1347
18114W        W33583   0.470  13.471  13.706  0.1682  0.1446  0.0333
18115W        W33584   5.779   2.023  12.985 -0.0830 -0.0889 -0.0664
18116W        W33585  13.282   7.713  13.828 -0.0744 -0.0113 -0.2507
18117W        W33586  18.157   5.412   4.057  0.0186 -0.1477  0.0454
18118W        W33587   4.027   2.596   5.095  0.1572  0.0277 -0.1993
18119W        W33588   6.688  15.406  14.529 -0.0215  0.0731  0.0189
18120W        W33589   4.395   7.370   3.561  0.3152 -0.0790 -0.0093
18121W        W33590  14.347  16.790   2.792 -0.0669  0.1342  0.0757
18122W        W33591  11.359  12.862  10.461 -0.0810 -0.1799 -0.0807
18123W        W33592   5.788  17.964   3.251  0.0054  0.1849  0.1403
18124W        W33593   7.875   7.684   1.134  0.1209 -0.1582 -0.1523
18125W        W33594   5.915   4.765   4.397 -0.1701  0.0174  0.0048
18126W        W33595   6.459   6.186   0.783 -0.3489  0.1731  0.1656
18127W        W33596  11.564   1.418  15.679  0.0867  0.0611  0.0574
18128W        W33597  10.414   8.424  15.401 -0.0362  0.1335 -0.1167
18129W        W33598  16.745  12.277   3.951  0.2145 -0.2234 -0.1656
18130W        W33599   1.055  10.266   1.748  0.1293  0.1153 -0.3257
18131W        W33600   2.482  14.679   4.160 -0.0568 -0.0153  0.0595
18132W        W33601   0.571  14.781  12.390 -0.0699 -0.1330 -0.2551
18133W        W33602   9.836   6.233   1.822 -0.0632  0.1845 -0.2204
18134W        W33603   5.715  14.803   2.571  0.0692 -0.1997  0.1158
18135W        W33604  15.707   8.983  11.700 -0.2851 -0.4849 -0.3818
18136W        W33605   1.596   3.289  15.280  0.3143  0.2964  0.1352
18137W        W33606  16.772  17.811  14.404  0.1360  0.0747 -0.1844
18138W        W33607   6.597   0.743   2.055  0.0715  0.1043 -0.2039
18139W        W33608   2.415   5.898  13.820 -0.3596  0.2460  0.1199
18140W        W33609  15.413  13.696   1.877  0.1943  0.5330 -0.2234
18141W        W33610   1.174  12.011   4.786  0.1083  0.0307 -0.0644
18142W        W33611   8.495   0.216  12.269  0.0649  0.0852  0.4424
18143W        W33612  15.898   2.498   1.784 -0.1429 -0.2826  0.3097
18144W        W33613  12.954   9.817   0.447 -0.1488  0.0887  0.0919
18145W        W33614   6.192   3.419   0.506 -0.0903 -0.2296 -0.0471
18146W        W33615  16.097  11.460   2.112  0.1108 -0.2303 -0.1310
18147W        W33616   7.042   7.393   4.638 -0.0323 -0.0622  0.0618
18148W        W33617   6.404   6.521  11.218 -0.0309  0.0734 -0.0018
18149W        W33618  14.893  17.300   1.033 -0.1251 -0.0964  0.0315
18150W        W33619   7.192  15.596   1.685 -0.1855 -0.3257 -0.0315
18151W        W33620  18.126  11.357   1.576  0.0152 -0.1335 -0.0561
18152W        W33621   5.695  15.305   2.083  0.1014  0.2622  0.1914
18153W        W33622   7.522   7.802   4.376  0.0119 -0.0267  0.1806
18154W        W33623  12.927  15.399  13.988  0.0082 -0.2637  0.4580
18155W        W33624   0.384  12.093  11.773  0.2101  0.0889 -0.1414
18156W        W33625   1.790  18.056  13.105  0.0961 -0.0464  0.0329
18157W        W33626  16.396  14.367  13.578  0.0804 -0.2390 -0.2668
18158W        W33627  13.028   4.072   5.153  0.2902  0.0402  0.0651
18159W        W33628   1.103   4.822  13.732  0.1648 -0.2149  0.3504
18160W        W33629  16.962   8.696   4.652  0.1896  0.1334 -0.0905
18161W        W33630   2.908   4.109   5.556 -0.1500 -0.2110 -0.0625
18162W        W33631  11.053   2.775   1.232 -0.1973  0.3027  0.3172
18163W        W33632   6.796   0.926   1.426 -0.0156  0.2290  0.1133
18164W        W33633  14.790  14.800  12.495 -0.1342 -0.0274 -0.1472
18165W        W33634  15.594   2.039  13.267 -0.2124  0.2343 -0.2585
18166W        W33635  17.809   2.991  14.372 -0.4715 -0.0040 -0.2947
18167W        W33636  11.580  15.154   0.485  0.2539  0.2413  0.0754
18168W        W33637   3.506   2.460  12.218  0.2252  0.0289 -0.2716
18169W        W33638  13.633   0.115   4.068  0.2996  0.2227 -0.0663
18170W        W33639   9.402  10.432  11.838 -0.1983  0.0178 -0.2587
18171W        W33640   6.507  16.769   3.527 -0.2983 -0.0710 -0.0398
18172W        W33641   2.113   9.463   5.941  0.0211  0.1099  0.2296
18173W        W33642   1.421   9.691  12.860 -0.3145  0.1092  0.1389
18174W        W33643  13.530   4.216   2.275  0.0423  0.0283 -0.3767
18175W        W33644   6.397   5.491   1.801 -0.2781  0.1885  0.2957
18176W        W33645  12.323   3.031   0.949 -0.0961 -0.1998  0.3844
18177W        W33646   3.536  15.741  15.314 -0.0714 -0.1860 -0.0547
18178W        W33647   1.498   5.648   1.818 -0.1658 -0.0391  0.4025
18179W        W33648  12.412  10.984  11.846 -0.2351 -0.5450  0.0682
18180W        W33649  13.202  14.954  10.243 -0.1150  0.0156  0.1139
18181W        W33650  16.805  12.060  15.019  0.2094 -0.1990  0.1794
18182W        W33651  12.258  17.548   0.998 -0.0332  0.0022 -0.3013
18183W        W33652  14.328  17.549   4.859  0.2700  0.1407  0.2392
18184W        W33653  15.675   8.630   3.049  0.0608 -0.1872  0.1779
18185W        W33654   5.584   2.543  13.318  0.1276  0.1556  0.0693
18186W        W33655   0.441   0.603   0.601  0.2952 -0.1148 -0.1007
18187W        W33656  11.715  10.105  11.345  0.0264 -0.3761  0.2336
18188W        W33657  11.708   5.731   2.755  0.1674  0.1745 -0.0452
18189W        W33658  14.678   1.981  14.231 -0.1855  0.0243 -0.0952
18190W        W33659  15.557  15.936   4.958  0.4416  0.2261 -0.0542
18191W        W33660   1.522   6.892   0.655 -0.2875 -0.0911 -0.1343
18192W        W33661   4.091   2.371  11.386  0.2317  0.1284 -0.1301
18193W        W33662   1.094  10.194  15.759  0.1296 -0.0188 -0.1162
18194W        W33663  12.017   3.822   3.506  0.0963  0.1205  0.2070
18195W        W33664  17.266   8.331  11.771  0.1277  0.0686  0.1862
18196W        W33665   8.736   8.711  15.546 -0.1979 -0.1804 -0.1334
18197W        W33666  10.117   8.829   3.263 -0.1553  0.2127  0.2255
18198W        W33667   1.513   2.744   5.098  0.2815 -0.1001  0.0298
18199W        W33668  11.796  10.108   5.261 -0.3401  0.3145 -0.0595
18200W        W33669   8.351   9.265  11.841  0.0298  0.1216 -0.1068
18201W        W33670  15.353   1.021   3.744 -0.1229 -0.0798  0.0143
18202W        W33671   1.607   4.191  13.198  0.0937 -0.3356  0.3146
18203W        W33672  13.056  17.709  14.662 -0.2559 -0.1635  0.1063
18204W        W33673  17.405   6.538   0.995 -0.0809 -0.0820  0.1592
18205W        W33674  17.960   1.323  12.231  0.0119 -0.1457 -0.0316
18206W        W33675   2.420  17.826  10.489  0.0116 -0.1654 -0.2327
18207W        W33676  17.988  14.962   3.124  0.0386  0.1831 -0.1342
18208W        W33677   2.048   2.409  12.374 -0.2479 -0.0430  0.0900
18209W        W33678  13.880  11.621   1.693 -0.0290  0.2098 -0.1682
18210W        W33679  15.349  16.948   4.284  0.1958  0.2492 -0.0956
18211W        W33680   8.304  12.941   4.685  0.5055  0.0559  0.1379
18212W        W33681  18.285  11.365   2.815  0.0065  0.0948  0.1203
18213W        W33682  14.274   0.636   2.220 -0.0626 -0.0131 -0.1731
18214W        W33683  10.328   3.777  13.469 -0.0899  0.0610  0.0460
18215W        W33684   3.430   2.681   3.801  0.0709  0.1964 -0.1672
18216W        W33685   6.137   2.038  14.504 -0.0780  0.0307  0.1427
18217W        W33686  13.078   5.353  15.819 -0.1055  0.2264 -0.2455
18218W        W33687  13.899   0.124  14.892  0.1255 -0.0252  0.0669
18219W        W33688   1.568   3.410   4.403  0.1251 -0.0495 -0.1828
18220W        W33689  14.360  16.251  12.079  0.2580 -0.0678 -0.1725
18221W        W33690   3.732  12.352   5.729  0.4197  0.0254  0.0105
18222W        W33691   1.313   9.366   0.927 -0.1712  0.1123 -0.1731
18223W        W33692   3.915   7.069   3.150 -0.0903  0.0061 -0.0642
18224W        W33693   9.355   0.976   3.916 -0.1512 -0.4125 -0.4496
18225W        W33694  16.787   4.303   4.045 -0.2083  0.0438  0.0058
18226W        W33695   2.976  12.310  14.084  0.1105 -0.3827  0.2288
18227W        W33696   7.621   1.739  13.759 -0.1453  0.0955  0.0744
18228W        W33697   4.709  10.686   1.923 -0.0949 -0.2507 -0.1782
18229W        W33698   2.941  14.671  13.694 -0.0201  0.0892  0.1213
18230W        W33699  14.143   0.367  14.367  0.3484  0.0234 -0.0504
18231W        W33700  15.066   7.465   2.415 -0.0496 -0.1939 -0.3328
18232W        W33701   1.789   1.752   0.823  0.0618 -0.0234  0.0834
18233W        W33702   2.070   1.252  12.223  0.0772 -0.4575  0.0447
18234W        W33703  15.927   4.590   4.178 -0.0085 -0.0735  0.4273
18235W        W33704  10.226   4.622   4.812 -0.2332 -0.1979  0.1375
18236W        W33705   1.329   7.029   5.960 -0.0529 -0.2046 -0.2500
18237W        W33706   9.516   8.898   2.225  0.1423  0.1319  0.1023
18238W        W33707   1.230  12.803   5.509  0.0675  0.2904 -0.1159
18239W        W33708  17.361   3.689   5.646  0.5446 -0.1127  0.1162
18240W        W33709   6.628   0.450   1.630  0.2256  0.0901 -0.2198
18241W        W33710   6.071   7.334   3.794 -0.1668 -0.0434 -0.1139
18242W        W33711  15.992   4.769  13.372 -0.1582  0.1454  0.2960
18243W        W33712   2.715   9.676   5.706  0.0154 -0.3722 -0.1085
18244W        W33713   5.390   2.042  11.496  0.3941 -0.2306 -0.2654
18245W        W33714   6.639   2.165   4.842 -0.3098 -0.1293  0.1288
18246W        W33715  13.508  11.668  14.514 -0.0154 -0.0251 -0.1097
18247W        W33716   2.751   1.762   0.234  0.1215  0.0564  0.2005
18248W        W33717   6.824   4.267   0.545 -0.1752  0.0544  0.0434
18249W        W33718  16.281   2.322   2.111 -0.1457 -0.0876 -0.0569
18250W        W33719   5.278  16.991   4.217 -0.0059 -0.1899  0.0684
18251W        W33720  11.575  10.748  14.342  0.0746 -0.0994 -0.0219
18252W        W33721  10.296   8.013  12.961  0.0307 -0.0646  0.0470
18253W        W33722  15.818   2.209  15.125 -0.1360 -0.0291  0.3254
18254W        W33723   5.916   8.739   4.255 -0.0283 -0.0739 -0.4093
18255W        W33724  14.855   6.963  12.263 -0.0579 -0.0288  0.0565
18256W        W33725  17.331   5.954   5.068 -0.0106  0.2168  0.1856
18257W        W33726   7.980  10.773  11.074 -0.4370 -0.1694  0.2807
18258W        W33727   4.597  14.259   3.354  0.0212 -0.2426 -0.0009
18259W        W33728  12.249  13.205   5.359  0.0867 -0.0019 -0.1693
18260W        W33729  16.155   5.094   4.099  0.3003 -0.1536  0.4199
18261W        W33730  13.817  13.839  11.913 -0.0311 -0.1282  0.3430
18262W        W33731  10.317  16.377   5.605 -0.1393 -0.1178  0.0000
18263W        W33732   7.116   7.879  11.368 -0.2296  0.2318  0.0530
18264W        W33733   9.329  15.937  11.228  0.2387  0.0986 -0.3865
18265W        W33734   7.142  11.633   3.780  0.1394  0.1170 -0.0238
18266W        W33735  12.293  15.865  15.786 -0.0014  0.2074 -0.0563
18267W        W33736  11.081   2.141   3.240  0.3215  0.2978 -0.2597
18268W        W33737   4.213  17.172  12.222 -0.1444  0.2182 -0.0177
18269W        W33738  14.432   4.153   4.011  0.1547  0.2646  0.2277
18270W        W33739   3.916   1.812  15.356 -0.0213  0.1088  0.2201
18271W        W33740  17.525   1.510  10.707 -0.0386  0.2359 -0.0648
18272W        W33741   8.924  17.794  12.684 -0.0506  0.1573 -0.1073
18273W        W33742   2.080   5.139   2.326 -0.2028  0.0834 -0.6466
18274W        W33743  11.503   1.990  13.856 -0.0871 -0.1201  0.0250
18275W        W33744  11.648  12.380  12.176 -0.0721 -0.0489  0.0310
18276W        W33745   3.870   5.267  11.313  0.0993 -0.0865  0.1076
18277W        W33746   3.827  11.675   2.827 -0.0223 -0.0218 -0.2266
18278W        W33747   8.454   3.148  15.515  0.3865  0.3225  0.1467
18279W        W33748   6.735   3.931   6.261  0.3233  0.2870  0.2931
18280W        W33749  17.770  13.574  13.588 -0.1289 -0.0369  0.1467
18281W        W33750   5.582   6.402  14.028 -0.1756  0.0160 -0.0260
18282W        W33751  14.492  13.796   3.499  0.0430  0.0327  0.3261
18283W        W33752  17.104  12.455   5.134  0.0940 -0.2704  0.1565
18284W        W33753   6.683   0.202   4.263 -0.0007 -0.1210 -0.0808
18285W        W33754   3.833   8.736   4.656  0.0810 -0.1182  0.0952
18286W        W33755   2.267  16.392   4.592 -0.1232  0.0899  0.1691
18287W        W33756   3.735   1.380  11.241  0.1247 -0.1025  0.3227
18288W        W33757   5.856  14.772   4.447  0.1824 -0.2271  0.0577
18289W        W33758   9.719  14.071  12.313 -0.0526 -0.2412  0.2318
18290W        W33759   8.799  18.117   1.537  0.1400 -0.3533 -0.0708
18291W        W33760  11.574  13.770  10.678  0.3255 -0.2145  0.1682
18292W        W33761   5.122  11.959   1.963  0.0873 -0.0894  0.4837
18293W        W33762  10.537   9.392   0.782 -0.4570 -0.0443 -0.0722
18294W        W33763  13.680   3.927  11.335 -0.0320  0.1397 -0.2607
18295W        W33764   9.511  18.011  14.079 -0.0672  0.1119 -0.0883
18296W        W33765  17.565  12.503   2.751 -0.0070  0.1649  0.0098
18297W        W33766   3.663  11.356   1.532 -0.0525 -0.1482  0.1233
18298W        W33767   3.483   3.100   5.628  0.0218 -0.3951  0.0469
18299W        W33768   4.405  10.599   4.154 -0.0437  0.3099 -0.3185
18300W        W33769   9.894  15.913  15.387 -0.0431  0.1437 -0.1838
18301W        W33770   2.280  10.194  12.441 -0.2399 -0.0124  0.1843
18302W        W33771   6.079   6.136   2.790  0.0106 -0.2717 -0.1198
18303W        W33772  12.358   5.538   6.063  0.1464 -0.0965 -0.0538
18304W        W33773  13.349   6.372  13.888  0.3361 -0.1336  0.0088
18305W        W33774  13.632  13.264   4.562 -0.0953 -0.1358  0.4051
18306W        W33775  17.626  17.072   1.283 -0.4784  0.3814  0.0895
18307W        W33776   3.808  13.408   4.638 -0.1257 -0.0529 -0.0807
18308W        W33777   7.987   5.196   2.034 -0.2688 -0.0425 -0.0807
18309W        W33778   8.590  14.187  10.613 -0.0861  0.1546  0.0840
18310W        W33779  15.296  16.418   0.146  0.0049 -0.2450 -0.0556
18311W        W33780   1.390   8.196   4.467  0.0807 -0.0139 -0.4195
18312W        W33781  16.658   7.413   0.382 -0.0110  0.3114 -0.1777
18313W        W33782   6.901   6.126  12.302 -0.1301 -0.2112  0.0006
18314W        W33783  13.567  10.696  15.836  0.0094  0.0292 -0.0625
18315W        W33784   0.196   4.517   4.322  0.0788 -0.1307  0.0868
18316W        W33785  13.572  18.068   3.621  0.1509  0.0840  0.1518
18317W        W33786   3.965  12.558   1.859  0.0147 -0.1551 -0.1085
18318W        W33787   6.507  15.684  16.076 -0.1190  0.1601 -0.2398
18319W        W33788   4.488   0.234  14.132 -0.0949 -0.0854  0.1382
18320W        W33789   5.408   9.928  15.688  0.0274  0.1857 -0.1856
18321W        W33790   3.235   1.760  15.068 -0.0693 -0.0585 -0.0949
18322W        W33791   3.120   8.228   3.970 -0.3151 -0.3301  0.3164
18323W        W33792  12.481   0.781  15.586  0.3019  0.0711  0.0667
18324W        W33793  13.231   8.520  12.109 -0.0379  0.0376 -0.1964
18325W        W33794   8.503   0.970  11.741 -0.3228  0.1154  0.0575
18326W        W33795  16.945  10.430  13.504  0.0087 -0.5635  0.0587
18327W        W33796  11.539  10.879  11.785  0.0737 -0.2625 -0.0913
18328W        W33797   8.232   1.411  13.961 -0.0297  0.1491 -0.1580
18329W        W33798  15.108   5.950   1.942  0.1261 -0.1335  0.0143
18330W        W33799  18.057   6.251   4.396 -0.0715  0.1176 -0.3534
18331W        W33800  11.975  12.620   3.295  0.0162  0.0495  0.2763
18332W        W33801  10.999  10.202  12.818 -0.4689  0.0535 -0.2761
18333W        W33802   6.106  15.227   3.224  0.1379 -0.2314 -0.0187
18334W        W33803  17.851   3.418  13.999  0.1020  0.1802  0.0660
18335W        W33804  12.979  15.557  13.482 -0.5002 -0.0300 -0.1303
18336W        W33805  12.522   2.541  14.080  0.2471 -0.2717  0.1130
18337W        W33806  10.795  18.099  10.176 -0.3473  0.0864 -0.1835
18338W        W33807   0.612   5.689   0.498  0.1893  0.0190  0.1961
18339W        W33808   5.390  14.723   3.133 -0.2608 -0.4029 -0.1188
18340W        W33809  11.645   5.732  10.721  0.1843  0.0202  0.3445
18341W        W33810  16.197  16.686  14.855 -0.0435  0.1886  0.0340
18342W        W33811  13.317  12.739  11.225 -0.0380  0.0597  0.0573
18343W        W33812   7.033  17.796  12.780  0.1880  0.0382 -0.1716
18344W        W33813  16.480   4.138  12.884 -0.0896  0.1392 -0.0103
18345W        W33814  12.919   5.187  14.287 -0.2428  0.1559  0.0320
18346W        W33815   9.312   8.514   1.828  0.0093 -0.2654 -0.0141
18347W        W33816  13.515  17.671  13.278  0.3887  0.4216 -0.0840
18348W        W33817  15.895   3.256  15.864 -0.1483 -0.2370  0.1312
18349W        W33818  12.588   1.625   4.558 -0.1230 -0.1061  0.0555
18350W        W33819   3.107   0.495   5.066  0.0107 -0.3638  0.3516
18351W        W33820  12.060  15.732  13.383  0.3347 -0.0916 -0.0586
18352W        W33821  17.394   2.606   1.265 -0.0420  0.0963 -0.2548
18353W        W33822   0.869   4.617  12.500  0.1066  0.3588 -0.1064
18354W        W33823   2.662  17.696   1.383  0.2365  0.0028 -0.1168
18355W        W33824  12.743  11.280  13.936  0.0605  0.1603  0.0019
18356W        W33825  12.844   7.740   2.113  0.4296 -0.0992  0.0353
18357W        W33826   0.968   5.633   4.593  0.0582 -0.1327  0.2928
18358W        W33827   8.265   5.508  13.388  0.1252 -0.0864  0.0115
18359W        W33828   4.546  14.896  11.151  0.3480 -0.0395  0.0115
18360W        W33829  12.828   2.261  15.768 -0.0842  0.2283  0.0742
18361W        W33830   2.179  14.450  15.563 -0.3482 -0.2399  0.0613
18362W        W33831   1.156   6.134  16.064 -0.1565 -0.0834  0.3450
18363W        W33832  11.821   7.788   3.213 -0.0016 -0.0718  0.1239
18364W        W33833   6.242  17.259   2.867  0.1141  0.3537  0.2728
18365W        W33834  14.733  15.128   0.315  0.2093  0.3796 -0.0844
18366W        W33835   0.453   9.801  14.333 -0.0245 -0.2023 -0.0023
18367W        W33836   5.422   8.883  14.432 -0.0013  0.1335  0.4907
18368W        W33837  17.933   7.855  15.828  0.0513  0.0015 -0.0611
18369W        W33838   5.939   1.769   2.284  0.1649  0.1709 -0.1866
18370W        W33839  16.337  11.158  11.649 -0.0918 -0.2458 -0.0760
18371W        W33840   7.517  17.052   1.910  0.0988 -0.1529 -0.2081
18372W        W33841  17.896  11.001  11.413 -0.0547 -0.0949 -0.0051
18373W        W33842  13.558   5.600   4.225  0.1477 -0.0315  0.2078
18374W        W33843   7.382  12.884  13.342  0.0850 -0.0074  0.0681
18375W        W33844   5.119   3.761  12.828  0.1721 -0.2701 -0.1597
18376W        W33845   9.200   3.241   3.668  0.0876 -0.2004  0.1428
18377W        W33846   9.494   8.641   0.389 -0.0318 -0.0111  0.3589
18378W        W33847   8.765   9.755   0.709 -0.1156 -0.1260  0.2690
18379W        W33848   4.545  13.077   0.742 -0.1413 -0.0006 -0.2552
18380W        W33849  11.708  16.544  14.256  0.3123  0.0401 -0.0399
18381W        W33850  14.050  17.022  11.469  0.2215  0.0555  0.2243
18382W        W33851  13.583  15.884  14.500 -0.1534 -0.2100  0.2560
18383W        W33852   7.299  14.159   4.506 -0.1048 -0.2826  0.1656
18384W        W33853  17.070   8.839   4.198 -0.0140 -0.3294 -0.0258
18385W        W33854   0.467  12.464  13.789  0.0363  0.0686 -0.0638
18386W        W33855  14.362   6.532   3.989 -0.2160  0.0942 -0.0525
18387W        W33856   7.223   7.737  13.030  0.2254  0.1015 -0.0929
18388W        W33857  15.194   2.492   2.625  0.1678  0.1240 -0.1533
18389W        W33858  13.797   9.898  12.031 -0.0044 -0.0501 -0.0801
18390W        W33859   9.999   3.848   1.339 -0.0458  0.2559  0.0247
18391W        W33860   4.575   2.196   3.196 -0.2022 -0.3049 -0.1065
18392W        W33861  11.255  17.891   2.726 -0.1528  0.1587 -0.1287
18393W        W33862  13.814   9.706  11.558 -0.2203 -0.0243  0.1749
18394W        W33863   1.528   4.615   2.973  0.0114  0.0133 -0.2032
18395W        W33864  17.483   1.937   2.724 -0.1877  0.1774 -0.0578
18396W        W33865  11.329   4.979   3.839 -0.1696  0.0048  0.0539
18397W        W33866   3.976   0.457  14.950 -0.0201 -0.2828 -0.2743
18398W        W33867  13.269   8.469  11.359  0.1157 -0.1440 -0.0469
18399W        W33868  17.141   0.026   0.417  0.0123 -0.2463 -0.1175
18400W        W33869  11.243  16.740   2.914  0.1088  0.2965 -0.0214
18401W        W33870  14.915   1.104   4.501  0.2055 -0.0003 -0.0591
18402W        W33871   4.331   3.800   0.849 -0.0478 -0.0870  0.4650
18403W        W33872   6.260  12.010   0.264  0.2243 -0.0374 -0.2385
18404W        W33873  16.621  11.542   1.160 -0.0637 -0.5854  0.1445
18405W        W33874  14.456  17.663   1.876  0.1355 -0.0391  0.2298
18406W        W33875   0.969  14.485   1.353 -0.5143 -0.2745  0.2048
18407W        W33876   1.127  16.114  13.853 -0.1287 -0.1774  0.0138
18408W        W33877   8.872   1.269   3.016 -0.1040  0.1376  0.0944
18409W        W33878   5.164   9.764  16.082 -0.0658  0.0711 -0.0056
18410W        W33879   7.418   2.002  14.194  0.2780  0.1210  0.1488
18411W        W33880   6.886   6.257   2.120 -0.2601 -0.0624 -0.1585
18412W        W33881   3.276   1.576  10.929  0.1072 -0.0557  0.1112
18413W        W33882  18.141   4.777   2.064  0.0036 -0.0394 -0.0203
18414W        W33883   2.200   0.281   3.222  0.0687 -0.2851 -0.1554
18415W        W33884  15.453  10.545  13.399 -0.0325  0.0889  0.0357
18416W        W33885  17.105   9.591   3.093 -0.2443  0.1262  0.0143
18417W        W33886   2.709  11.389   4.189 -0.0474  0.2398  0.1626
18418W        W33887   3.724  10.479  13.978  0.0582  0.0846  0.0558
18419W        W33888  15.326   8.382  13.753  0.2000  0.2034 -0.0241
18420W        W33889   2.440  13.837   5.281  0.1592  0.2971 -0.2523
18421W        W33890   1.501   9.243  14.052  0.1738  0.0068 -0.0525
18422W        W33891  17.990  17.363   3.846  0.2849  0.2329  0.1982
18423W        W33892  11.439   1.369   1.116 -0.0541  0.3476 -0.0796
18424W        W33893   5.340  14.391  14.825  0.2189  0.1992  0.1132
18425W        W33894  10.325  16.346   2.697 -0.2609 -0.1183  0.1038
18426W        W33895  14.833   7.020  14.824  0.0854 -0.1149 -0.0810
18427W        W33896   3.079   6.462   1.838 -0.0917 -0.1088 -0.1962
18428W        W33897  11.205  13.233  14.646  0.0641 -0.0152  0.2068
18429W        W33898  12.923  16.555   1.343 -0.3254 -0.0859 -0.1092
18430W        W33899  13.713  16.121  13.781 -0.0910  0.3416  0.1115
18431W        W33900   5.442   7.071  15.896  0.1146  0.0439 -0.0666
18432W        W33901  13.500   5.053  11.281 -0.3079 -0.0313  0.0753
18433W        W33902  17.152  17.954   4.608 -0.0076  0.3587 -0.1768
18434W        W33903  12.325   3.316  12.269 -0.1027  0.0522  0.1251
18435W        W33904  16.254  17.631  13.520  0.4104 -0.1378  0.1667
18436W        W33905   4.032   5.600   3.128 -0.0567  0.0962 -0.2052
18437W        W33906  10.552  14.544  10.991  0.1997  0.1250 -0.0107
18438W        W33907  16.207  15.072   3.387 -0.0459  0.0756  0.0488
18439W        W33908  16.852  11.897   2.828  0.1584  0.0803 -0.0748
18440W        W33909   8.736  17.434   0.477  0.0001 -0.2088 -0.2372
18441W        W33910  12.912   6.370   2.719  0.4073  0.2591 -0.3538
18442W        W33911   2.771  17.021   0.777 -0.1804 -0.2630  0.0459
18443W        W33912  12.492  11.628   1.130 -0.1058  0.1940 -0.2689
18444W        W33913  14.690  10.118  12.628 -0.0152 -0.3011  0.0733
18445W        W33914   3.920  13.109  12.359  0.0933  0.0090 -0.0870
18446W        W33915   8.183  13.072  15.951 -0.1540  0.0968  0.1028
18447W        W33916   0.819   0.250  14.905 -0.0132  0.3305 -0.1914
18448W        W33917  17.441   6.316   0.529 -0.1768 -0.0565  0.1363
18449W        W33918   9.620   7.919  12.337  0.0200  0.0221  0.2713
18450W        W33919   2.840  10.133  14.137 -0.1014 -0.1643  0.1582
18451W        W33920  15.553   2.049  11.337 -0.0847  0.0035 -0.2322
18452W        W33921  11.408  14.747   4.663  0.2669 -0.0098 -0.0227
18453W        W33922   8.381   7.861  12.335  0.1130 -0.2189  0.2798
18454W        W33923  12.866  11.004   3.920  0.4056 -0.2305 -0.2912
18455W        W33924  16.690  14.868  12.674  0.1760 -0.1418 -0.1596
18456W        W33925   6.878  13.101   3.171  0.0295  0.0177 -0.1004
18457W        W33926  10.992   1.106  10.003 -0.3315  0.0286  0.1290
18458W        W33927  12.463  18.066  11.446 -0.3473  0.1841 -0.1353
18459W        W33928   3.385   8.151  14.946 -0.1983 -0.1232  0.0996
18460W        W33929  16.895  15.218  11.819  0.0059  0.0585 -0.0393
18461W        W33930   9.536  13.217   3.148 -0.1230  0.3946  0.1442
18462W        W33931   6.252   6.658  14.338  0.4817  0.5558  0.1564
18463W        W33932   8.078   4.773  13.604  0.0019 -0.2236 -0.3472
18464W        W33933   4.521  12.846  10.699 -0.1486  0.0742  0.0977
18465W        W33934  14.557   6.669  11.961 -0.1070  0.2014 -0.2292
18466W        W33935  16.534   1.474   3.512  0.1899  0.1245 -0.0672
18467W        W33936  10.303  18.097   6.065 -0.0932  0.1890 -0.0280
18468W        W33937   9.350   3.614  13.479 -0.0698 -0.1531  0.1402
18469W        W33938   5.843  17.819   5.286  0.2162  0.1402  0.0764
18470W        W33939   9.678  17.730   0.096  0.0898  0.4404 -0.2059
18471W        W33940   9.722  16.764  15.781 -0.1644  0.2981  0.1516
18472W        W33941   0.659  16.072  16.038  0.0582  0.1701  0.2857
18473W        W33942  16.434   7.201   3.180  0.0305  0.1493 -0.1710
18474W        W33943  16.596   2.121   4.735 -0.0637 -0.4167  0.0396
18475W        W33944  17.759   9.689  12.173 -0.1908 -0.0481 -0.1201
18476W        W33945   5.556   1.745  14.996 -0.0505  0.0589 -0.0601
18477W        W33946  12.868  17.255  16.173  0.0810 -0.0328  0.1329
18478W        W33947  15.510   9.051  11.036  0.0300 -0.2330  0.4804
18479W        W33948   7.488  17.719  11.225  0.0959 -0.0462 -0.5050
18480W        W33949  13.302  14.118   5.571  0.0346  0.3863 -0.0072
18481W        W33950  16.962   1.349   0.081 -0.3319 -0.0643 -0.0568
18482W        W33951  15.544   3.317   2.050 -0.2271  0.1660 -0.0867
18483W        W33952  12.801   7.915   1.141 -0.0566 -0.0740 -0.1588
18484W        W33953  14.807  10.402  10.690 -0.0119  0.0172 -0.0515
18485W        W33954  15.047  15.119   3.090  0.0394  0.2200  0.0078
18486W        W33955   1.549   2.743   1.030  0.0641 -0.3422  0.3922
18487W        W33956   1.556   3.790   4.758  0.1382 -0.1874 -0.0599
18488W        W33957   2.128  17.923  15.080  0.0528  0.3346 -0.0030
18489W        W33958  12.754   8.363  11.164 -0.0857 -0.1258  0.1876
18490W        W33959  10.884   1.784   4.872  0.4118  0.0708  0.0569
18491W        W33960   6.441  16.484   0.253  0.1294  0.0714  0.2526
18492W        W33961  16.062   5.141   0.756 -0.2059 -0.1035  0.0888
18493W        W33962  17.408   9.499   2.608 -0.0020  0.2491  0.0402
18494W        W33963   1.203   3.057   0.734 -0.3098  0.0692  0.2142
18495W        W33964  17.471  15.605   4.572 -0.0311  0.1194  0.0310
18496W        W33965   0.015   0.479  15.424  0.2354  0.2046 -0.5072
18497W        W33966   4.940  16.218   0.135 -0.1910 -0.0021  0.0203
18498W        W33967   0.826   8.307  16.032  0.0242  0.0713  0.0918
18499W        W33968   6.754  13.153  15.877  0.0370  0.0022  0.0861
18500W        W33969   4.429   8.402   3.927  0.2677 -0.1292 -0.2623
18501W        W33970   5.949   9.468  15.901 -0.4291 -0.0174 -0.2669
18502W        W33971  16.932   6.511  16.139  0.1058 -0.1701  0.0932
18503W        W33972   1.447   8.617   3.373 -0.0889 -0.0003  0.2766
18504W        W33973   0.700  17.695   5.063  0.2058  0.0927  0.0302
18505W        W33974  16.269   9.454  12.757 -0.0781  0.1452  0.1003
18506W        W33975   5.887   2.055   4.365 -0.4199  0.0530  0.0687
18507W        W33976   6.367   6.668  13.781  0.0055  0.1692  0.0287
18508W        W33977   2.660  11.627  16.077 -0.0702  0.2310  0.0526
18509W        W33978   4.995  13.936   4.300  0.2168  0.0626 -0.0670
18510W        W33979  10.984   9.709  15.556 -0.0874 -0.1681  0.4219
18511W        W33980   3.216   7.056  11.028  0.0578  0.0087 -0.1180
18512W        W33981   5.243  15.560   3.438 -0.0290 -0.0336  0.2829
18513W        W33982  10.737  12.989  13.054 -0.0037  0.3156 -0.0400
18514W        W33983   5.910  16.327  13.603  0.1121  0.3027  0.1381
18515W        W33984  18.038  13.303  13.082  0.0865  0.1547  0.1921
18516W        W33985   4.656   7.297   1.112 -0.1843  0.0908  0.1713
18517W        W33986  13.518  15.359   2.362  0.1657  0.1357  0.0139
18518W        W33987  16.369   9.001  13.659  0.0913 -0.0017  0.1192
18519W        W33988  12.428   2.729  12.306  0.0105 -0.0559  0.0322
18520W        W33989  14.525   9.912  15.869 -0.0511 -0.0826 -0.0666
18521W        W33990  11.126  13.981   1.416 -0.1474 -0.0542  0.0066
18522W        W33991  15.147  18.111  14.770  0.0188 -0.0827 -0.0873
18523W        W33992   1.361   4.370  11.354 -0.1792  0.2499  0.1307
18524W        W33993   4.493  16.871  12.569  0.2108 -0.0517  0.0304
18525W        W33994   0.540   2.131   3.847  0.2065 -0.1894  0.0525
18526W        W33995   2.529   4.750  15.737 -0.0010  0.0936 -0.2266
18527W        W33996  13.891   3.444   2.511  0.2688 -0.0258 -0.2926
18528W        W33997  16.318  17.862  11.980  0.0298  0.0614 -0.0856
18529W        W33998  14.778   1.646   4.573 -0.2081 -0.0028 -0.0928
18530W        W33999  18.268   0.442  11.027 -0.0294  0.1282 -0.1763
18531W        W34000  14.994  15.551  13.598 -0.1096  0.0529  0.0378
18532W        W34001   6.037   0.077   0.875 -0.0279 -0.0638 -0.0100
18533W        W34002  14.371  15.820  15.070 -0.2692  0.0314  0.1140
18534W        W34003  16.771   4.039  13.782 -0.0823 -0.1313 -0.1333
18535W        W34004   1.798  16.652   4.488  0.1215 -0.1344  0.2374
18536W        W34005   9.532   3.186  11.015 -0.1365  0.0840  0.3473
18537W        W34006  13.792  16.647  12.052 -0.2743 -0.4297  0.1090
18538W        W34007   7.125   7.196  14.764 -0.0840 -0.2116  0.0446
18539W        W34008  14.830   9.797  14.462  0.0618 -0.1819 -0.0313
18540W        W34009   0.804  12.375  14.272 -0.1424  0.0232  0.0304
18541W        W34010  14.250   1.024   5.704  0.0392  0.0293  0.0291
18542W        W34011  12.908  15.694  15.106 -0.0309 -0.2859  0.1068
18543W        W34012   5.973   9.515  12.151  0.2408  0.0410  0.1982
18544W        W34013  13.606   1.594  15.766  0.1134 -0.1501  0.1817
18545W        W34014  11.135  10.630   3.046 -0.0131  0.1612  0.2127
18546W        W34015   8.261   5.263   0.619 -0.1117  0.2870  0.1538
18547W        W34016  16.009   1.267  11.586  0.1000 -0.0552  0.0759
18548W        W34017   9.669   5.966   5.290 -0.0061 -0.1599 -0.3120
18549W        W34018   8.747   9.468  16.157  0.1744  0.1989  0.3256
18550W        W34019   3.558   0.840  15.532  0.3817 -0.0487 -0.3660
18551W        W34020  12.120  15.363  15.644  0.0135  0.4121 -0.1371
18552W        W34021  13.472   8.010  11.664  0.3175 -0.0753  0.1041
18553W        W34022  12.540   7.522  15.779 -0.0394 -0.0869 -0.2196
18554W        W34023   9.546   5.876  11.533 -0.4258 -0.1238 -0.2115
18555W        W34024   2.602  12.867  11.983  0.0798  0.2341 -0.1997
18556W        W34025  13.916  17.929   1.275  0.1902  0.2088 -0.0177
18557W        W34026  17.681  10.355   5.010 -0.2914  0.1259  0.2481
18558W        W34027  10.558   2.681   3.758  0.2404  0.0085 -0.2173
18559W        W34028  12.061   4.743  12.514  0.0259  0.1156  0.0128
18560W        W34029  15.827  12.968   1.382 -0.0822  0.0174 -0.0292
18561W        W34030   4.670   5.612   6.428  0.0483 -0.0319 -0.2377
18562W        W34031  13.921  12.872   4.749  0.4543 -0.3586  0.1726
18563W        W34032  11.959  14.476   6.038  0.4609  0.1293  0.1271
18564W        W34033   9.630   2.253  13.128 -0.0295  0.0292  0.0480
18565W        W34034   3.746   3.274   1.138  0.0910  0.4022  0.0265
18566W        W34035   8.862   1.366   4.779  0.0971  0.1138 -0.1500
18567W        W34036  16.308  17.572  12.587 -0.0631 -0.4183 -0.0165
18568W        W34037   4.613  10.828  13.386  0.0782 -0.4794 -0.1993
18569W        W34038  11.856  16.477   0.341 -0.1369 -0.2176  0.2387
18570W        W34039  14.210  13.731  11.556 -0.0577  0.1028 -0.2655
18571W        W34040  10.350  17.200  13.419 -0.1419 -0.1413 -0.4455
18572W        W34041  10.952  10.893   1.131  0.2142 -0.2187 -0.0299
18573W        W34042   8.433   9.578   4.635 -0.2962  0.2778 -0.0846
18574W        W34043  17.590  18.114  10.718  0.1373  0.0734  0.0886
18575W        W34044  10.865  16.175  14.518 -0.1191 -0.0913 -0.1420
18576W        W34045  14.857   0.523  13.744 -0.0795  0.0877 -0.1540
18577W        W34046  15.996  12.765  14.547  0.1214  0.0287  0.1410
18578W        W34047  15.437   4.129  10.833 -0.0624  0.2240 -0.0376
18579W        W34048  14.628  16.223   3.693 -0.1540 -0.2675  0.0670
18580W        W34049  14.736   6.677   2.572  0.1149  0.1036  0.1967
18581W        W34050  14.726   5.972   0.014 -0.1137  0.0178  0.3156
18582W        W34051   8.150   8.638   4.381  0.0256 -0.0338 -0.2016
18583W        W34052   1.043  15.623   0.287  0.2661 -0.1064 -0.2029
18584W        W34053  12.721   9.457  14.289 -0.3767 -0.1413  0.2193
18585W        W34054   4.329   2.734  13.498  0.2820  0.2158  0.5983
18586W        W34055   1.165  10.165   3.204  0.0335  0.2803 -0.2447
18587W        W34056  14.697   9.735   2.885 -0.2911 -0.1149 -0.1038
18588W        W34057   3.801  16.731  11.492  0.0031 -0.2649 -0.0248
18589W        W34058   8.540  16.852  11.474 -0.0019  0.2439 -0.2816
18590W        W34059   7.363   6.127  15.354  0.0238 -0.1710  0.0276
18591W        W34060   1.718  10.910  15.342 -0.2440  0.3359  0.0678
18592W        W34061   8.827   4.294  12.752 -0.1830 -0.0098 -0.1213
18593W        W34062   6.822   1.016   5.422  0.1849 -0.1830 -0.1385
18594W        W34063  14.305  13.195   3.813 -0.1394 -0.0610 -0.0844
18595W        W34064   4.067   6.918  15.994 -0.0394 -0.1014 -0.0061
18596W        W34065   6.889  11.659   1.938  0.0308  0.0323  0.2948
18597W        W34066   9.013  12.146   1.747 -0.0979 -0.2866 -0.1140
18598W        W34067  13.889  15.174   4.754  0.1180  0.2240  0.2332
18599W        W34068   3.273  12.473   2.232  0.2380 -0.1996  0.0214
18600W        W34069   7.763   1.018   1.389 -0.1772 -0.0727  0.0834
18601W        W34070   8.774   7.491  10.475  0.5139 -0.3045 -0.2755
18602W        W34071  15.407   8.577   2.586  0.3494 -0.3329 -0.1156
18603W        W34072   9.536   6.736  13.880  0.3506 -0.1297 -0.3920
18604W        W34073   9.989  17.436   1.884 -0.4425 -0.2183 -0.3549
18605W        W34074  16.698  10.046   0.126  0.1182  0.0015  0.1589
18606W        W34075   9.526   2.172   2.361  0.0076 -0.2163 -0.0293
18607W        W34076   4.296   0.460   1.654 -0.1729 -0.2146 -0.1237
18608W        W34077  12.374   7.474  10.897 -0.3196 -0.2373  0.1179
18609W        W34078   5.605   2.692   3.922  0.0172 -0.0438 -0.0256
18610W        W34079  11.242   5.265   1.055  0.0420 -0.1741 -0.0486
18611W        W34080   2.602   7.233   1.437  0.4510  0.1432  0.0928
18612W        W34081   7.536   2.394  11.896 -0.2098 -0.2187 -0.5096
18613W        W34082   3.952   6.610  12.617  0.2561  0.0029  0.0184
18614W        W34083  17.885   6.982  11.425  0.0480 -0.1379  0.2360
18615W        W34084   6.861  14.530  13.884 -0.0541  0.4784 -0.0974
18616W        W34085   1.355  16.778  13.520  0.2389  0.3665  0.2069
18617W        W34086  14.414   2.373   2.074  0.0723 -0.1112 -0.2471
18618W        W34087   4.249   2.298   4.105  0.0827 -0.3342  0.0472
18619W        W34088   6.062  17.992   4.914 -0.3826  0.1494 -0.6212
18620W        W34089   1.099   6.958   5.463  0.1648  0.1169  0.1818
18621W        W34090   8.225   6.189   0.631  0.3621  0.0523 -0.4943
18622W        W34091   7.275  13.064   1.746  0.0235 -0.0378 -0.1498
18623W        W34092  12.159  16.833   5.947 -0.2151  0.3948 -0.0012
18624W        W34093   1.624  11.635   1.880 -0.0711 -0.1379 -0.1402
18625W        W34094   0.054  17.539   0.608  0.0903 -0.0937  0.1176
18626W        W34095  11.441   5.387  12.231  0.1857 -0.3106 -0.1415
18627W        W34096   4.152  16.701   0.762  0.1965 -0.0200 -0.2442
18628W        W34097  14.435  10.600  13.360  0.2918 -0.1711  0.1001
18629W        W34098  13.279   1.091  12.758 -0.0264 -0.1003 -0.0975
18630W        W34099   1.327  14.722   3.300  0.2000  0.4099  0.0492
18631W        W34100   6.373   9.898   0.637  0.0265 -0.0797 -0.1458
18632W        W34101   8.404   1.395  15.535  0.0025  0.1477 -0.0011
18633W        W34102   8.816  12.233   4.934  0.1120 -0.2146  0.0436
18634W        W34103  16.236   9.257   3.602 -0.4655  0.0282  0.1185
18635W        W34104   4.572  10.401   2.962  0.4984  0.0859  0.0199
18636W        W34105   1.964  13.759   3.014 -0.1603 -0.0454  0.1309
18637W        W34106  10.662   9.436  14.310  0.1428  0.2895  0.1463
18638W        W34107   6.828  11.967  14.240  0.1813  0.1870 -0.1712
18639W        W34108  12.388   9.835  14.972  0.0052  0.2621  0.0591
18640W        W34109  15.998   8.771   0.543  0.0602  0.2625  0.0328
18641W        W34110   2.630  13.419  12.787 -0.0606  0.1809  0.1859
18642W        W34111  17.802   7.065   3.579  0.0802  0.2235  0.2080
18643W        W34112  11.321   4.222   0.915 -0.2418  0.1311  0.2158
18644W        W34113  13.662   9.403  11.190 -0.0074 -0.2714 -0.2382
18645W        W34114  14.276   7.387  15.358  0.2407  0.1806 -0.1604
18646W        W34115   7.126   9.598  16.139 -0.0696  0.2241 -0.0407
18647W        W34116  12.063   4.852   5.407 -0.0987 -0.1593  0.0634
18648W        W34117  15.725  16.292  15.404 -0.1645 -0.2392  0.1455
18649W        W34118   2.322   3.197  13.311 -0.0532  0.1346 -0.0229
18650W        W34119   9.302  13.454   1.665 -0.1512  0.0247 -0.0137
18651W        W34120   3.821   6.001   1.377 -0.2623  0.2864  0.1255
18652W        W34121   8.617  11.055  14.007 -0.0445 -0.1528 -0.2873
18653W        W34122   4.939  12.728  12.026 -0.2480  0.0810 -0.3536
18654W        W34123   3.787  14.279  13.026 -0.1096 -0.1958  0.0877
18655W        W34124   9.240   1.713  11.195 -0.1399 -0.1719  0.0912
18656W        W34125   5.945  11.245  12.607  0.0626 -0.2936 -0.1250
18657W        W34126  16.045   3.605   0.407  0.0810 -0.2682  0.1322
18658W        W34127  16.934   3.562  14.425 -0.2694 -0.0856  0.0346
18659W        W34128   0.054   6.783  11.574  0.0566 -0.0466 -0.3024
18660W        W34129   8.751   7.331   1.475 -0.0678  0.3584 -0.0766
18661W        W34130   2.651   8.452  11.080  0.4890 -0.0853 -0.0918
18662W        W34131   8.744   2.806   0.105 -0.1778  0.1977 -0.1120
18663W        W34132   6.620   1.054  13.708 -0.1887  0.2976  0.0454
18664W        W34133   0.698   7.086  14.620 -0.0078 -0.0078 -0.1804
18665W        W34134  11.303  12.752  13.920  0.0214 -0.2120 -0.0656
18666W        W34135   3.078   7.549  11.119  0.0831 -0.0055  0.1754
18667W        W34136   2.801   7.769  13.367 -0.0400  0.2933 -0.0912
18668W        W34137  16.342  14.506  15.584  0.4064  0.1886  0.2319
18669W        W34138   3.027  16.284  11.534  0.3195  0.3847  0.4762
18670W        W34139  12.083   9.899  11.620  0.2824 -0.1083  0.1747
18671W        W34140  16.589  18.009  12.871 -0.0499 -0.4008  0.3021
18672W        W34141  14.617  12.800  13.112 -0.0731  0.0895 -0.0043
18673W        W34142  11.964  15.454   5.668 -0.3774 -0.3532 -0.1027
18674W        W34143   7.081   7.644   5.710 -0.0389 -0.3351  0.0737
18675W        W34144   3.223  13.962  14.629 -0.0736 -0.1979  0.1471
18676W        W34145   5.534   5.242   1.477 -0.1911  0.0158 -0.2073
18677W        W34146   6.510  14.353   2.870 -0.1774  0.1149 -0.1965
18678W        W34147   6.124  11.253   0.491 -0.0848  0.0705 -0.2025
18679W        W34148   3.962   7.344   2.700 -0.2648 -0.0272 -0.2093
18680W        W34149   9.909   6.979  13.096  0.2315 -0.2700  0.0057
18681W        W34150  13.592  14.011  16.112 -0.0876 -0.0927  0.0423
18682W        W34151   9.381  10.524   5.429 -0.0532  0.0108  0.0409
18683W        W34152  17.352   1.339  15.516  0.4583  0.1424  0.1074
18684W        W34153   4.614  13.660  13.475 -0.0010  0.0040  0.1985
18685W        W34154   8.314   8.523  15.333 -0.2158 -0.0326  0.0454
18686W        W34155  16.010  13.217   0.035 -0.1190 -0.0537 -0.0800
18687W        W34156   3.065  15.430   3.495 -0.0301  0.2228 -0.4261
18688W        W34157   0.105   4.004  15.197 -0.0889  0.1601  0.1297
18689W        W34158   4.812  14.551   5.843 -0.2321  0.0116 -0.1425
18690W        W34159   5.893  10.409   4.742  0.2435 -0.0278  0.1090
18691W        W34160   7.761   8.391   0.780 -0.1570 -0.0044 -0.2895
18692W        W34161   5.184  15.324  12.710  0.0858 -0.1932  0.1339
18693W        W34162  10.224   4.744   2.864 -0.1099  0.1769  0.2529
18694W        W34163  10.280  14.392  14.666 -0.2943  0.0495  0.0042
18695W        W34164   8.772   7.980  12.756 -0.0004  0.1368  0.1715
18696W        W34165   9.834   0.925   6.183 -0.1617 -0.1996 -0.2118
18697W        W34166   9.304  10.171  11.447 -0.0539 -0.1584  0.0274
18698W        W34167   5.028   0.439  15.936  0.0121 -0.2761  0.0589
18699W        W34168   7.749   2.966   1.072  0.2334  0.2576  0.2136
18700W        W34169   5.007   2.426  13.435 -0.4226  0.3640  0.3084
18701W        W34170  11.717   2.701   2.811  0.0927 -0.1395 -0.2771
18702W        W34171  17.862  11.950   2.072 -0.2683 -0.0351 -0.0979
18703W        W34172  11.829  15.151   1.820 -0.1651  0.2379  0.2287
18704W        W34173   8.912   8.780  12.266 -0.0263  0.0849  0.2668
18705W        W34174  18.209  10.747  11.846 -0.0139 -0.2922 -0.3547
18706W        W34175  13.070  16.584  13.011 -0.0677 -0.0490  0.1573
18707W        W34176   1.154  16.017   0.563 -0.0803 -0.1570  0.3465
18708W        W34177  13.508   4.165  13.538  0.2392  0.3198 -0.1564
18709W        W34178  15.115   8.370  16.006 -0.2276  0.4915 -0.0369
18710W        W34179   7.954   4.918  12.203 -0.0254  0.0949 -0.2038
18711W        W34180  13.905   3.061   3.823 -0.0249  0.0259  0.2575
18712W        W34181   5.688   7.056   3.746  0.0092 -0.0789 -0.1789
18713W        W34182   4.496  12.670  14.982 -0.1962  0.0409 -0.0890
18714W        W34183   2.819  13.750  13.092 -0.2502  0.0671  0.3567
18715W        W34184  17.303   7.035   1.017  0.0825  0.1109 -0.1783
18716W        W34185  16.323   8.159   2.301  0.1014  0.0190 -0.1189
18717W        W34186   2.735  11.413  12.966  0.0117  0.1480  0.1170
18718W        W34187  16.267  17.236   1.183  0.1355  0.1601 -0.2505
18719W        W34188   0.195  13.482   3.253 -0.1689  0.1684  0.0810
18720W        W34189   9.895  14.507  15.601 -0.0928  0.1076  0.0090
18721W        W34190   5.698   0.846  14.608  0.2832  0.3713  0.1117
18722W        W34191   9.451  13.923   3.687  0.0037 -0.1279  0.3611
18723W        W34192   8.990   8.700   1.468  0.2376  0.1420 -0.1374
18724W        W34193   0.298   5.365  14.089  0.0953 -0.1742 -0.2529
18725W        W34194   3.814  16.068   1.347  0.1385 -0.0491  0.1117
18726W        W34195  12.183  13.348   3.209  0.0447 -0.1750  0.0785
18727W        W34196  17.344  13.167  11.938  0.2261 -0.0392  0.2124
18728W        W34197  13.069   7.878  14.322  0.0186  0.3925 -0.0770
18729W        W34198  10.398  18.099   3.917 -0.0237  0.2284  0.2673
18730W        W34199   8.692   3.205  12.200 -0.1375 -0.1641 -0.2424
18731W        W34200   7.724  17.057   3.403 -0.0184  0.0771  0.1150
18732W        W34201  11.532  16.190  13.775 -0.0530  0.0622  0.0099
18733W        W34202  10.488  10.728  14.729 -0.0762 -0.2545  0.0657
18734W        W34203   4.756  17.268   4.023 -0.0847 -0.0014  0.1936
18735W        W34204  12.062  13.047  15.763 -0.0250 -0.0110 -0.1657
18736W        W34205   2.016   6.470   5.472 -0.0579 -0.1437 -0.2644
18737W        W34206   0.485   9.524   5.623  0.2635 -0.1363  0.0405
18738W        W34207  15.581   1.057   0.015  0.0674 -0.0561  0.0774
18739W        W34208   8.999   1.833   3.672 -0.3355  0.0388  0.0862
18740W        W34209   4.798   3.691   1.693 -0.0258 -0.3467 -0.3513
18741W        W34210   4.287   6.480   2.516 -0.2876 -0.0734 -0.0740
18742W        W34211   4.981   3.225  15.057 -0.2699 -0.1897 -0.1272
18743W        W34212   1.439  10.418  13.405  0.1259 -0.1041  0.0290
18744W        W34213   6.547   1.866  13.790  0.2418  0.2245 -0.0501
18745W        W34214   5.850  14.063  11.631 -0.2430 -0.1947  0.1630
18746W        W34215   9.708   4.900   1.849 -0.3163 -0.1841 -0.1575
18747W        W34216  11.965   5.554  12.128 -0.1360 -0.2827  0.1443
18748W        W34217   6.828   4.661  13.843  0.1095  0.2186  0.0000
18749W        W34218  10.035   8.289  15.068  0.0773 -0.0637  0.2141
18750W        W34219   0.483   8.055   1.462  0.0777  0.1170  0.1460
18751W        W34220   6.439   4.307   4.691  0.4038  0.0965  0.0339
18752W        W34221   7.652  16.676  14.934  0.1048  0.1331  0.0022
18753W        W34222  10.456   6.381   4.697 -0.1566 -0.1681 -0.2485
18754W        W34223  10.576  13.124   3.383  0.2676 -0.1197  0.0653
18755W        W34224   5.958   9.754   3.444  0.0600 -0.0458  0.1227
18756W        W34225  15.369  12.541  12.775  0.0366  0.0074  0.2377
18757W        W34226  17.476   5.343   2.174  0.2866  0.0462 -0.0810
18758W        W34227   1.738  10.882   4.997  0.1071  0.4322 -0.2154
18759W        W34228  17.949   2.143  15.740  0.1555 -0.1608  0.0713
18760W        W34229  11.848   7.179  12.979  0.1477 -0.1439  0.2176
18761W        W34230   2.631  17.246  14.984  0.1535  0.0487  0.0582
18762W        W34231   3.190  13.862   2.488  0.2851 -0.1248 -0.0161
18763W        W34232   3.026   4.313   4.065 -0.0600 -0.0151  0.0181
18764W        W34233   0.111  14.917  15.547  0.1154 -0.1171 -0.0958
18765W        W34234  10.242  16.843  14.377 -0.2505  0.3797 -0.1413
18766W        W34235   4.481   9.966  10.163  0.2683  0.3542 -0.2547
18767W        W34236   6.132  13.518  10.987 -0.4290  0.2442  0.3528
18768W        W34237  10.217  15.780  12.852  0.0674 -0.1047  0.0388
18769W        W34238  16.713  14.237   0.140 -0.0877  0.0625 -0.3233
18770W        W34239  16.766   7.526   5.741  0.0861  0.1778  0.1308
18771W        W34240  12.948   7.546  13.412 -0.1511 -0.0357 -0.0049
18772W        W34241   6.385   4.886   4.613  0.1924  0.2561  0.2151
18773W        W34242   2.329   1.473  14.472  0.2609  0.0256 -0.0741
18774W        W34243  12.747   2.354  12.241  0.0837  0.0226  0.0953
18775W        W34244   6.882   7.331  12.869 -0.0132  0.2562 -0.4105
18776W        W34245   8.560  11.091  12.988  0.0988 -0.2046 -0.0349
18777W        W34246  10.699   0.183  12.736 -0.0611  0.1203 -0.1343
18778W        W34247   4.172  12.142  10.110  0.1200  0.0552 -0.1018
18779W        W34248   6.086  12.504   1.234  0.1958 -0.3341 -0.2336
18780W        W34249  13.745   3.304  15.525 -0.1052  0.0610  0.0491
18781W        W34250  18.276   9.740  14.354  0.2672 -0.0644  0.0519
18782W        W34251  10.565  16.105  14.913 -0.2576 -0.2303 -0.2316
18783W        W34252   1.156   2.667   4.168  0.1944  0.0733  0.0808
18784W        W34253   2.407  17.418  11.659  0.1806 -0.1454  0.1891
18785W        W34254  16.716  12.558  14.946  0.1324  0.0339 -0.1901
18786W        W34255   7.647  17.913   2.909  0.0749  0.2965  0.2926
18787W        W34256   5.758   5.473   5.528  0.0271  0.0012  0.2553
18788W        W34257  15.563  12.091  13.604  0.3204 -0.2162 -0.2732
18789W        W34258   2.864   8.447  12.124 -0.2409 -0.1723  0.1082
18790W        W34259   6.790  15.507  13.827  0.0943  0.0377  0.1675
18791W        W34260  10.401   8.564  12.764  0.1490 -0.3518  0.3479
18792W        W34261   0.587   2.476   5.207 -0.1429 -0.1390  0.0622
18793W        W34262  15.965  11.467  11.809  0.0544 -0.0234 -0.0418
18794W        W34263   5.552   0.871   3.587 -0.0677 -0.0402  0.1841
18795W        W34264  12.353   3.952   0.443  0.0034  0.2178 -0.1289
18796W        W34265   7.635  14.408   1.918  0.3394  0.4037  0.1436
18797W        W34266   8.570  13.808  11.327  0.0248  0.3075 -0.0087
18798W        W34267   9.695   0.566   3.850 -0.3045  0.2946  0.1821
18799W        W34268   2.020  16.144  11.738 -0.0032  0.0952  0.1765
18800W        W34269  14.758   6.822  13.565 -0.2215 -0.0462 -0.1394
18801W        W34270  13.980   6.109  15.917 -0.0845 -0.1446 -0.1650
18802W        W34271   9.037   3.155  14.080  0.1010  0.0399 -0.0456
18803W        W34272  10.026   7.193  15.715 -0.0186  0.0083  0.2054
18804W        W34273  17.716   7.899   0.111  0.3111  0.2140  0.1113
18805W        W34274   0.736   5.469   1.135 -0.1856  0.1019  0.1302
18806W        W34275   3.756   3.704  14.364  0.0306  0.0421  0.1934
18807W        W34276  18.204   9.781  13.203 -0.1295 -0.1151 -0.2938
18808W        W34277  12.997  12.365  13.560  0.1248  0.0563  0.0034
18809W        W34278  10.137  15.013  14.034 -0.1029  0.0154  0.2998
18810W        W34279   1.289   7.461   4.144 -0.0302 -0.0985  0.0373
18811W        W34280  10.869   7.049  11.506 -0.0389  0.3132 -0.1286
18812W        W34281   6.109   6.650  12.908 -0.1868  0.2141 -0.1503
18813W        W34282   9.829  12.262   4.275 -0.0175  0.0017 -0.2788
18814W        W34283   0.368   0.786  15.414 -0.0997 -0.0844  0.1219
18815W        W34284   6.084   1.612  14.804 -0.3072  0.1396  0.0139
18816W        W34285  11.307   8.922  12.926  0.1011 -0.0235  0.1833
18817W        W34286  15.221   3.918   4.325 -0.0230  0.0962  0.5237
18818W        W34287  16.269  12.791  14.120 -0.1942 -0.2257  0.0576
18819W        W34288  14.633  13.277  12.088 -0.2495 -0.0583 -0.1460
18820W        W34289  11.422   1.137   5.424 -0.1456  0.0065  0.0172
18821W        W34290   8.286  14.668  14.055  0.1995  0.0989 -0.2567
18822W        W34291  12.034   0.691   5.581 -0.0517  0.4126  0.0549
18823W        W34292  11.320   5.331  14.941 -0.2274 -0.0371  0.2453
18824W        W34293   9.350  17.509  12.096 -0.2193 -0.3603 -0.1219
18825W        W34294  11.813   3.217  14.600  0.1463  0.0696  0.1857
18826W        W34295   2.660  17.484  15.601 -0.0758  0.0419 -0.2784
18827W        W34296   1.264   8.941  11.194 -0.0109  0.2164  0.1447
18828W        W34297   2.595  18.044  13.883  0.0683  0.0380  0.1443
18829W        W34298  11.306  16.567  13.283 -0.0096 -0.1635  0.1499
18830W        W34299   9.355   6.603  15.206 -0.1360 -0.1041  0.0069
18831W        W34300   7.783   6.872   2.891 -0.2429 -0.2186  0.0799
18832W        W34301  15.859  13.511  15.326 -0.0242 -0.1210 -0.2199
18833W        W34302   4.853   5.682   4.517  0.0579  0.0507  0.0078
18834W        W34303   8.609   2.379   1.941  0.1360  0.0748 -0.1310
18835W        W34304   3.912   5.419  15.385  0.1036  0.2446  0.0961
18836W        W34305  13.652  11.776  13.529  0.1508  0.0461  0.0396
18837W        W34306   0.336  10.144  15.245  0.0087  0.0411 -0.0563
18838W        W34307  17.783  12.800  15.935 -0.4787  0.0113  0.0769
18839W        W34308   2.557  11.273  10.923  0.0240  0.0556  0.0483
18840W        W34309  17.814   6.280  12.056  0.3493 -0.2070  0.2056
18841W        W34310   2.750  17.663  11.315 -0.0537  0.1486 -0.1940
18842W        W34311  12.327  11.835   0.614  0.1978  0.2879  0.0046
18843W        W34312   3.058   7.858   6.003  0.0743  0.0898  0.0023
18844W        W34313   9.416  11.061  16.111  0.1548  0.1226 -0.0973
18845W        W34314   2.900  16.824   2.204 -0.0420 -0.0387 -0.1509
18846W        W34315  12.352   6.082   2.103  0.2388 -0.2473  0.0922
18847W        W34316   6.456   9.247  10.263 -0.1332 -0.1553  0.0444
18848W        W34317  12.635   2.500  15.100 -0.0544 -0.2463  0.0546
18849W        W34318   1.897  18.004  13.942 -0.0461  0.0482  0.0919
18850W        W34319   1.790  14.804   3.277  0.1402 -0.2806  0.0754
18851W        W34320  13.077   6.405  12.801  0.0876 -0.1868  0.1709
18852W        W34321   2.572   1.855  11.968 -0.1798  0.2245 -0.2090
18853W        W34322  13.438  14.677   4.270 -0.3680 -0.2744 -0.2393
18854W        W34323   0.648   6.332   1.184 -0.2794 -0.0892  0.2875
18855W        W34324   6.891  13.144   9.548  0.0373 -0.0538  0.1604
18856W        W34325   2.866  10.033  15.015  0.0081 -0.2193  0.0365
18857W        W34326  11.359  10.480  15.597  0.1522 -0.1993 -0.4138
18858W        W34327   2.639   3.137   5.082  0.1081  0.0344  0.1953
18859W        W34328   6.212   8.599   0.227  0.1181  0.1245  0.2542
18860W        W34329  14.775   3.663   0.346  0.0743 -0.0023 -0.1064
18861W        W34330   6.829   0.276   6.033 -0.0306 -0.0821 -0.0335
18862W        W34331   8.088  13.822  14.759 -0.0154 -0.1194 -0.0877
18863W        W34332   6.940  13.433  15.385 -0.2345  0.0438  0.2149
18864W        W34333  15.253   4.862   5.363  0.5978  0.3425 -0.0050
18865W        W34334  16.789  15.088  14.393  0.5642 -0.0647  0.2491
18866W        W34335   3.949  10.421   1.500  0.1705  0.1915 -0.0598
18867W        W34336  13.259  17.177  11.548 -0.3572 -0.0743  0.1799
18868W        W34337  15.453   9.977   5.444  0.1176 -0.1656 -0.3342
18869W        W34338   2.060   2.837  15.802 -0.0001  0.3431  0.1157
18870W        W34339   2.378   5.470   5.261 -0.1662  0.1242 -0.3237
18871W        W34340  14.383  12.859   0.855 -0.0490  0.0544 -0.1459
18872W        W34341  16.755  10.882   2.606 -0.0280 -0.1851 -0.1617
18873W        W34342   8.443   7.507  14.525 -0.1371 -0.0076 -0.0048
18874W        W34343  15.665  15.369  16.024 -0.3895 -0.1017 -0.1569
18875W        W34344   9.405  12.453   5.491 -0.1949 -0.3150 -0.1267
18876W        W34345   5.646  10.685  10.900  0.1284 -0.0040  0.0104
18877W        W34346   9.804   6.288  13.877  0.1888 -0.2962  0.1779
18878W        W34347  17.564   5.573  13.284  0.0052 -0.3576  0.1854
18879W        W34348  11.358   4.437   3.923 -0.1379  0.2153  0.2549
18880W        W34349  15.000  13.845   1.171  0.0618  0.2668 -0.0762
18881W        W34350   0.491   6.658  15.072  0.1270 -0.3074  0.1225
18882W        W34351   6.352   8.002   2.094 -0.0733 -0.3207 -0.3083
18883W        W34352   8.562  14.108  15.106  0.1903  0.1951  0.2313
18884W        W34353   3.554   8.183   4.715  0.2107  0.0143 -0.1355
18885W        W34354   5.390   9.382  15.098 -0.3399 -0.0580  0.0545
18886W        W34355   2.410   3.004  11.589  0.1421 -0.0580 -0.1299
18887W        W34356  12.141  13.622  15.999 -0.2650  0.1386 -0.1927
18888W        W34357   2.427   3.084   4.256 -0.1080 -0.1374 -0.3174
18889W        W34358   1.096   5.572   1.496 -0.2986  0.0533  0.1149
18890W        W34359   9.513  12.510  16.008  0.0353 -0.0005  0.5648
18891W        W34360   8.579  11.447   9.996 -0.1431  0.0624 -0.0077
18892W        W34361  10.741   9.392   5.397  0.0737 -0.0100  0.1586
18893W        W34362   9.397  15.280  16.001  0.1140 -0.1129 -0.1591
18894W        W34363   4.850  12.198  15.614 -0.0465 -0.0007  0.1821
18895W        W34364   4.135   9.117   0.068 -0.2170  0.1353  0.2574
18896W        W34365  14.818   4.903  14.462  0.2491 -0.1988  0.0797
18897W        W34366   8.680   6.639  10.748  0.0105 -0.1416  0.1308
18898W        W34367   7.550  12.836   0.789  0.0207  0.0558 -0.1414
18899W        W34368  12.235  13.635   2.073  0.3444  0.3516  0.2667
18900W        W34369   1.900   4.363  14.514 -0.1670  0.0494  0.2169
18901W        W34370   8.039   1.343   4.176  0.0357  0.1206 -0.4044
18902W        W34371  11.614   3.257   5.609  0.1532 -0.1658  0.0636
18903W        W34372  10.013   2.495   2.138 -0.1401 -0.0052  0.0494
18904W        W34373  11.180   9.990   1.125  0.3920  0.1914 -0.0543
18905W        W34374  17.438   0.712   6.205  0.1180  0.2081 -0.0075
18906W        W34375  13.136  13.168  13.391 -0.2559  0.1835 -0.2434
18907W        W34376  10.310  12.066   4.186 -0.0840  0.0973 -0.1457
18908W        W34377  10.044  14.214   5.128  0.2471  0.0038  0.1638
18909W        W34378   7.818   1.035   5.270 -0.0589 -0.2013  0.0092
18910W        W34379   3.028   6.270   3.189 -0.1518 -0.1252  0.0234
18911W        W34380  18.029   7.024   0.546 -0.1182 -0.0636 -0.0391
18912W        W34381   3.355   3.047  14.234 -0.0387 -0.0903 -0.0615
18913W        W34382   7.270   6.195  13.166 -0.1505 -0.2762  0.1326
18914W        W34383  11.412   1.690  11.205  0.0738  0.1834  0.4851
18915W        W34384   1.511  12.881  15.584 -0.1387  0.1465 -0.1244
18916W        W34385   9.734   4.384  15.717  0.0093 -0.0799 -0.2417
18917W        W34386  14.116   1.629   2.004  0.0379 -0.2446  0.1326
18918W        W34387   4.569  10.080  14.144  0.1814  0.0440  0.1373
18919W        W34388   1.438   4.512  15.560 -0.0486 -0.2688 -0.0383
18920W        W34389  16.609   9.746   5.556  0.1140 -0.2818 -0.1709
18921W        W34390  11.646  14.502   2.317  0.1014 -0.0038  0.1929
18922W        W34391  11.338   1.562  13.733  0.1309  0.2820 -0.1532
18923W        W34392  15.684  10.603  12.922 -0.0277  0.0280 -0.0549
18924W        W34393  13.753  12.498   1.603 -0.0488 -0.0503  0.1432
18925W        W34394  11.469  11.997   3.844  0.1533 -0.1942 -0.0632
18926W        W34395  10.319   6.942   2.025 -0.0714  0.2777  0.2861
18927W        W34396   3.501  12.266   1.214  0.2007 -0.3513  0.0832
18928W        W34397  10.616  14.308  12.079  0.0407  0.0111 -0.2245
18929W        W34398   6.505   3.958   4.316 -0.2061 -0.0263 -0.0034
18930W        W34399  15.761   9.152   0.319  0.1503  0.0534  0.2103
18931W        W34400   3.704   0.405   0.858  0.0377  0.0574 -0.2391
18932W        W34401   8.026  15.911   0.595  0.0064 -0.2083 -0.5259
18933W        W34402  12.074   9.905  10.941 -0.4243  0.0731  0.3746
18934W        W34403  16.074   6.893  14.113 -0.0846 -0.2902 -0.3597
18935W        W34404   8.168  13.023   1.975 -0.1876 -0.2565 -0.0543
18936W        W34405   7.828   4.357  12.369 -0.0315  0.1532 -0.0672
18937W        W34406   9.444   3.033   2.640 -0.0528  0.1796  0.0093
18938W        W34407  16.088  13.080   3.558 -0.0460 -0.0744  0.2718
18939W        W34408   2.204   9.431  15.162  0.0470  0.0938  0.1071
18940W        W34409   9.817  16.020   4.081 -0.0949  0.0088  0.1788
18941W        W34410  14.566  10.382  12.254 -0.1545 -0.2467  0.0349
18942W        W34411   9.433  11.452  14.510 -0.0340  0.2346  0.0917
18943W        W34412   9.718   0.919   1.729 -0.1100  0.0083  0.0147
18944W        W34413   2.341  10.285   0.581 -0.1935 -0.2062 -0.1837
18945W        W34414   5.306   2.969  11.348 -0.1152 -0.1705  0.0997
18946W        W34415   3.211  14.120  12.355  0.0140 -0.1144  0.1491
18947W        W34416   9.491  10.517   2.248 -0.0260  0.1338  0.1958
18948W        W34417  12.529  12.093   3.084  0.3812  0.0828  0.0188
18949W        W34418   5.685  10.949  13.810  0.2118  0.5020  0.0060
18950W        W34419  10.005   6.362   2.479 -0.0813 -0.1516  0.0214
18951W        W34420   4.807   0.458   2.510 -0.2389 -0.2354  0.0860
18952W        W34421  16.468   0.213   1.834  0.0119  0.1049 -0.0573
18953W        W34422  11.390  12.159  15.760  0.3683  0.2492  0.0093
18954W        W34423   5.925  11.775  13.549 -0.3058 -0.3255 -0.0208
18955W        W34424   7.415   8.003  15.174 -0.1427 -0.1151  0.3712
18956W        W34425  12.359  10.380   1.989  0.1894 -0.0443 -0.5442
18957W        W34426   7.409   2.498  12.762  0.1059  0.2259 -0.2905
18958W        W34427   1.899  14.110  14.335 -0.0364  0.1872 -0.2418
18959W        W34428   2.185  14.590   5.488  0.0014 -0.0200 -0.1643
18960W        W34429   8.941  12.538  10.636  0.1456  0.2506  0.1297
18961W        W34430   1.753   6.817  15.142  0.1739  0.0384 -0.1665
18962W        W34431   2.157   5.344   2.908 -0.0390  0.0301 -0.2156
18963W        W34432   0.893   3.641  12.823 -0.2462  0.1349 -0.2439
18964W        W34433  10.407  11.030   4.420  0.2554  0.1837 -0.0783
18965W        W34434  11.649  15.342  10.939  0.0892  0.3300 -0.0677
18966W        W34435  14.562  14.381   0.885  0.0964  0.0272 -0.0823
18967W        W34436   6.921  11.259   4.057 -0.2040  0.0545  0.2973
18968W        W34437  18.051   4.097   1.029 -0.0118  0.2737 -0.2776
18969W        W34438   2.177  10.501   2.396 -0.1461  0.0313  0.1144
18970W        W34439   8.909  11.374  11.895  0.2013  0.2482  0.1165
18971W        W34440  13.114   1.407   0.993 -0.1496 -0.1655 -0.1046
18972W        W34441  17.670  10.538   2.025 -0.2287 -0.0625  0.1056
18973W        W34442  10.181   8.220   0.449  0.4537  0.3878  0.2330
18974W        W34443  13.008   5.042   2.518 -0.4485  0.0513  0.0953
18975W        W34444   4.955  17.818  10.514  0.0900 -0.1298  0.0326
18976W        W34445   0.253   4.569   0.305 -0.0685 -0.3242 -0.2074
18977W        W34446   9.017  16.612   4.397  0.1546  0.0820 -0.0239
18978W        W34447   4.481   6.770  15.660  0.2144  0.1405 -0.0042
18979W        W34448   6.700   0.656   0.975  0.2359  0.2437 -0.2071
18980W        W34449   3.784   0.364   1.456  0.0001  0.4036 -0.0975
18981W        W34450  11.684   0.496  13.099 -0.0523  0.1065 -0.3281
18982W        W34451   8.747  12.053   1.352 -0.1961 -0.0395 -0.0742
18983W        W34452  10.855  16.438   2.769 -0.1791 -0.2046 -0.3019
18984W        W34453   8.968  13.629   4.596 -0.1087  0.0491  0.3135
18985W        W34454   4.394   1.164  14.543  0.1349  0.5643  0.3055
18986W        W34455   6.083   1.708   0.157  0.1387  0.2239  0.1479
18987W        W34456   0.732   5.257  11.471  0.1617 -0.1950 -0.0313
18988W        W34457   1.676   7.169   6.300  0.2717 -0.1480  0.0173
18989W        W34458   5.202   0.720   5.437  0.0519 -0.0438 -0.1738
18990W        W34459  13.090   8.730   0.051 -0.3809  0.1332 -0.2515
18991W        W34460   3.553   6.467   0.893  0.3431  0.0117  0.0979
18992W        W34461   9.518   4.785   4.927  0.1953 -0.1864  0.2896
18993W        W34462  12.703   3.009  14.935  0.2082 -0.1507  0.1628
18994W        W34463  17.028   2.713  13.774  0.4573  0.2038  0.0012
18995W        W34464  13.577   6.603   3.376  0.0095 -0.0862 -0.1000
18996W        W34465  11.627   5.554  11.772 -0.1185  0.1217  0.0423
18997W        W34466   6.453   7.249   3.505 -0.0526 -0.0343 -0.1142
18998W        W34467   7.587  16.264   4.960  0.0380  0.3254 -0.0909
18999W        W34468   5.735  18.116  10.800 -0.0546 -0.0910 -0.0093
19000W        W34469   3.225  12.017   2.011  0.1060 -0.0860  0.0252
19001W        W34470   1.361   7.369   0.607 -0.1930  0.2616 -0.2398
19002W        W34471  13.604  11.209  12.152  0.1108 -0.2643  0.0524
19003W        W34472   0.336   1.793  12.835  0.2140  0.2058 -0.0785
19004W        W34473   2.129  10.778   2.889 -0.0400  0.3744  0.1727
19005W        W34474   7.426  13.391   0.886 -0.5647 -0.3765 -0.0390
19006W        W34475  14.072  10.957  14.423  0.1168 -0.2683  0.2359
19007W        W34476   2.492   1.754   6.021 -0.1599  0.2186  0.1592
19008W        W34477  15.228   2.219  13.637 -0.2660  0.1180 -0.0309
19009W        W34478  17.829   5.361  11.572 -0.0459  0.2613  0.0414
19010W        W34479   3.552  16.491  14.530 -0.4223  0.2410 -0.3359
19011W        W34480  10.092  16.061   0.522 -0.0110 -0.2193  0.1402
19012W        W34481   8.863   5.937  14.698 -0.2877 -0.1372  0.2954
19013W        W34482  14.118  17.481  12.221  0.0016 -0.3821 -0.0466
19014W        W34483  12.677   0.601   2.598 -0.1057 -0.0531  0.1614
19015W        W34484   5.041   6.343   0.278 -0.0203  0.2450 -0.1786
19016W        W34485   0.228  17.888  14.728 -0.0535  0.0366  0.2810
19017W        W34486  11.490   0.750  15.182 -0.0063 -0.1321 -0.1719
19018W        W34487   5.764   2.965   2.855  0.0652  0.3557 -0.0636
19019W        W34488   4.103  16.699  11.936  0.2163 -0.1506 -0.0591
19020W        W34489   3.167   0.560  15.663  0.1125  0.1953  0.1581
19021W        W34490  13.302  10.294   0.529 -0.3209  0.0408  0.0151
19022W        W34491   2.785  11.233   1.599 -0.1042  0.1747  0.4539
19023W        W34492  15.913   7.061   0.901  0.1109 -0.0241 -0.0954
19024W        W34493   0.314  13.541  15.187  0.1664  0.1930  0.0583
19025W        W34494   8.648  18.181  12.885 -0.1664  0.0612 -0.0963
19026W        W34495  17.085   2.404   0.827 -0.2220  0.2263 -0.0756
19027W        W34496   8.630   7.466  13.640  0.1541 -0.2278  0.1418
19028W        W34497  10.957  10.363  12.362  0.1374  0.0730  0.3139
19029W        W34498  12.880  11.481   0.160 -0.1255  0.1301 -0.1717
19030W        W34499  17.165   1.352  12.941 -0.0796  0.0839 -0.0132
19031W        W34500   4.717   1.450   4.461  0.0127  0.1127  0.1660
19032W        W34501  13.377  10.653  12.012  0.0046  0.1884  0.1933
19033W        W34502   9.966   0.829  11.149 -0.0836 -0.1830 -0.1577
19034W        W34503   7.147   3.628  14.047  0.0746 -0.0810 -0.1377
19035W        W34504   4.913   6.809   2.474  0.0489 -0.4715 -0.2933
19036W        W34505  12.139   5.373  12.562 -0.0689 -0.2133 -0.0686
19037W        W34506   6.715   5.775  12.682  0.2318 -0.2786  0.0790
19038W        W34507   8.758  14.247   0.377  0.1003  0.2609  0.2385
19039W        W34508   4.405   7.497  13.991 -0.1691  0.0889  0.0224
19040W        W34509   0.630   4.979  14.565 -0.1100 -0.0659  0.0470
19041W        W34510  13.941   2.102  12.640  0.0780 -0.0803 -0.0081
19042W        W34511  12.563   0.666  12.515  0.0295 -0.0310 -0.0547
19043W        W34512   0.854   1.471  15.993 -0.3616  0.0661  0.1443
19044W        W34513  17.022   0.869   4.009 -0.1142 -0.1696 -0.0682
19045W        W34514   5.683   4.403   4.798  0.0008 -0.0972  0.0758
19046W        W34515  10.850   3.198   5.118  0.0735  0.0748  0.1295
19047W        W34516  15.061  11.266   1.161  0.1106 -0.1169  0.0493
19048W        W34517  13.089  14.507   0.580  0.3508  0.0136 -0.0554
19049W        W34518   5.482  16.525  15.077  0.3741 -0.0372 -0.1459
19050W        W34519   9.544   2.344   1.871  0.0793  0.2169 -0.0314
19051W        W34520  14.672  15.318   5.075 -0.2619  0.0688  0.2059
19052W        W34521  10.411  11.877   0.404  0.2317  0.1048  0.0818
19053W        W34522   3.422   9.164  12.000 -0.0653 -0.0468 -0.0377
19054W        W34523  10.397  12.428  13.572  0.1165  0.2109  0.2315
19055W        W34524  17.662  14.411   1.639  0.0513  0.0771  0.1312
19056W        W34525  13.476   7.084   3.012 -0.3110  0.1568  0.1377
19057W        W34526   1.956   2.866  13.703 -0.1906 -0.1597 -0.0381
19058W        W34527  10.746   8.878   3.404  0.3059  0.3622 -0.1836
19059W        W34528   2.233   7.971   4.999 -0.0870  0.0887  0.1291
19060W        W34529  15.416  16.401  15.816  0.3172 -0.0401  0.1811
19061W        W34530  17.730   1.017  13.543 -0.0560 -0.2698  0.0518
19062W        W34531  16.600  10.774   4.034  0.1409  0.1988 -0.1049
19063W        W34532   3.320  14.994  14.479  0.1126  0.0408  0.0236
19064W        W34533   7.878   3.152  13.699  0.5766  0.1374  0.2168
19065W        W34534   9.018   5.876  15.924  0.1693  0.1469  0.1667
19066W        W34535   2.327  11.336   2.835  0.1224 -0.2763 -0.0671
19067W        W34536  13.830  15.101  15.979 -0.3149  0.3045 -0.1973
19068W        W34537   8.266   9.240   2.535  0.0625 -0.0229 -0.0727
19069W        W34538  11.566  15.007   3.088  0.1819 -0.2029  0.1628
19070W        W34539   0.099  15.673  14.635 -0.4976  0.0732 -0.3051
19071W        W34540  15.754   5.960   1.839  0.0092 -0.1348 -0.0563
19072W        W34541   9.423  17.489  14.553  0.0186  0.1914 -0.3765
19073W        W34542  16.154  15.403  10.983  0.2044  0.3264  0.0359
19074W        W34543  10.108  16.723   5.223  0.0089 -0.0449  0.2872
19075W        W34544  11.716  15.147  14.648 -0.2995  0.2016  0.0069
19076W        W34545   4.984   4.792   4.101  0.3592  0.0713 -0.2620
19077W        W34546  13.056   8.965   2.729  0.1102 -0.1460 -0.2973
19078W        W34547  17.667   4.144  15.786 -0.0430 -0.1358 -0.2296
19079W        W34548   5.130   1.442   4.115  0.0837 -0.1640  0.2590
19080W        W34549  17.616  17.277   5.969 -0.2305  0.2207  0.0945
19081W        W34550   6.157  15.713  13.068  0.1107 -0.2991  0.1807
19082W        W34551  16.271  15.251   4.315  0.2625 -0.0900 -0.0847
19083W        W34552   6.052   5.862  13.417  0.1144  0.1670  0.1951
19084W        W34553  12.354  14.336   3.383  0.1537  0.4180 -0.0631
19085W        W34554  10.197   1.404  11.894  0.0169 -0.1867 -0.3696
19086W        W34555  14.895  10.456  13.400  0.1226 -0.2509 -0.0890
19087W        W34556  11.812   3.888   2.122  0.0182  0.2709  0.1092
19088W        W34557  10.156   6.552  15.799 -0.1975 -0.0343 -0.5060
19089W        W34558  18.298   9.697  15.223 -0.1802  0.2031 -0.0221
19090W        W34559  13.407  11.115   0.753 -0.0153 -0.0346 -0.1242
19091W        W34560   8.283  13.444   3.192 -0.0999 -0.3571  0.0134
19092W        W34561  10.436  15.604   1.744 -0.0805 -0.1585  0.3788
19093W        W34562  16.794   3.901   3.276 -0.2903 -0.4606 -0.0056
19094W        W34563  13.486   2.059  12.862  0.1931  0.0806  0.3489
19095W        W34564   3.427   5.889  13.586  0.2900 -0.1743  0.0747
19096W        W34565  17.719   6.459   2.635  0.1654 -0.3775 -0.5921
19097W        W34566   4.903  12.245   3.809  0.1450  0.0328  0.3413
19098W        W34567  11.455   4.057  12.928  0.0774 -0.1810 -0.1984
19099W        W34568  12.900  15.216  12.846  0.1701 -0.2298 -0.0607
19100W        W34569  14.223  16.142   2.563  0.2313  0.0677 -0.1190
19101W        W34570   2.873   9.661   0.205  0.0220 -0.0552 -0.2856
19102W        W34571   7.623   3.375   1.318  0.1107  0.0828 -0.0662
19103W        W34572   8.149  10.521  12.379 -0.1168  0.0207  0.0327
19104W        W34573   6.446   3.065  11.590  0.1335  0.3078 -0.1414
19105W        W34574   7.097   8.121  10.886 -0.1413  0.1315  0.3031
19106W        W34575  10.470   8.881   2.329 -0.1467 -0.1976  0.1927
19107W        W34576   3.809   4.922  13.369 -0.2068  0.1826  0.0604
19108W        W34577  16.122   3.348   4.916 -0.2100 -0.3938  0.2124
19109W        W34578   7.850   2.060   1.961 -0.2470 -0.0855 -0.0123
19110W        W34579  17.403   3.195  16.129  0.0234  0.1112  0.1415
19111W        W34580   8.172  10.896   3.627  0.3401  0.0525 -0.1108
19112W        W34581   8.538   7.280   2.309 -0.1239  0.0601 -0.0617
19113W        W34582   3.828  12.152   1.571  0.0965  0.1907 -0.1770
19114W        W34583   8.542   1.881  15.207  0.0004 -0.1477  0.0877
19115W        W34584   7.679   8.973   2.918  0.2730  0.2638 -0.3249
19116W        W34585  11.874  11.164   3.232 -0.0477  0.1208 -0.2182
19117W        W34586  14.858  15.074   2.172  0.0050  0.0797  0.2363
19118W        W34587   3.101  10.682   5.697 -0.4202 -0.1460  0.0930
19119W        W34588  13.715  14.761   1.537 -0.0557  0.1323  0.1556
19120W        W34589   1.642  15.788  11.181 -0.2919 -0.0877  0.2400
19121W        W34590   7.547  13.312  12.616  0.0487  0.3473 -0.2482
19122W        W34591   3.732  18.272  13.800 -0.0073 -0.1202  0.1223
19123W        W34592  10.522   8.320  14.864 -0.3901  0.1553  0.1820
19124W        W34593   4.119   4.318  12.145 -0.0179  0.0690 -0.3183
19125W        W34594   1.772  15.818   4.208  0.0678  0.2149  0.3122
19126W        W34595  12.674   8.506  15.904 -0.0136  0.0257  0.0774
19127W        W34596   5.148   2.012  14.826  0.0324  0.1235  0.0671
19128W        W34597   6.654  17.524  14.546 -0.1152  0.5274 -0.1262
19129W        W34598   8.160  10.314   5.144  0.1321  0.0283  0.2688
19130W        W34599   5.823  17.727   2.195  0.3100  0.1474  0.0371
19131W        W34600   8.065   7.370   2.065  0.3192  0.3015  0.4054
19132W        W34601   0.572   7.419   2.189  0.0722 -0.0332 -0.3223
19133W        W34602  13.537  14.578   2.922 -0.3464 -0.3788 -0.3233
19134W        W34603   6.627   1.876  15.416 -0.0144 -0.1410 -0.0240
19135W        W34604   5.514   3.708   0.024 -0.2342 -0.1170  0.4353
19136W        W34605   6.875   3.162   5.888 -0.1169  0.3067 -0.1043
19137W        W34606  15.881   9.871   5.242 -0.1163  0.2143  0.2448
19138W        W34607   4.802   3.098   5.908  0.1968 -0.2731  0.3183
19139W        W34608  11.294  17.214   5.144 -0.0983  0.4097 -0.2454
19140W        W34609   0.122  14.893   3.367  0.3187  0.1848 -0.1608
19141W        W34610  12.046  13.148  14.410 -0.0055  0.2467 -0.0858
19142W        W34611   7.024  16.535   4.269 -0.2324 -0.2353  0.0441
19143W        W34612   9.322  16.026   2.719  0.0090  0.1799 -0.0383
19144W        W34613   4.767   8.174   4.430  0.2193 -0.0512 -0.2024
19145W        W34614   1.440  15.646  13.985 -0.3416  0.0749 -0.1723
19146W        W34615   8.355  18.114  14.828  0.2488  0.0277  0.2040
19147W        W34616   4.129  13.110  14.089 -0.1672 -0.3925 -0.0245
19148W        W34617  12.426  14.439  13.824  0.1830  0.1262  0.0856
19149W        W34618   1.482   9.520   5.523 -0.2515 -0.1644  0.1871
19150W        W34619   2.607   6.306  11.265 -0.1390  0.1353 -0.1527
19151W        W34620  10.919  11.371  13.349 -0.1810 -0.2272 -0.2339
19152W        W34621   9.272   2.220   0.124  0.0431  0.0837 -0.3921
19153W        W34622  15.111   8.557  13.084 -0.3662  0.0321 -0.1076
19154W        W34623   0.735  15.627  10.271 -0.0550 -0.1736  0.1073
19155W        W34624   6.393  18.052   4.441 -0.0952 -0.2366 -0.0907
19156W        W34625   9.777   2.413   3.361  0.0753  0.5004 -0.0425
19157W        W34626   4.248  10.700  12.974  0.0254  0.0963  0.1100
19158W        W34627  17.849   6.174  13.080 -0.1539  0.2796  0.2584
19159W        W34628  17.120   1.441  14.946 -0.1292 -0.1905 -0.0666
19160W        W34629   8.480   3.822  13.669  0.0669  0.2141  0.1214
19161W        W34630  11.476  10.506  12.230 -0.1647  0.0509  0.2323
19162W        W34631   8.301   6.932   2.692 -0.0463 -0.1168 -0.1916
19163W        W34632   9.785  10.085   2.275  0.1743  0.0306  0.1489
19164W        W34633   0.648  10.818   1.057  0.2656  0.1051 -0.2539
19165W        W34634  15.988  12.140   3.239  0.2238  0.1295  0.0419
19166W        W34635  14.786  14.834   4.419  0.0490  0.2502 -0.1307
19167W        W34636   4.945  15.366   2.552  0.0297 -0.2176 -0.0071
19168W        W34637   7.599   7.606   2.166  0.4521  0.3555 -0.0905
19169W        W34638  16.533  15.820  15.895 -0.1321 -0.1945 -0.0039
19170W        W34639  13.276   7.076   3.494 -0.1278  0.0514 -0.0049
19171W        W34640   7.393  10.401   4.647 -0.2519  0.3101  0.0816
19172W        W34641  10.161  15.573  12.331 -0.2054  0.2699  0.2808
19173W        W34642  13.509   7.461   1.323  0.1486 -0.2994  0.1550
19174W        W34643  16.204   3.289   3.371 -0.2003  0.1860 -0.2262
19175W        W34644  15.586   7.622   1.803 -0.3901 -0.1411 -0.1094
19176W        W34645   7.020  14.987  15.203 -0.0390 -0.0885  0.1532
19177W        W34646   0.554   9.949  13.297 -0.0074  0.0205 -0.0469
19178W        W34647  14.803  10.834   4.533  0.0996  0.1618 -0.0910
19179W        W34648  18.188   5.048  11.395  0.3109 -0.0252 -0.2836
19180W        W34649   6.663   2.208  15.815 -0.0243 -0.0916 -0.4795
19181W        W34650   2.910   6.519   4.989 -0.3453 -0.1079 -0.0634
19182W        W34651  17.870  10.004   5.321 -0.0173  0.0236  0.0464
19183W        W34652   9.572   3.679  12.767  0.0709  0.0702  0.3051
19184W        W34653  18.017  12.993   5.117 -0.3089  0.1647  0.2602
19185W        W34654  16.195  11.927   2.807  0.2840 -0.0151  0.0492
19186W        W34655  13.469  10.291   4.741  0.0624  0.3524  0.1316
19187W        W34656  16.646  18.214   0.202  0.0200  0.1206  0.1131
19188W        W34657   3.325   0.126  11.292  0.2143 -0.1778 -0.2283
19189W        W34658   7.820  10.607  13.555 -0.2858 -0.0258 -0.0876
19190W        W34659   2.957  17.673   3.844  0.0816 -0.2141 -0.0084
19191W        W34660   6.878  13.401  11.947  0.0526  0.0795 -0.3899
19192W        W34661   4.470   2.198   4.531 -0.2080 -0.4236 -0.1246
19193W        W34662   8.007   8.763   2.591  0.3024  0.1029  0.3167
19194W        W34663   2.330  11.299  12.639  0.1383 -0.0123  0.0903
19195W        W34664  12.052   8.196   1.641  0.0485 -0.1272  0.4539
19196W        W34665   9.717   4.822   3.540 -0.0143 -0.1163 -0.1405
19197W        W34666   3.602   5.907   4.051 -0.1803 -0.1028  0.3338
19198W        W34667   8.339  14.498   4.563 -0.0311 -0.0003  0.1536
19199W        W34668  11.107   4.587  12.604 -0.0495  0.0967  0.1940
19200W        W34669  12.976   0.262   2.412 -0.2652 -0.3711 -0.3768
19201W        W34670  16.754   4.266   0.701 -0.0101  0.2207 -0.1259
19202W        W34671   1.642  16.635   5.485  0.1151 -0.3348  0.1005
19203W        W34672   5.794  10.470  14.277 -0.1187  0.2817 -0.0387
19204W        W34673   3.539  10.028  11.140 -0.1373 -0.0829  0.2266
19205W        W34674  14.634  17.261   2.021 -0.2433 -0.1301 -0.4794
19206W        W34675  17.582  14.800  11.207  0.0399  0.3908  0.1464
19207W        W34676   0.146  17.567   1.141  0.0306 -0.1080  0.2828
19208W        W34677  18.244   9.493   0.786 -0.2280 -0.0008 -0.0338
19209W        W34678  11.044  10.131   4.742  0.0539  0.2243  0.1794
19210W        W34679  14.215   4.206  14.030  0.0681 -0.0122  0.1192
19211W        W34680  10.561   7.378  11.586  0.1414 -0.3430 -0.0175
19212W        W34681   7.528  10.707   2.022 -0.0074  0.0289  0.4102
19213W        W34682   9.907   9.224  12.829 -0.2440 -0.1977 -0.1839
19214W        W34683   0.833   9.375   3.645  0.1522 -0.0111  0.1333
19215W        W34684   0.660   1.488   3.265  0.0194  0.0885  0.1132
19216W        W34685  10.535   3.630  12.657  0.2869 -0.3133 -0.0472
19217W        W34686   6.397  17.596   6.017 -0.1460  0.0343 -0.1108
19218W        W34687  15.528   0.853  12.350  0.0454 -0.1534  0.1611
19219W        W34688  13.908   5.146   4.258  0.1818 -0.4554 -0.3426
19220W        W34689   6.808   2.588   1.600 -0.1427 -0.0054 -0.1839
19221W        W34690   3.306  16.641  14.088  0.0028  0.0700  0.0451
19222W        W34691  10.952  13.003   4.756  0.0448 -0.0846  0.0571
19223W        W34692  10.339   2.525   5.309  0.2154 -0.1335  0.0353
19224W        W34693   4.018   9.094   2.062 -0.0505  0.0574  0.1095
19225W        W34694  14.812  15.565   0.062 -0.0198 -0.0685 -0.1562
19226W        W34695  11.372   5.388   0.433 -0.2393 -0.2714  0.0976
19227W        W34696   2.338   6.268  10.842  0.2074  0.0617 -0.0005
19228W        W34697  15.464   1.410   5.699 -0.1397  0.1666 -0.2560
19229W        W34698  16.223  13.535   2.615  0.5519  0.1061 -0.2954
19230W        W34699   5.886   6.746  13.919 -0.1999  0.3879 -0.0263
19231W        W34700   8.478   8.820  11.564  0.3738 -0.2595  0.0919
19232W        W34701   3.761  10.245   0.168 -0.2925 -0.2729 -0.0924
19233W        W34702  17.568  15.042  13.732  0.0086  0.0269 -0.0300
19234W        W34703  11.384  10.302   5.093  0.1218  0.1764  0.0705
19235W        W34704   6.500  14.487   0.696  0.1269  0.3734  0.0704
19236W        W34705  18.049  10.090  15.931  0.0917  0.0398 -0.0240
19237W        W34706   8.290   7.029  15.841  0.1771 -0.1169  0.2428
19238W        W34707  15.752  12.737   0.255  0.2381 -0.1056  0.2053
19239W        W34708  12.306   1.625   5.503  0.1502 -0.0850 -0.1813
19240W        W34709   9.138  10.066   0.991 -0.3270  0.2270  0.1098
19241W        W34710   2.470   6.144  16.003  0.0117 -0.0783  0.2661
19242W        W34711   9.930   6.799  14.255  0.0525  0.2103 -0.0112
19243W        W34712  15.611  14.480   3.354  0.0540  0.0492  0.0902
19244W        W34713  13.552  11.724   3.403  0.1495 -0.1673 -0.3259
19245W        W34714   7.479   9.781   5.415  0.2811 -0.1780 -0.1054
19246W        W34715  15.563   0.292   2.077  0.3115 -0.1530 -0.1771
19247W        W34716   2.396  10.713  11.620 -0.0027 -0.1678  0.1885
19248W        W34717  12.151   5.263   0.598 -0.1402 -0.4205  0.1214
19249W        W34718   2.990  11.728  13.894  0.0230 -0.0737 -0.1905
19250W        W34719  12.365   0.267  11.638  0.2312  0.2440 -0.0100
19251W        W34720  15.811  13.516   0.542 -0.0291  0.1211 -0.1031
19252W        W34721   7.897   3.958   3.673  0.1485 -0.1221 -0.0081
19253W        W34722   8.950  12.713   2.486 -0.1430  0.0485  0.1379
19254W        W34723  16.384  10.649   2.378 -0.1769  0.2317 -0.0462
19255W        W34724   1.988  10.309  15.906 -0.2756 -0.2505  0.2302
19256W        W34725   5.657  10.216   1.097  0.3461 -0.0760  0.1608
19257W        W34726   5.470  16.867   0.210  0.1959 -0.2559 -0.0926
19258W        W34727  11.841  15.432   0.779 -0.1074 -0.3048 -0.2587
19259W        W34728   6.281   7.308   1.047  0.1116  0.1983 -0.1515
19260W        W34729  12.618  13.047   1.505  0.2956  0.1237  0.2440
19261W        W34730  15.619  12.076  11.167 -0.0344  0.0340 -0.3866
19262W        W34731   4.113   7.123  15.511 -0.0649 -0.0266  0.0284
19263W        W34732  18.023  13.267  15.030 -0.2330 -0.0472  0.3611
19264W        W34733   9.121  12.648  14.871  0.1605  0.2146  0.1111
19265W        W34734  13.688   4.221  15.046  0.2338 -0.0833  0.1937
19266W        W34735   3.182   6.652  12.356  0.0653  0.2918 -0.0076
19267W        W34736  16.305  16.168   3.053  0.0532 -0.2010  0.0463
19268W        W34737   0.152  16.398  15.153 -0.1113 -0.1148 -0.2784
19269W        W34738   1.838   3.341  12.174  0.1319  0.1509 -0.0737
19270W        W34739   9.514   0.962  15.915  0.0046  0.3197  0.3078
19271W        W34740   6.236  10.603   2.000 -0.0362  0.1069 -0.0604
19272W        W34741   8.531   5.246   0.089 -0.1721 -0.1026 -0.2348
19273W        W34742   3.947   8.094  14.703  0.3022  0.0109 -0.1223
19274W        W34743  16.608   3.480   5.159  0.0457 -0.0061  0.0001
19275W        W34744   4.351   7.875   4.484 -0.0445  0.1038 -0.0514
19276W        W34745   3.112   8.888   3.121  0.1719  0.1997 -0.0457
19277W        W34746   2.291  14.710   1.020  0.2473 -0.0282  0.1857
19278W        W34747   7.999  18.191   2.456  0.2101 -0.0532  0.0683
19279W        W34748   0.590  16.540  12.780  0.0781 -0.2424  0.2559
19280W        W34749  13.734  13.617   4.889  0.1082  0.4222 -0.0147
19281W        W34750  13.045   4.586  14.087 -0.1609  0.3116  0.2478
19282W        W34751   8.343   7.947  11.493 -0.1549  0.1805  0.1748
19283W        W34752  12.767  15.571   3.913 -0.1299  0.1357 -0.2655
19284W        W34753  15.781  16.777   4.575 -0.0229 -0.2370  0.1179
19285W        W34754  17.131   4.254  14.493 -0.1132 -0.0968  0.0991
19286W        W34755   3.419   2.990   1.927 -0.1534 -0.0798  0.0647
19287W        W34756  17.854   1.879   2.273 -0.0251 -0.1209 -0.1040
19288W        W34757   8.743  14.221  14.149  0.0921 -0.1747 -0.0546
19289W        W34758  10.179  14.947  11.579 -0.3262  0.1178  0.0875
19290W        W34759   7.100   7.675   1.569 -0.1427 -0.0701  0.1951
19291W        W34760  17.521  15.927  14.989  0.0713 -0.1060 -0.0085
19292W        W34761   4.771  16.758   0.065  0.0058 -0.0349 -0.2653
19293W        W34762   4.382   6.322  12.680  0.1952  0.1018 -0.2841
19294W        W34763   7.556   3.800   0.948  0.1677 -0.2889  0.0960
19295W        W34764  14.362  14.136  14.369  0.0538 -0.1017  0.0604
19296W        W34765   3.619  15.252   1.181  0.0040  0.5677 -0.0849
19297W        W34766   6.084  14.815  12.067 -0.1181 -0.1917  0.1916
19298W        W34767   0.232   8.704   2.750  0.0447  0.1936 -0.0465
19299W        W34768  10.387   6.739  12.834  0.2417 -0.0945 -0.0010
19300W        W34769   2.765  14.230   3.328 -0.1078 -0.3236  0.0045
19301W        W34770   3.121  15.462  11.437 -0.1376  0.0639 -0.4270
19302W        W34771   5.089   5.163   4.498 -0.2043  0.0658  0.2351
19303W        W34772  10.232  14.043   4.136  0.2720 -0.5779 -0.0515
19304W        W34773  14.659   1.175  12.510  0.3976  0.1070 -0.2517
19305W        W34774  17.821  10.563  12.961 -0.0766  0.3116  0.1640
19306W        W34775  14.058  14.946   0.626  0.0513 -0.2138 -0.2782
19307W        W34776  13.580  15.774   0.734 -0.1238  0.0516  0.3346
19308W        W34777   0.203  14.516   2.638  0.0283  0.2246 -0.1874
19309W        W34778  10.372   5.653  15.395  0.1252 -0.0725 -0.0722
19310W        W34779   8.157   3.900   3.216 -0.0729 -0.0856  0.1563
19311W        W34780  16.812   1.401  14.166  0.3268  0.3760  0.0903
19312W        W34781  12.921  17.344   3.536 -0.0384  0.2295 -0.1974
19313W        W34782  11.020  11.042   0.324 -0.1684  0.0211 -0.2969
19314W        W34783   3.072  13.892  10.916  0.0055  0.2293  0.4025
19315W        W34784   1.548  13.602   0.396 -0.3906  0.0132  0.1087
19316W        W34785  12.115   9.102  10.955 -0.0801  0.0276 -0.1268
19317W        W34786   8.462  10.368   1.757 -0.1403 -0.1934  0.0812
19318W        W34787   4.598  17.801   0.627 -0.3315  0.0225  0.1318
19319W        W34788   4.944  17.571   5.452  0.1395 -0.0058  0.1366
19320W        W34789   2.058   3.967   1.451 -0.0431 -0.0840  0.0087
19321W        W34790   0.237  10.988   2.587 -0.0260  0.0780  0.1664
19322W        W34791  17.623  18.099   4.031 -0.0559  0.2763 -0.1083
19323W        W34792   9.960  14.491  11.472  0.0007 -0.1591  0.0978
19324W        W34793  17.342   4.653   4.599 -0.2143 -0.0020  0.0330
19325W        W34794   4.759   5.702  13.997  0.1815 -0.2460  0.1578
19326W        W34795   5.277   1.559  13.631 -0.0362 -0.0557 -0.0392
19327W        W34796   9.406  15.266   2.276 -0.2153 -0.1309 -0.0136
19328W        W34797  16.100   6.056   2.656 -0.3168 -0.0103 -0.3099
19329W        W34798  14.676  14.480   5.815 -0.0019  0.2199 -0.4244
19330W        W34799  14.898  17.668  13.962  0.1244  0.1366 -0.0884
19331W        W34800  12.047   5.920   1.722  0.4633 -0.4195 -0.0608
19332W        W34801  12.635   9.965   2.096  0.0872 -0.3363 -0.0884
19333W        W34802   3.456  17.421  13.041  0.2555 -0.2434 -0.2062
19334W        W34803   3.484   1.773  15.598 -0.1490  0.1120  0.0745
19335W        W34804   5.881   3.636   0.981 -0.2492 -0.0475  0.2998
19336W        W34805   7.929  16.357  14.496  0.2608  0.0744 -0.0467
19337W        W34806  17.200   6.333   4.227  0.2338  0.0289 -0.1565
19338W        W34807   4.783   2.067   0.821 -0.4421 -0.1225  0.4956
19339W        W34808   1.365  17.121   3.113  0.2864 -0.0695  0.0121
19340W        W34809   0.971  15.666  15.947 -0.1990  0.0267  0.1689
19341W        W34810   9.128  17.328   4.331 -0.1854  0.0346 -0.0475
19342W        W34811   1.263  16.726   5.880  0.0209  0.2617  0.1551
19343W        W34812   9.907   5.993  15.562  0.3599  0.0931  0.1137
19344W        W34813  10.698   9.988   1.989  0.2933  0.0589 -0.0613
19345W        W34814   8.637   7.943   4.491 -0.1268 -0.0303 -0.0878
19346W        W34815  13.079   8.047  13.345  0.0594  0.1898  0.0401
19347W        W34816  15.771  13.351   3.793 -0.0429  0.2597 -0.2136
19348W        W34817  10.686  13.366  15.421  0.1171  0.1936 -0.0857
19349W        W34818  13.572   0.071  13.839 -0.0773 -0.6607  0.3540
19350W        W34819   4.794   0.204  11.411 -0.0593 -0.2490 -0.0151
19351W        W34820   8.776   0.687   5.276 -0.1512 -0.1720 -0.0099
19352W        W34821   9.237   8.206   5.205 -0.1539 -0.2777  0.1793
19353W        W34822  15.180   0.135  12.267  0.0199  0.0744 -0.1883
19354W        W34823   5.984  10.266  11.097  0.0282  0.1051 -0.1688
19355W        W34824   0.025   8.981  14.596 -0.0967  0.0952  0.2622
19356W        W34825   3.036   5.704  11.773 -0.3795  0.0505  0.0902
19357W        W34826  13.323   0.787   2.583  0.0001 -0.3000 -0.0956
19358W        W34827   8.470  13.765  12.436  0.2865  0.2025  0.2695
19359W        W34828  11.134   5.945   3.595 -0.0678  0.3739  0.3478
19360W        W34829   3.732   0.967  16.020  0.2216  0.1575 -0.0091
19361W        W34830  13.924   6.053  12.125  0.3486  0.2327  0.0074
19362W        W34831  15.422  11.075  14.132  0.1628 -0.2715 -0.1016
19363W        W34832  16.807   1.909   1.390  0.1561  0.2872 -0.1540
19364W        W34833   3.933  12.558   1.228 -0.2435  0.0338  0.0151
19365W        W34834   2.999   2.309  12.194  0.0745 -0.3301  0.0550
19366W        W34835  16.036   5.641  14.456 -0.0092 -0.0118  0.0431
19367W        W34836   1.078  17.517   5.448  0.0087 -0.0892 -0.0106
19368W        W34837   6.801  15.843   0.926  0.0395 -0.1004 -0.0865
19369W        W34838  13.835   3.108  15.066 -0.1227 -0.3217 -0.0585
19370W        W34839  11.694  12.602  12.618  0.1515  0.0837 -0.3598
19371W        W34840   2.046  12.536   3.511  0.3246 -0.2793 -0.2000
19372W        W34841  16.569   3.566  15.975 -0.2902 -0.1630 -0.0820
19373W        W34842   7.082  11.340   0.655 -0.0738 -0.0545 -0.1192
19374W        W34843  15.344  13.897   4.317 -0.0007  0.0463 -0.0904
19375W        W34844   4.181   9.796   2.715  0.1527 -0.0729  0.1114
19376W        W34845   1.682  15.324  11.394  0.3282 -0.0005 -0.0017
19377W        W34846  14.662  12.948   5.211 -0.2672  0.0247  0.2426
19378W        W34847  11.032   6.672  13.955 -0.0038  0.1231  0.3063
19379W        W34848   5.002   3.333  15.932  0.1127 -0.2052  0.1856
19380W        W34849  14.945  14.441  12.193 -0.1722 -0.4638 -0.1354
19381W        W34850   2.438   9.341   5.409  0.3342  0.1866  0.0740
19382W        W34851  15.501   4.030   1.299 -0.0943  0.2777 -0.0868
19383W        W34852  11.784   9.590   4.084 -0.4125  0.1253 -0.1793
19384W        W34853   6.967   2.269   2.088  0.1327  0.0726 -0.0062
19385W        W34854   1.561   7.863  11.310  0.2653 -0.2948  0.1655
19386W        W34855  15.589   4.628   3.806  0.0279 -0.3494 -0.1963
19387W        W34856  11.270   2.947  11.409 -0.2548  0.1595 -0.2590
19388W        W34857   9.924  11.333  12.400  0.0754  0.0795  0.1400
19389W        W34858   1.797   7.013  14.328  0.1425  0.1172  0.1706
19390W        W34859   3.107   4.667  12.819 -0.0262 -0.1377  0.1387
19391W        W34860  12.932  14.716   0.099 -0.1928  0.1608 -0.3903
19392W        W34861   5.310  12.017   1.309  0.3731 -0.3189 -0.2441
19393W        W34862  12.114   5.914  12.968 -0.1162  0.0671  0.0343
19394W        W34863   7.185   4.676  15.295 -0.2302  0.0947 -0.0598
19395W        W34864   0.102   9.775  11.322 -0.0710 -0.2066 -0.0119
19396W        W34865  11.654  14.426  11.578 -0.2096  0.2660  0.1499
19397W        W34866   2.368  14.235   0.378  0.0603  0.0154  0.3153
19398W        W34867  16.399   6.845  13.318 -0.0503  0.1106 -0.2710
19399W        W34868  15.868   9.184  12.543 -0.0646 -0.2005  0.3560
19400W        W34869  15.435  17.802   6.122 -0.0197 -0.0203  0.2004
19401W        W34870  17.089   2.510  12.328  0.2389 -0.2376  0.0152
19402W        W34871   7.256   0.477  14.250 -0.1103 -0.1260  0.0625
19403W        W34872   6.578   2.250   3.561  0.0388 -0.2585  0.2221
19404W        W34873   3.432   0.498  13.312 -0.1407  0.2164  0.2422
19405W        W34874   1.788   9.898  12.552 -0.1005  0.1201 -0.1681
19406W        W34875   2.993   3.740   1.258  0.1325 -0.1416  0.0862
19407W        W34876  16.739   2.890  11.991  0.2051  0.1245  0.2360
19408W        W34877  13.909   5.839  13.247 -0.0278  0.0242  0.0153
19409W        W34878   4.683   1.699   3.382  0.0445 -0.2716 -0.4358
19410W        W34879   4.994  14.937   5.069 -0.0695 -0.1432 -0.1451
19411W        W34880   8.333  16.567   4.183  0.0515  0.0582 -0.0164
19412W        W34881   3.217   5.726   2.595  0.0259  0.2915  0.3196
19413W        W34882   6.409  12.006  15.611 -0.1386 -0.2484  0.1383
19414W        W34883   2.741  15.358   0.531 -0.3957  0.1799 -0.0107
19415W        W34884   1.281  11.252   5.254 -0.3695 -0.2795 -0.2583
19416W        W34885  16.702   9.505   2.857  0.0753 -0.2694 -0.0669
19417W        W34886   5.253   3.723   3.395 -0.2084  0.0490 -0.0290
19418W        W34887  14.883   5.326  11.705 -0.0707 -0.1754 -0.1015
19419W        W34888   7.232  10.969  11.560 -0.1639 -0.2118 -0.2137
19420W        W34889   4.696  11.198   1.809  0.0882  0.1104  0.3064
19421W        W34890  13.187  10.906  10.484  0.2077 -0.1284  0.0995
19422W        W34891   8.462   9.326   1.408 -0.2294  0.0574  0.3159
19423W        W34892   9.043   5.698  13.762 -0.0175  0.0324  0.2244
19424W        W34893  17.262   1.546   1.938  0.2251  0.0661 -0.1076
19425W        W34894   1.148  16.629  14.784  0.0156  0.1121 -0.2601
19426W        W34895  15.102  10.099  10.924 -0.1303 -0.1064 -0.1843
19427W        W34896  14.928   8.788   5.369 -0.1018  0.1837  0.0628
19428W        W34897   3.692  12.239   2.137 -0.1161  0.0402  0.0316
19429W        W34898  17.524   7.553  11.994 -0.3409  0.0445  0.1284
19430W        W34899  15.451   9.428  15.174  0.2630 -0.0572  0.0279
19431W        W34900  10.640  11.126   5.429  0.1954  0.1359 -0.1693
19432W        W34901   6.310   8.179  11.710  0.1193  0.3388 -0.0526
19433W        W34902   2.112   9.247  13.294  0.0081  0.2741 -0.2432
19434W        W34903   0.635  18.141   1.639  0.0073 -0.3772  0.0408
19435W        W34904   1.372   3.290   1.798 -0.0316 -0.1322  0.3072
19436W        W34905  16.319   3.519  11.266 -0.0910  0.1417 -0.1787
19437W        W34906   0.854   4.565  14.810 -0.0943 -0.1137 -0.2879
19438W        W34907  12.231  10.182  14.551 -0.2945  0.0258  0.3767
19439W        W34908  10.502  10.416  15.141 -0.0253 -0.1574 -0.0026
19440W        W34909   5.502  13.959   4.328 -0.0924  0.0810  0.0552
19441W        W34910  10.188  17.407  11.888 -0.0555 -0.0848 -0.3594
19442W        W34911   0.526  10.883   4.697  0.3868 -0.1194 -0.1593
19443W        W34912  15.646   6.896  13.876  0.1985 -0.0280  0.0710
19444W        W34913  10.500  11.346   0.311 -0.1648  0.0430  0.3916
19445W        W34914  14.010   0.362   4.103  0.0475 -0.1733 -0.0072
19446W        W34915   0.471   9.544   1.471  0.2982  0.1337  0.0595
19447W        W34916   2.383   4.813  14.336  0.0317  0.1517  0.1637
19448W        W34917  10.454  12.334   5.623 -0.0614 -0.2885 -0.3652
19449W        W34918  11.912   0.717   1.196 -0.1151 -0.1667 -0.1212
19450W        W34919  11.415  18.104   4.838  0.0195 -0.1214  0.0356
19451W        W34920  11.717  16.998  14.026 -0.3789  0.0272 -0.0957
19452W        W34921  13.126  11.201  11.062  0.0347  0.2056  0.1333
19453W        W34922   5.471   9.280   3.590 -0.3729  0.1537  0.2308
19454W        W34923   9.645  15.679  13.495 -0.3474 -0.3100  0.3029
19455W        W34924  10.584   7.500  13.542 -0.1976  0.1734 -0.0696
19456W        W34925  11.661  16.557  10.801  0.2705  0.0552 -0.0698
19457W        W34926   3.181  16.085  15.489  0.3005  0.3219 -0.2183
19458W        W34927   8.349  13.048   3.996  0.1003 -0.2050 -0.2626
19459W        W34928  14.377  16.849  12.991  0.0874  0.0674 -0.1564
19460W        W34929  15.119  13.625  12.518 -0.1497 -0.0504 -0.1384
19461W        W34930   4.138  15.572   1.173 -0.1427 -0.0232 -0.2008
19462W        W34931  10.500  17.367   4.057 -0.1568 -0.1039  0.0223
19463W        W34932  14.417  11.613   4.564  0.1939  0.1094 -0.4085
19464W        W34933  11.250  11.734   4.671 -0.2592  0.0108  0.3266
19465W        W34934   4.978   9.795   2.925 -0.2212 -0.1747 -0.1464
19466W        W34935  16.964  15.539   0.377  0.0225  0.0920  0.0531
19467W        W34936  15.340  16.985   1.656  0.0109  0.1679 -0.3390
19468W        W34937   0.746   3.344   3.198  0.0891  0.2636 -0.3676
19469W        W34938  15.821   0.474   0.643  0.0408  0.2313 -0.0526
19470W        W34939   8.900   0.331   1.358 -0.1304 -0.1547  0.1818
19471W        W34940   5.062   2.501   0.009  0.0015  0.0903  0.0064
19472W        W34941   0.360   9.284   5.238  0.2286  0.1784  0.1587
19473W        W34942  14.171  13.775   5.210  0.0338 -0.1439 -0.2063
19474W        W34943   8.671  12.255   2.277  0.1415 -0.3901 -0.0636
19475W        W34944   9.920   4.961  15.340  0.1196  0.3185  0.0576
19476W        W34945   2.995  11.150  13.922  0.0724 -0.0274 -0.0497
19477W        W34946   8.407   7.075   1.738  0.0260  0.2654  0.1632
19478W        W34947  13.102  11.377  14.313 -0.0381 -0.2041 -0.1319
19479W        W34948  11.362  12.463   4.097  0.2199 -0.1110  0.0619
19480W        W34949   8.592   0.354   3.927  0.2364  0.1258 -0.0678
19481W        W34950  17.062   7.121   2.226 -0.2479  0.3251  0.0081
19482W        W34951  15.227   6.762  14.582 -0.1062 -0.2714  0.2484
19483W        W34952  10.774   1.025   4.336  0.2660 -0.0073  0.0257
19484W        W34953  11.648   6.728   1.776 -0.3305 -0.0581 -0.2148
19485W        W34954  10.349   9.827   1.566 -0.1397  0.0594 -0.2266
19486W        W34955   3.548   3.486   2.731  0.3057  0.0311 -0.0970
19487W        W34956  17.874  11.051   1.919 -0.0793 -0.0081  0.0434
19488W        W34957   8.647   1.967   5.524  0.0989 -0.0436  0.1305
19489W        W34958  10.521  13.468   0.879 -0.2256  0.1575  0.0325
19490W        W34959   4.177  16.747  13.498 -0.1554  0.1849 -0.0823
19491W        W34960   7.778   0.663   0.581 -0.0307 -0.0009 -0.1548
19492W        W34961   7.815   6.383   1.875  0.3159 -0.0282  0.1273
19493W        W34962  15.013   1.564   1.486  0.0909 -0.1420 -0.0077
19494W        W34963   5.078  17.831   0.394  0.0217  0.0552  0.3316
19495W        W34964  14.454  13.242  11.576  0.1732  0.1784  0.0248
19496W        W34965   0.724   7.381  11.740  0.0867 -0.1320  0.2244
19497W        W34966   8.982   3.989   1.019  0.0471 -0.0266  0.0002
19498W        W34967  17.107  13.482   4.509  0.0188 -0.3155  0.2281
19499W        W34968   4.074  16.180  10.932  0.0720  0.1268  0.0896
19500W        W34969   2.750  15.491  12.119 -0.1412 -0.0356 -0.2333
19501W        W34970   4.205   4.374  14.590 -0.1790  0.2335  0.1480
19502W        W34971   9.735   4.770   4.057  0.0961 -0.2596  0.0887
19503W        W34972  13.517   7.677  12.487  0.2556 -0.0740 -0.3013
19504W        W34973  17.540  13.277  15.077  0.2855  0.0409 -0.0141
19505W        W34974   4.662  16.908  13.374 -0.0376  0.2569 -0.1838
19506W        W34975   8.418   1.300  10.143 -0.2498  0.1497  0.1261
19507W        W34976   3.382   2.800   1.461 -0.0382 -0.1990 -0.3837
19508W        W34977   8.880   6.183   4.836 -0.0095  0.4708 -0.2657
19509W        W34978   8.498  13.621   2.785 -0.1701 -0.1068  0.0445
19510W        W34979   2.455  14.523   3.071  0.1898  0.1762  0.4198
19511W        W34980   9.857   1.071   3.844  0.0190 -0.3798 -0.0243
19512W        W34981   3.216   5.715   3.163 -0.0779  0.0141 -0.0475
19513W        W34982  14.437  15.764   3.450  0.0656  0.1911 -0.1342
19514W        W34983  10.116   7.980  11.194  0.0254 -0.2085 -0.0105
19515W        W34984   0.772   8.932  13.068  0.1315 -0.2380 -0.0139
19516W        W34985   0.115  15.987   1.980  0.3989  0.2823  0.0780
19517W        W34986   1.467  17.005  13.994 -0.0103 -0.4630  0.0827
19518W        W34987  14.308   6.744  15.906  0.2310 -0.2975  0.0884
19519W        W34988  11.836   5.150  14.166 -0.0671  0.0612  0.1711
19520W        W34989   6.123  15.365  13.828  0.3533  0.0778 -0.0533
19521W        W34990   4.638   0.699  14.255  0.3382 -0.1582  0.3256
19522W        W34991   9.384   5.116   0.377 -0.1034  0.0327  0.1651
19523W        W34992  17.820   3.573   1.158 -0.1234 -0.3134  0.3208
19524W        W34993   3.352  14.437  13.370 -0.0236  0.0260  0.1530
19525W        W34994   9.836  13.498   0.848  0.2832 -0.3737  0.1446
19526W        W34995  14.663  13.205   5.657  0.2972 -0.0155 -0.0424
19527W        W34996   4.519   3.165  13.567  0.2113 -0.2830 -0.0427
19528W        W34997   1.814   0.744   1.657 -0.3215  0.3415 -0.1883
19529W        W34998   9.890   7.437  14.240  0.0119  0.1081 -0.2792
19530W        W34999   7.907  17.301   0.328  0.0151 -0.1625 -0.0238
19531W        W35000  13.918   7.747   0.513  0.0934 -0.0966 -0.1839
19532W        W35001   0.597   5.568  15.399  0.1738 -0.1112 -0.2419
19533W        W35002   4.843   2.297   2.230 -0.2045  0.0735 -0.0082
19534W        W35003   6.591   4.297  15.631 -0.0823  0.2946 -0.0488
19535W        W35004  10.157  15.633  14.974 -0.3080 -0.1160  0.2457
19536W        W35005   5.839  11.432   2.486  0.1407 -0.1439 -0.2175
19537W        W35006  12.377   3.522   5.776  0.1060  0.0162  0.0113
19538W        W35007   3.733   2.288  14.032  0.0496  0.1925  0.1175
19539W        W35008   8.716  15.591   0.247  0.0148  0.0880  0.1982
19540W        W35009   9.961  12.913   2.209  0.0159  0.1139 -0.0298
19541W        W35010   1.382  15.209   3.129 -0.2771 -0.1064 -0.1419
19542W        W35011   8.147   0.949   2.303  0.2125 -0.1917 -0.3754
19543W        W35012   0.598  15.283   3.998 -0.1289 -0.1615 -0.0843
19544W        W35013  11.332   9.305  11.665 -0.0383  0.0994 -0.0863
19545W        W35014   4.530   2.004  14.717  0.1117  0.0030 -0.1128
19546W        W35015  13.566  11.369  11.295 -0.1532  0.1723  0.0190
19547W        W35016   8.480   4.401  10.353  0.3699 -0.1325  0.2478
19548W        W35017  10.437   3.761  15.376  0.1364  0.0718  0.1254
19549W        W35018  14.303  13.488  13.519  0.2615 -0.1328  0.2769
19550W        W35019   0.257  15.232  13.475  0.1221  0.2059  0.1961
19551W        W35020   9.687  13.182  12.591 -0.1025 -0.0645  0.1689
19552W        W35021  17.676  10.854   0.704  0.2386  0.1585 -0.2472
19553W        W35022  17.893   0.363  14.251  0.0523  0.1546 -0.0549
19554W        W35023  16.601   5.811   1.883 -0.0625 -0.0228  0.0802
19555W        W35024  12.821  13.615   3.858 -0.1749 -0.2295  0.4017
19556W        W35025   1.564   3.505   3.332 -0.3374  0.1332 -0.2357
19557W        W35026   1.773   8.955   1.222 -0.1903 -0.1444  0.0352
19558W        W35027  15.422  13.441   3.303  0.1527  0.3692 -0.1087
19559W        W35028  15.944   1.110  13.572  0.0432 -0.0253 -0.1791
19560W        W35029   5.806  14.656  11.122  0.2524  0.1899 -0.1298
19561W        W35030  17.541   8.746   3.126 -0.2835  0.1658 -0.1716
19562W        W35031  12.126  12.253  12.047 -0.1325 -0.0336  0.2921
19563W        W35032   2.794  10.156   5.110 -0.0848 -0.2928 -0.0020
19564W        W35033  16.678  10.499   5.221 -0.0263 -0.1893 -0.2399
19565W        W35034  16.974   9.270   0.626  0.1447 -0.0698 -0.2217
19566W        W35035  14.607   0.305   0.096  0.3620 -0.2029  0.0147
19567W        W35036   0.498  17.355   0.868 -0.3132 -0.0257 -0.2127
19568W        W35037   4.179   8.483   4.952 -0.2160 -0.0058 -0.1593
19569W        W35038   9.791   9.874   1.440 -0.1212  0.2758  0.2913
19570W        W35039  17.182  15.465   1.403  0.0695  0.0109 -0.2025
19571W        W35040  16.860  11.054   1.092 -0.2778  0.1466 -0.0428
19572W        W35041   7.077   0.859   2.849  0.0091  0.0750 -0.1485
19573W        W35042  10.901   1.713   1.845 -0.0812  0.0174  0.0488
19574W        W35043   6.271  16.570  15.908  0.0256 -0.2198 -0.2681
19575W        W35044   7.223  10.501  15.947  0.1170  0.2804  0.0587
19576W        W35045   0.793   9.276  14.289 -0.2526 -0.2936  0.1151
19577W        W35046  13.335  17.870   1.795  0.1662 -0.0794  0.2338
19578W        W35047   2.308   8.330  12.038 -0.0208  0.0557 -0.0946
19579W        W35048   2.366   6.847  13.688 -0.0517 -0.1099 -0.2463
19580W        W35049  14.846   5.232   2.329 -0.1627  0.4257  0.0571
19581W        W35050  11.778  13.935   5.533  0.0200 -0.2492  0.1325
19582W        W35051   1.553  10.874   3.074 -0.1119  0.0055 -0.3420
19583W        W35052  17.768   8.450   1.083  0.3932  0.2860 -0.0540
19584W        W35053   6.337   1.077  13.250  0.0475 -0.1002 -0.1568
19585W        W35054   4.363   3.395  14.185 -0.0046  0.2461 -0.1531
19586W        W35055   0.006   6.220  12.988 -0.1646 -0.0669 -0.1817
19587W        W35056  12.005  16.845  12.658  0.2886 -0.2726  0.0903
19588W        W35057   6.167   8.802   1.946 -0.1418 -0.2293 -0.0424
19589W        W35058   7.177   9.423  11.342  0.0445 -0.0080  0.3655
19590W        W35059   0.544  15.165   2.103  0.2849  0.1336 -0.1785
19591W        W35060   1.437   6.050  12.121  0.1138 -0.3069  0.1412
19592W        W35061  15.419   3.780   1.796 -0.1745 -0.0135 -0.0104
19593W        W35062  15.123   4.865   4.880  0.1177  0.0211  0.1627
19594W        W35063  16.080   0.472   1.984  0.2310 -0.0868 -0.0117
19595W        W35064   0.519  10.486  12.360 -0.2197 -0.0229 -0.0712
19596W        W35065   1.714   8.084   1.459 -0.1621  0.0016  0.0185
19597W        W35066   4.307   2.090   0.736  0.1258 -0.1450  0.0545
19598W        W35067   8.251   9.952   3.835 -0.2400  0.1441 -0.0276
19599W        W35068   4.750  15.097  13.489 -0.3311  0.1564 -0.1626
19600W        W35069   0.700  12.211   5.140  0.1872 -0.0921  0.2418
19601W        W35070  13.958   9.553  12.533 -0.1680  0.0970 -0.1795
19602W        W35071   5.821   9.582  15.310  0.1002 -0.0973 -0.2401
19603W        W35072   7.599  15.547  12.957 -0.0243  0.1745  0.2301
19604W        W35073  16.209   1.484   4.500 -0.0033  0.2603 -0.0135
19605W        W35074   4.933  14.065  13.546  0.1222  0.2197  0.1033
19606W        W35075  17.171   0.594  11.770  0.2034 -0.0673 -0.3920
19607W        W35076   5.519   7.589   2.398  0.0278 -0.1945 -0.3442
19608W        W35077   4.298  12.055  10.942  0.1203  0.3752  0.1290
19609W        W35078   7.439  17.899   1.014  0.1731  0.2501  0.0967
19610W        W35079   0.387   5.271   0.293 -0.1726 -0.1005 -0.0704
19611W        W35080   2.042  14.666  11.763 -0.0514  0.3526  0.3322
19612W        W35081   0.556   9.975  15.668 -0.2216  0.1504  0.0002
19613W        W35082  15.996  12.818  12.177 -0.0521  0.3621  0.1132
19614W        W35083   2.829   3.075   4.550  0.1775  0.2294 -0.2338
19615W        W35084  16.184   1.198   3.092  0.1648 -0.0898 -0.0076
19616W        W35085   3.899  11.311  11.080  0.1709  0.3440  0.0910
19617W        W35086  10.129  12.290   3.389 -0.0815  0.1036  0.2453
19618W        W35087  15.024  12.690   2.641 -0.0909  0.0796  0.0548
19619W        W35088   2.306  12.698   3.904 -0.0306  0.1802 -0.0394
19620W        W35089   2.346  14.658   3.549 -0.4580 -0.1190  0.0014
19621W        W35090   5.824  18.236   1.334 -0.0149  0.0155 -0.1695
19622W        W35091  14.585  14.522   4.756 -0.0488  0.1869 -0.3348
19623W        W35092  10.584  11.863  11.321  0.0833  0.2113 -0.1991
19624W        W35093   3.261  17.174   0.819 -0.1237 -0.1491 -0.2098
19625W        W35094   8.914  13.553  14.884  0.1585 -0.4284 -0.1165
19626W        W35095  16.679  11.857  13.803  0.2397 -0.1773 -0.0185
19627W        W35096   8.973   5.847  12.078 -0.0913  0.0695  0.2372
19628W        W35097  16.034  13.326  11.880 -0.5043 -0.0090  0.1710
19629W        W35098   2.314  12.392  14.829  0.2151  0.1154  0.4473
19630W        W35099   5.372   9.690  11.490  0.3189  0.3788  0.0084
19631W        W35100  14.663   5.562   9.973  0.2806  0.2651 -0.0166
19632W        W35101  15.086  12.136   2.770 -0.2001 -0.0188  0.2548
19633W        W35102   0.816   0.405   2.472 -0.3443 -0.2085 -0.1645
19634W        W35103   4.632   8.106   1.027 -0.2217  0.1135  0.1384
19635W        W35104  16.380   1.424   0.555 -0.0439 -0.1733 -0.2668
19636W        W35105   3.956  15.868   1.977  0.1618  0.0003 -0.0328
19637W        W35106  15.499   3.384   5.920 -0.0051 -0.0547 -0.1002
19638W        W35107   6.420   0.446   3.337 -0.1148  0.0981  0.0944
19639W        W35108   8.271  16.814  11.960  0.1316  0.0795  0.1129
19640W        W35109  15.526  10.153   0.091 -0.1517  0.0076  0.0288
19641W        W35110   3.240  15.506   0.384 -0.0199 -0.1195 -0.1262
19642W        W35111  16.201   0.975  11.984 -0.3429 -0.0119 -0.0952
19643W        W35112   6.963   5.146  13.688  0.2707  0.2218 -0.0734
19644W        W35113  15.614  11.529  12.398 -0.1369 -0.1640  0.3506
19645W        W35114  15.467  12.441   4.259 -0.1271 -0.2143 -0.0736
19646W        W35115   8.344   0.815  12.162 -0.3739 -0.0282 -0.2144
19647W        W35116  13.779  11.887   0.825 -0.1340 -0.1777  0.0917
19648W        W35117  12.178  15.858  14.917 -0.1861  0.0209 -0.4208
19649W        W35118  14.053   7.959  13.847  0.1328  0.2730  0.1752
19650W        W35119   7.301   7.907   3.486 -0.0080  0.0836  0.1241
19651W        W35120  11.108   3.932   1.361  0.0887  0.0678  0.0581
19652W        W35121  13.884  15.339   0.311  0.3544  0.2818  0.2337
19653W        W35122  10.969   3.382  12.420  0.0166  0.0800  0.1690
19654W        W35123  13.543   9.146  14.217  0.1389 -0.0231 -0.0038
19655W        W35124   6.090  14.919  16.020  0.0076 -0.1907 -0.2189
19656W        W35125   6.091  13.181  12.622  0.3635 -0.1765  0.2514
19657W        W35126   8.453  16.182   0.513 -0.2023 -0.2482 -0.0854
19658W        W35127   9.189   2.246   1.096 -0.1513 -0.0876 -0.0647
19659W        W35128   5.506  11.543  12.413 -0.2817  0.0447 -0.0507
19660W        W35129   9.595   8.370  12.168 -0.1080  0.0859 -0.1653
19661W        W35130   3.700   0.246   4.442  0.0741  0.2106  0.1512
19662W        W35131   1.124   0.906  15.865  0.2587  0.1494 -0.0366
19663W        W35132  14.401  13.340  13.011 -0.1004 -0.1024 -0.0198
19664W        W35133  13.837   9.869   3.103  0.2452 -0.2384  0.1158
19665W        W35134   7.246   1.531  12.981  0.0926 -0.1004  0.1840
19666W        W35135  11.699   7.571  12.231  0.1159  0.4067 -0.1854
19667W        W35136   7.186   8.662  15.432  0.1961 -0.3678  0.0275
19668W        W35137   9.719  17.949  11.816  0.1083 -0.0567  0.0982
19669W        W35138  11.703   2.355   0.046 -0.1053 -0.1173 -0.3865
19670W        W35139   7.915   6.426  13.537 -0.2973  0.2935 -0.1094
19671W        W35140   0.034   9.844  11.858  0.3763 -0.5603 -0.2308
19672W        W35141  17.080   0.511  15.148  0.0413 -0.0255  0.2637
19673W        W35142  14.402   5.769  12.289 -0.0219 -0.1697 -0.1806
19674W        W35143  14.073  12.205  15.055  0.3449  0.3649 -0.0556
19675W        W35144  17.108  11.700   3.254  0.0138  0.1812  0.1848
19676W        W35145  18.101   4.137   4.049  0.1662  0.0857 -0.2951
19677W        W35146  18.173   1.338  15.772 -0.4545  0.1684 -0.0172
19678W        W35147  12.409   0.335   3.334  0.0219  0.1397 -0.2878
19679W        W35148   1.117   7.380  14.078 -0.0190  0.2032 -0.1595
19680W        W35149   7.070  11.700   4.289  0.4390 -0.1406  0.0966
19681W        W35150   3.235   4.946  11.074 -0.0904  0.1018 -0.2357
19682W        W35151   9.345   6.504   3.893  0.0825  0.1477 -0.1651
19683W        W35152  10.125   9.456  14.226  0.2525 -0.1493 -0.0525
19684W        W35153  16.975   6.665  15.605 -0.1299 -0.0003 -0.3236
19685W        W35154   2.222   8.244   1.705 -0.0227 -0.1578 -0.2874
19686W        W35155   7.491  12.729   5.879 -0.1825 -0.0768  0.2497
19687W        W35156  10.434  13.433   3.056  0.0292 -0.0095 -0.1568
19688W        W35157   3.394   7.248  13.748 -0.1657  0.1528 -0.1339
19689W        W35158   1.133   9.842  13.315 -0.0027 -0.0993 -0.2488
19690W        W35159  13.230   0.974   0.703  0.3094  0.6614  0.2409
19691W        W35160  17.607  11.630  13.501 -0.2000 -0.2011 -0.0099
19692W        W35161  11.724   4.655  14.258  0.0058 -0.2136 -0.0527
19693W        W35162  16.672   0.561   4.459  0.0073  0.1933 -0.1369
19694W        W35163   3.451  13.078  11.648  0.0582  0.1852  0.0579
19695W        W35164  13.134  15.046   4.048  0.1141 -0.2133  0.0248
19696W        W35165  16.873   3.231  12.377 -0.3161 -0.0214  0.0420
19697W        W35166   8.363  16.308   3.111  0.1240  0.0169 -0.0523
19698W        W35167  18.252  12.125  10.863  0.2296  0.2583 -0.2699
19699W        W35168  15.050   1.980   3.821  0.3616  0.2363  0.1600
19700W        W35169  12.850  12.028   0.035  0.0874  0.0100  0.0348
19701W        W35170  13.936   9.046   5.295  0.1026  0.2040 -0.0892
19702W        W35171  11.930   7.317   5.149  0.2437  0.3310 -0.0979
19703W        W35172   5.008   9.176  12.403 -0.0060  0.1984 -0.0575
19704W        W35173  14.307   2.925   0.682 -0.0321  0.0007  0.2025
19705W        W35174  13.224  13.196   1.446  0.0506  0.0471 -0.1747
19706W        W35175  13.231   0.900  12.291  0.0757 -0.0698  0.1461
19707W        W35176   1.370   0.736   1.176  0.1561 -0.0933 -0.1788
19708W        W35177   5.430   3.823   2.820 -0.2669 -0.1243 -0.0318
19709W        W35178  12.416  12.798   0.475  0.0200 -0.0466 -0.4003
19710W        W35179   6.670  13.679  12.556  0.2335  0.0588  0.2083
19711W        W35180   3.294  15.003   0.408  0.1080 -0.0116  0.0252
19712W        W35181   3.863   3.756   4.900  0.1209 -0.2540 -0.4082
19713W        W35182   8.287   4.086  15.330  0.1055 -0.1601 -0.1099
19714W        W35183   6.220   9.990   4.950 -0.1061  0.0907  0.1114
19715W        W35184  12.446  12.530  13.388  0.1575 -0.0835 -0.2867
19716W        W35185  17.540   2.052  14.447 -0.3355 -0.4433 -0.2140
19717W        W35186   3.952   9.001   1.538 -0.0837  0.1082 -0.0982
19718W        W35187  11.864   1.690   4.281  0.1627  0.1684  0.0907
19719W        W35188  13.162   4.239   5.621  0.1825  0.2740 -0.0211
19720W        W35189   3.969   8.400  14.302  0.2719 -0.1471 -0.0952
19721W        W35190  10.827  17.951  12.451  0.2808 -0.0271  0.0212
19722W        W35191  12.784  16.241   0.972  0.1161  0.0512  0.0441
19723W        W35192  16.688  10.579   1.870  0.3162  0.1386 -0.0520
19724W        W35193   9.703  15.746  12.995  0.2099 -0.0118  0.1504
19725W        W35194   2.409   2.312   3.931  0.2841 -0.0982 -0.0000
19726W        W35195  15.133   8.296   2.246  0.1013  0.0621 -0.1690
19727W        W35196   3.671   8.382  12.521  0.0970  0.1909 -0.2402
19728W        W35197  11.269   6.915  11.191  0.0284 -0.5006  0.1357
19729W        W35198   2.644  18.061  13.372  0.0092  0.1803  0.0451
19730W        W35199   2.971  14.988  12.809  0.2975 -0.0742 -0.0280
19731W        W35200  16.516   8.105  15.613 -0.2023  0.1385  0.0090
19732W        W35201  15.110   0.127  16.109  0.3586 -0.0658 -0.5939
19733W        W35202   5.699  13.952   0.183 -0.0107  0.0274 -0.0393
19734W        W35203   9.044  17.501   4.845  0.0522  0.2321 -0.1521
19735W        W35204  17.490   0.372   5.075  0.1248 -0.1598 -0.0841
19736W        W35205  16.298   2.890  10.428  0.0425 -0.0919 -0.3068
19737W        W35206  13.108   2.165  12.595 -0.0124  0.1373 -0.2113
19738W        W35207   2.026   1.505  10.166 -0.2476  0.1279 -0.1403
19739W        W35208   4.517  18.045   5.398  0.0662 -0.5021 -0.0187
19740W        W35209   8.328   2.176   5.821 -0.0943 -0.1038 -0.0605
19741W        W35210  10.070   1.690   0.183 -0.1611 -0.0656 -0.1173
19742W        W35211   9.717   8.386   6.169  0.0239  0.0287 -0.1604
19743W        W35212  11.836   8.040  11.856  0.2200  0.1548  0.0713
19744W        W35213   1.353  16.674  15.577 -0.1121 -0.2084 -0.0951
19745W        W35214  11.369   1.743   4.041  0.2064 -0.1803 -0.0185
19746W        W35215   5.806   9.839  11.317  0.1769  0.0279 -0.1256
19747W        W35216   7.606   8.154  14.720  0.1200 -0.0372 -0.1298
19748W        W35217   5.235  17.472  13.645 -0.1192 -0.2415 -0.3572
19749W        W35218   1.476   7.508   2.088  0.2278  0.6111  0.2358
19750W        W35219   7.249   8.619   1.041  0.1642 -0.1149  0.0036
19751W        W35220  17.906  16.268  12.072 -0.0340  0.0440 -0.2274
19752W        W35221   9.457  17.609  12.576 -0.0506 -0.0105  0.2694
19753W        W35222  15.230  11.706   4.534  0.3476  0.0202 -0.0172
19754W        W35223   7.055   2.314  14.343  0.0542  0.0238 -0.0251
19755W        W35224   7.722  13.793  10.186 -0.1595  0.0425  0.2847
19756W        W35225  13.657  15.456   5.354 -0.4470 -0.0680 -0.0125
19757W        W35226  10.271   1.084  16.167 -0.7027 -0.1057  0.0731
19758W        W35227   9.046   0.715   3.111 -0.1110  0.2462  0.3130
19759W        W35228  17.144   3.327   1.942 -0.4448  0.1144 -0.4845
19760W        W35229  16.424   9.066   2.004  0.0300 -0.0475  0.3369
19761W        W35230  15.931  14.009   2.571  0.0627 -0.2219 -0.0929
19762W        W35231   6.457   8.916   6.027 -0.1352  0.4006 -0.1591
19763W        W35232  15.513   9.135   2.923 -0.1916 -0.2630 -0.0227
19764W        W35233  16.151  15.584  11.946 -0.2006  0.1284 -0.2601
19765W        W35234  15.686   8.661  14.601  0.1570 -0.1496 -0.0085
19766W        W35235   1.669   5.212   4.731 -0.0457 -0.0905  0.0525
19767W        W35236  13.577  16.555  16.118 -0.0788  0.1826 -0.0596
19768W        W35237  18.235  14.642  11.914  0.0126  0.0689 -0.0895
19769W        W35238   3.400   2.317   2.111 -0.0470 -0.0834 -0.2691
19770W        W35239   0.540   8.538   5.533  0.4025 -0.0693  0.0333
19771W        W35240   9.852  16.541   4.168  0.3200  0.1806 -0.3306
19772W        W35241   1.615  11.828  11.626  0.2068 -0.4039 -0.1611
19773W        W35242  11.810   3.095   5.134 -0.1923  0.1459  0.0675
19774W        W35243   6.894   7.919   0.712 -0.1839  0.1425 -0.3658
19775W        W35244  10.128  13.092   0.977 -0.0712  0.0940  0.0935
19776W        W35245   2.443   5.860   0.704  0.0822  0.1591  0.0314
19777W        W35246  16.381   4.361   4.916  0.0991 -0.2581  0.1151
19778W        W35247   9.681  16.750  15.155 -0.0410 -0.0187  0.2092
19779W        W35248  11.402   6.098   2.316  0.0644  0.1546 -0.0439
19780W        W35249   0.924  17.956  14.078  0.3940 -0.1698  0.0055
19781W        W35250  14.392  10.190   1.755  0.2670  0.1095  0.0169
19782W        W35251  12.072  14.699  15.946  0.1943  0.0855  0.0164
19783W        W35252  17.456  16.594  14.263  0.0842 -0.2467  0.1774
19784W        W35253   6.223  12.792  11.304 -0.2532  0.0912  0.3201
19785W        W35254   6.131  16.325   2.811  0.5298 -0.2008 -0.1857
19786W        W35255   0.316   0.126   4.701  0.0619 -0.0364  0.4148
19787W        W35256   9.177   4.616  12.540 -0.1222 -0.1445 -0.3002
19788W        W35257   4.634   2.585   4.837  0.0797 -0.0040  0.1251
19789W        W35258  12.376   5.047  13.558  0.2858  0.1647 -0.0816
19790W        W35259  14.019  11.042   2.848  0.4236  0.1671 -0.0724
19791W        W35260  10.087   6.057   0.287  0.2104  0.0544  0.0416
19792W        W35261   8.014  12.698   3.668  0.0927 -0.0103 -0.0964
19793W        W35262   4.517  11.355  15.855 -0.0428 -0.0212  0.0561
19794W        W35263  12.679  13.418   5.615 -0.3466  0.1805  0.2793
19795W        W35264   0.441  12.214   1.031 -0.1426 -0.2931  0.3567
19796W        W35265  13.834   3.329   1.953 -0.0956 -0.0852  0.1342
19797W        W35266  17.135  12.384   1.770  0.3773 -0.2717 -0.1614
19798W        W35267   9.916   0.970  12.103  0.3181  0.1167 -0.0156
19799W        W35268  13.422   1.365  13.686 -0.0514 -0.1446 -0.0557
19800W        W35269  10.028  10.778   4.753 -0.4162 -0.2972  0.1735
19801W        W35270  15.560   4.216   5.863 -0.0647 -0.0678 -0.2942
19802W        W35271  15.775   1.211  14.527 -0.0970  0.1942  0.1270
19803W        W35272  12.247   9.995   4.122  0.0025 -0.0227  0.2083
19804W        W35273   0.936   4.865   0.028  0.1831  0.0862 -0.0424
19805W        W35274   1.601   0.788   5.301  0.0363  0.1179  0.1566
19806W        W35275   4.867  13.529  11.259 -0.1085  0.3712  0.0382
19807W        W35276   5.309   9.846  14.545  0.1476  0.2327  0.0895
19808W        W35277  17.353  12.838   0.256 -0.1497 -0.0863  0.1559
19809W        W35278  18.098  11.814   0.990  0.0450 -0.0759 -0.0001
19810W        W35279  12.214  14.774  15.031 -0.1377  0.0262 -0.0270
19811W        W35280   2.642  11.322   1.003  0.3394 -0.1017  0.1965
19812W        W35281  13.472   5.281   3.846 -0.2814  0.0700  0.0224
19813W        W35282   9.136   2.619  14.959 -0.4426 -0.0329  0.2972
19814W        W35283   2.037   9.159   0.396  0.0255 -0.0948 -0.1596
19815W        W35284  18.100  18.261   3.975 -0.0356  0.0866 -0.0316
19816W        W35285   2.246  15.035   5.667 -0.0633  0.0761  0.0196
19817W        W35286  16.148   7.987   4.237 -0.1268 -0.0927  0.1071
19818W        W35287   6.570  16.031  12.010 -0.0140  0.0937 -0.1258
19819W        W35288   3.866   2.733   1.703  0.3607 -0.1639 -0.0719
19820W        W35289   4.205   9.947  12.842 -0.2614  0.1438  0.1752
19821W        W35290   4.221   3.878  14.363  0.0629  0.3594  0.0843
19822W        W35291  10.171   6.482   5.180 -0.0560 -0.2339  0.1061
19823W        W35292   3.871  14.713   1.842 -0.0518  0.0124  0.0002
19824W        W35293  14.579  10.878   3.589 -0.3611 -0.2468 -0.1239
19825W        W35294  16.011  14.534  15.218 -0.3295  0.1542  0.0153
19826W        W35295  13.029  15.260   4.818 -0.3021  0.1233  0.1345
19827W        W35296  12.038   6.795   5.025  0.3242 -0.0531  0.0379
19828W        W35297   1.170  10.108  14.400  0.2260 -0.0057 -0.0024
19829W        W35298   5.388   2.875  13.637 -0.3912  0.2464 -0.0117
19830W        W35299  13.161  17.957  12.583  0.1045  0.1394  0.4018
19831W        W35300   1.534  17.528   2.959  0.2338 -0.1181 -0.1351
19832W        W35301  11.080  12.035  11.579 -0.1375  0.1551 -0.2532
19833W        W35302   5.793   5.841   3.058  0.0736 -0.0932 -0.1584
19834W        W35303  15.698   3.924   2.842  0.0729 -0.1947  0.1504
19835W        W35304   1.505   9.982   1.067 -0.1243 -0.3051  0.2636
19836W        W35305   2.672   1.602  12.858 -0.1711  0.1724  0.2400
19837W        W35306   3.291   4.016   0.764 -0.0537 -0.2512 -0.0197
19838W        W35307   8.861  11.125   0.005  0.1041 -0.2307  0.2208
19839W        W35308  10.672   8.101   0.537  0.2263 -0.0777 -0.4521
19840W        W35309   5.503   6.629   5.808 -0.2510  0.2294  0.2470
19841W        W35310   8.238   8.141   4.859 -0.3537 -0.0590  0.0271
19842W        W35311   2.513   5.411  14.362 -0.1028  0.1647 -0.2227
19843W        W35312  13.273  13.266   3.198  0.3491  0.1998  0.0507
19844W        W35313   8.907   4.005  12.231  0.0758  0.1482 -0.2372
19845W        W35314  14.600   5.282   1.467  0.3061 -0.2278 -0.3005
19846W        W35315  13.836  14.564  15.065  0.1037 -0.0316  0.1171
19847W        W35316  17.571   3.651   1.889 -0.1853 -0.1736  0.1893
19848W        W35317  16.543  12.327  15.373  0.0022  0.0692 -0.1105
19849W        W35318  17.950   5.225  13.243  0.0863  0.0469  0.1883
19850W        W35319  17.567  16.596   0.420  0.0806 -0.0204  0.1084
19851W        W35320  18.076  12.617  10.957 -0.3619  0.1499  0.0545
19852W        W35321   3.860  15.856  13.021 -0.1959  0.4279 -0.1455
19853W        W35322  13.906  10.367  15.721  0.0319 -0.1730  0.5157
19854W        W35323   1.963  13.632   4.449  0.0975  0.3822  0.0517
19855W        W35324  16.302  12.243   4.359 -0.2164 -0.1052 -0.5272
19856W        W35325   1.737   8.360   4.174  0.3197 -0.0925 -0.2714
19857W        W35326  10.533   8.579  12.272  0.0121  0.1438 -0.0822
19858W        W35327  16.191   1.811   2.312  0.0211  0.1417  0.0098
19859W        W35328   4.033   1.552   2.253  0.0106 -0.0393  0.2994
19860W        W35329  10.742  17.951  14.082 -0.3582 -0.1596  0.2796
19861W        W35330  16.442   7.865  10.415  0.0047 -0.1621  0.1266
19862W        W35331  12.945   8.350  14.634  0.0435 -0.1662  0.0213
19863W        W35332  12.026  18.196  12.541  0.0645 -0.3328 -0.0114
19864W        W35333   9.030  14.224  11.203  0.0983  0.4811  0.0773
19865W        W35334  11.488  14.638   1.827  0.3261 -0.1118  0.0114
19866W        W35335   4.299  16.943  10.198 -0.1614  0.2108 -0.0268
19867W        W35336   2.441   8.771   4.552 -0.0496 -0.3689  0.2286
19868W        W35337   9.317  17.047   1.070 -0.2518 -0.0301  0.2027
19869W        W35338   1.787   0.553   3.351 -0.0326  0.1666  0.0037
19870W        W35339   4.369  11.713  12.888 -0.0776 -0.0468  0.2656
19871W        W35340  13.138   3.287  12.316 -0.1904 -0.1281  0.1275
19872W        W35341  15.759   6.577   0.758 -0.1029 -0.1079 -0.2232
19873W        W35342   9.342   5.569  15.421 -0.2198  0.0133  0.2728
19874W        W35343  14.804   8.505  11.328  0.3223  0.0551 -0.0756
19875W        W35344  11.213   6.438  13.176 -0.1118 -0.3597 -0.1037
19876W        W35345   5.030  13.066   4.758  0.0636 -0.1368  0.0592
19877W        W35346  12.715   9.286  13.757 -0.3290 -0.2726 -0.0928
19878W        W35347   5.090  15.848  13.323  0.1496 -0.2430  0.1716
19879W        W35348   1.313   0.189   1.144 -0.1551  0.0548 -0.2089
19880W        W35349   2.849   6.179  15.658  0.0105  0.0483  0.1857
19881W        W35350   5.026  18.167  14.240  0.0374  0.3288 -0.0787
19882W        W35351  10.535  15.809   3.591 -0.3592 -0.2596  0.0537
19883W        W35352   8.042  14.175   0.620  0.2433  0.0390  0.1043
19884W        W35353  14.195   9.704   1.467  0.1330 -0.4180  0.0760
19885W        W35354   5.059  11.116   1.269  0.2217  0.4010  0.0468
19886W        W35355   6.933  14.980   3.465  0.1151 -0.0836  0.4500
19887W        W35356  16.584   5.043  10.367 -0.1594  0.4945  0.1756
19888W        W35357   8.587   7.054  14.866 -0.1643 -0.1095  0.0014
19889W        W35358  17.098  14.055  12.884 -0.1232  0.3528  0.1601
19890W        W35359  10.653   5.398   3.250 -0.0284 -0.2754 -0.1129
19891W        W35360  16.217   4.267  13.428  0.0254  0.0331 -0.2716
19892W        W35361   3.055   2.184   0.236  0.3065 -0.0413 -0.1300
19893W        W35362  15.459  14.354  13.468  0.1209  0.1258  0.1470
19894W        W35363   6.302  11.110   1.805  0.1136  0.2946  0.2011
19895W        W35364   6.170   5.448  15.737 -0.0519 -0.0491  0.2664
19896W        W35365   9.659  13.583  15.822  0.3827 -0.1008  0.1929
19897W        W35366   2.206   4.022   4.438 -0.1007 -0.1275  0.0167
19898W        W35367  13.714   6.328  12.966 -0.0489 -0.0243  0.2384
19899W        W35368   3.273  10.003   5.077  0.0443 -0.2842  0.1870
19900W        W35369  17.745   1.664  14.093 -0.1496 -0.1375 -0.0071
19901W        W35370  14.975   6.972   1.431  0.1076 -0.0198 -0.0769
19902W        W35371  17.445   2.402  14.764  0.2228  0.0473 -0.0468
19903W        W35372   4.654  10.984  12.209  0.1321  0.2203 -0.2505
19904W        W35373   7.348   8.154   0.766 -0.0801 -0.2001 -0.0412
19905W        W35374   9.929   5.564  11.671  0.1704 -0.0712 -0.3818
19906W        W35375   9.402   6.198   0.072  0.1449  0.0249 -0.1753
19907W        W35376   5.465  12.803  12.287  0.0057  0.4379  0.2697
19908W        W35377  13.041  14.679   3.095 -0.1124 -0.1514 -0.1797
19909W        W35378  17.448  16.340  15.972  0.0434  0.0797  0.0571
19910W        W35379  14.631   5.630  11.406  0.0279 -0.1019  0.0659
19911W        W35380   2.323   3.128  12.102  0.0275  0.1327 -0.2042
19912W        W35381  11.061   3.199   4.417  0.0399  0.2768  0.0593
19913W        W35382  16.885  12.074   0.275  0.1627  0.0791  0.0745
19914W        W35383   7.835  17.308  15.336  0.0599  0.1274  0.1106
19915W        W35384   0.104  13.271  11.932 -0.1847 -0.0890  0.0608
19916W        W35385   7.607   9.917   3.658 -0.2482 -0.0815 -0.0712
19917W        W35386   9.065   3.593  12.495 -0.0729  0.1462  0.2038
19918W        W35387   2.948  14.760   4.404  0.0288 -0.0572  0.1383
19919W        W35388  10.519   9.508   2.158 -0.1068  0.0823 -0.2741
19920W        W35389   9.079   3.695   1.925 -0.2919  0.0397  0.3818
19921W        W35390  15.954   6.055   5.438  0.2805 -0.0397  0.0479
19922W        W35391   0.990  11.495  15.535 -0.2107 -0.1190  0.0630
19923W        W35392   6.910  14.143  15.906  0.4620 -0.1303 -0.2012
19924W        W35393  17.643  13.469  11.687 -0.1255 -0.0572  0.0359
19925W        W35394   8.305   9.180  12.519  0.0339 -0.0945 -0.2182
19926W        W35395   7.620   2.258  11.356  0.1080  0.1840 -0.0006
19927W        W35396  17.251  11.340  15.104  0.2005 -0.1316 -0.0519
19928W        W35397   9.045   5.354   5.699  0.0656  0.1347  0.0273
19929W        W35398   6.139   3.933   4.898  0.0226 -0.2897  0.2182
19930W        W35399  10.467   6.737  14.293 -0.3819 -0.1446 -0.2475
19931W        W35400   3.391   6.374   1.439  0.0511 -0.1543 -0.0388
19932W        W35401   7.948  17.669  12.860  0.0430  0.2297  0.0809
19933W        W35402   8.833  12.994  11.402 -0.1870 -0.2843  0.2087
19934W        W35403  16.073  18.068   5.122  0.2171 -0.0408  0.0043
19935W        W35404   3.414  11.854  14.578 -0.0657 -0.1634 -0.0505
19936W        W35405  14.346   3.166   5.263 -0.0097  0.2363  0.0920
19937W        W35406  17.630   4.350   0.087  0.1079  0.0812  0.2104
19938W        W35407  15.355   5.553  11.577 -0.2869  0.0785  0.0286
19939W        W35408   6.152   5.097  11.530  0.1909 -0.0659  0.4291
19940W        W35409   5.383   0.768  13.656 -0.4855 -0.0284 -0.0675
19941W        W35410  10.803  12.571   0.650  0.0786 -0.1843  0.0816
19942W        W35411   7.548  10.222   4.134  0.0489 -0.4591 -0.1312
19943W        W35412  11.745  15.316  11.455  0.2300 -0.2756 -0.0812
19944W        W35413  16.820   5.912  16.012  0.2576 -0.2070  0.0177
19945W        W35414   4.058  12.752  15.824  0.0195 -0.1615 -0.0267
19946W        W35415  12.070  15.636  11.694 -0.0793 -0.1779 -0.3369
19947W        W35416  16.614  17.101  12.206 -0.0909 -0.2949 -0.2296
19948W        W35417  16.360   6.793  12.509 -0.0385 -0.1161  0.0338
19949W        W35418  10.641   1.776   0.272  0.0653  0.0936 -0.0829
19950W        W35419   2.606  13.256  15.296  0.3081  0.1002  0.0647
19951W        W35420  11.217  10.238  13.769 -0.0675 -0.0443 -0.1350
19952W        W35421  10.929  14.571   6.272 -0.2783 -0.0948  0.0142
19953W        W35422   2.851   1.038  14.887  0.0265  0.3129 -0.1127
19954W        W35423   8.362  17.498   3.843 -0.0717 -0.4443 -0.3059
19955W        W35424   0.105  12.249   1.394  0.1174 -0.0114  0.0223
19956W        W35425   0.302  11.819  13.297 -0.1154  0.1532  0.1268
19957W        W35426   4.806  15.824   1.646 -0.1296  0.0420  0.1798
19958W        W35427  11.722  12.388   1.762  0.1546  0.3643  0.1165
19959W        W35428  12.084  12.951   0.906  0.0401  0.1615 -0.0176
19960W        W35429   0.340   6.176  13.359 -0.2619 -0.2896 -0.2415
19961W        W35430  14.237   3.808  11.472 -0.1291  0.2692 -0.0024
19962W        W35431   4.380  11.682   2.744 -0.1500  0.1038  0.1739
19963W        W35432  12.411   4.649  15.810  0.2599 -0.0649  0.0076
19964W        W35433   1.384   3.829  12.667  0.1182 -0.2020  0.0483
19965W        W35434   8.637   4.056   0.202  0.0930  0.2426 -0.0809
19966W        W35435  14.302   4.797  13.419 -0.0097 -0.0253 -0.0351
19967W        W35436   4.005   2.203  12.846 -0.4199  0.1381  0.1092
19968W        W35437   4.951  13.592   2.686 -0.2028 -0.0116 -0.0272
19969W        W35438  14.893  12.644  13.979  0.1173  0.0956 -0.2413
19970W        W35439  12.443   7.874   3.510 -0.0771  0.0023  0.1487
19971W        W35440   7.166  16.718   1.857  0.0854 -0.0729 -0.1921
19972W        W35441   1.007  13.847  11.657 -0.0167 -0.3717  0.2060
19973W        W35442  12.485   6.180  12.757 -0.6476  0.1185 -0.1351
19974W        W35443   9.151   6.553   1.167 -0.2441 -0.0616  0.0268
19975W        W35444  15.303   0.663   0.700  0.1761  0.3010  0.0491
19976W        W35445  10.624   4.945   5.610  0.1563  0.0263 -0.0830
19977W        W35446   6.565   0.440  15.073 -0.3159  0.0817  0.3467
19978W        W35447   9.816   9.129  11.815 -0.1034  0.0587  0.1498
19979W        W35448   3.720   3.915   3.067 -0.2667 -0.1453 -0.1235
19980W        W35449   5.388  15.430   0.895 -0.1306 -0.0426  0.1013
19981W        W35450   6.771  16.977  14.680 -0.1735 -0.4839  0.0056
19982W        W35451   6.429   7.499  16.044 -0.0228  0.1879  0.0132
19983W        W35452   5.500  17.710  15.470  0.1425 -0.1470 -0.0658
19984W        W35453  15.026   2.867   2.919  0.3956 -0.3775 -0.1153
19985W        W35454   3.722   3.157  15.391  0.3191 -0.1839  0.0609
19986W        W35455  12.254  14.657   5.228  0.3687 -0.4638  0.0608
19987W        W35456   9.532   5.351   1.754 -0.1870 -0.0900 -0.1916
19988W        W35457   8.853   1.781   1.609  0.2634 -0.0069 -0.0245
19989W        W35458   0.206  16.120  13.400  0.0840 -0.0713 -0.1420
19990W        W35459  14.604  15.850  13.769 -0.1456  0.0094  0.0917
19991W        W35460   8.294  17.469  15.140  0.3074  0.1157  0.0723
19992W        W35461  18.076  10.352   2.307  0.2776  0.1402  0.2698
19993W        W35462  12.513   0.095  15.420 -0.1845 -0.1547  0.0269
19994W        W35463  16.507  13.712  12.181  0.0769 -0.0147  0.1414
19995W        W35464   2.377  15.679  10.034  0.3993  0.1947  0.0708
19996W        W35465  10.081   1.154   0.914  0.3778 -0.2225  0.1288
19997W        W35466  17.484  12.823  12.868 -0.0037  0.0686 -0.0821
19998W        W35467  17.436   3.030  11.059 -0.2199 -0.2660  0.2902
19999W        W35468   2.377   9.534   3.967  0.0429  0.1724 -0.1306
20000W        W35469  15.356   9.055  12.423  0.4029  0.3284 -0.0277
20001W        W35470   3.545  14.398   1.436  0.1959  0.0083  0.1576
20002W        W35471  12.023   7.006   1.998 -0.2047 -0.3678 -0.3223
20003W        W35472  11.054   5.702  13.799 -0.1081 -0.2008 -0.0452
20004W        W35473   9.084   3.537   3.237 -0.1410  0.0872  0.3813
20005W        W35474   3.841  13.800   1.474 -0.1385  0.1217  0.0896
20006W        W35475   8.097   1.775  13.635 -0.0439  0.1757 -0.2293
20007W        W35476  12.940   8.212  11.698 -0.5350 -0.1022  0.1107
20008W        W35477   4.121   2.819  11.651 -0.1347 -0.1474  0.0927
20009W        W35478  13.360   8.800   0.578  0.1034 -0.2636  0.1327
20010W        W35479  14.748   9.667  12.919 -0.0856  0.1304 -0.0783
20011W        W35480   1.308  16.179  15.698  0.2592 -0.0121 -0.1528
20012W        W35481  11.487   2.101  11.546  0.0859  0.1912 -0.0936
20013W        W35482  14.376   0.302   6.105 -0.1550 -0.3058 -0.0249
20014W        W35483   7.968  16.271   2.744  0.0271  0.2524  0.3440
20015W        W35484   2.512   2.481   1.035 -0.0563  0.2689  0.0708
20016W        W35485   0.082   9.301  12.995  0.1768  0.0174  0.1828
20017W        W35486   5.841   4.159  12.970 -0.2998  0.1851 -0.0365
20018W        W35487   6.926   4.812   1.318  0.3308  0.0216  0.0476
20019W        W35488   2.285  10.769  12.798 -0.0612  0.0051 -0.0904
20020W        W35489   5.305   4.350   0.874  0.1062  0.4159 -0.0435
20021W        W35490   3.050  16.780  12.318  0.1364  0.2386 -0.0186
20022W        W35491   7.377  11.129   1.145 -0.0301 -0.1564  0.0034
20023W        W35492  11.859  12.443   1.264  0.0166 -0.2061  0.0706
20024W        W35493  11.518  17.105  13.497  0.2519  0.0947  0.0345
20025W        W35494  14.906   5.128   1.820 -0.1531  0.2259 -0.0597
20026W        W35495   7.015   7.661  11.926 -0.2357  0.2194 -0.1815
20027W        W35496   9.082   7.677   2.786  0.0189  0.1350 -0.0580
20028W        W35497   9.154  13.980   0.287  0.1529 -0.1177  0.2336
20029W        W35498   4.955   9.250   3.742 -0.0028 -0.1837  0.0429
20030W        W35499   7.272   6.831   6.223 -0.2002  0.1995  0.0013
20031W        W35500  12.154   9.404   2.837  0.0531  0.0381  0.0366
20032W        W35501  14.022  14.227  13.950  0.2364  0.0415  0.2239
20033W        W35502   2.540   3.873  16.163 -0.2757 -0.1292 -0.1055
20034W        W35503   5.624   7.967   1.361  0.1870 -0.1627  0.0236
20035W        W35504   6.206  18.118  15.948 -0.2162  0.1381 -0.2716
20036W        W35505  13.835   8.964   2.383  0.3173 -0.1806 -0.0611
20037W        W35506   8.666   5.027   1.384  0.0757  0.3463 -0.1709
20038W        W35507   0.318  11.748  14.374  0.2490  0.2620  0.0817
20039W        W35508  18.088   0.211  12.411 -0.2193 -0.2088 -0.1188
20040W        W35509  15.942  16.203   2.089  0.0502 -0.0949 -0.0184
20041W        W35510   7.968   7.445  15.871  0.1135 -0.0399  0.2495
20042W        W35511  15.366   5.343  15.648  0.1379 -0.1556 -0.3980
20043W        W35512   0.156   2.792  13.885 -0.0684 -0.0340 -0.0080
20044W        W35513   2.851  17.212   2.529  0.0310  0.0524 -0.2166
20045W        W35514   7.848  17.727   6.020 -0.0313  0.3634 -0.4898
20046W        W35515   9.156  16.171  15.862 -0.0591 -0.0292  0.1550
20047W        W35516  14.706  12.348  14.939  0.0188 -0.0855 -0.2571
20048W        W35517   3.657   7.227  16.023 -0.1137 -0.1477 -0.0524
20049W        W35518   3.443   2.954  12.472  0.0672 -0.2438  0.1838
20050W        W35519   4.203  16.163  15.685  0.4251  0.1401 -0.1740
20051W        W35520   8.859  18.220  11.267  0.1134 -0.0608  0.0612
20052W        W35521   2.572  15.037  12.443  0.2110 -0.2022  0.3735
20053W        W35522  13.773   0.704   2.841 -0.0304 -0.0340  0.0876
20054W        W35523   1.465  13.992  15.326 -0.3788 -0.1863  0.3449
20055W        W35524   1.477   1.083  14.622  0.1815 -0.0834  0.2437
20056W        W35525  14.772   4.168  13.096  0.0289  0.0859  0.1210
20057W        W35526   4.542  10.556   3.533  0.4027  0.0192  0.2036
20058W        W35527  16.746  13.589  13.296 -0.0614  0.2191 -0.1026
20059W        W35528   7.493   3.357   4.655 -0.1515  0.0160 -0.1078
20060W        W35529  12.555   1.060   2.330 -0.0714 -0.1694  0.0013
20061W        W35530   7.285  15.523   4.167  0.1191  0.1128 -0.0006
20062W        W35531   5.681   1.826  14.486 -0.0640  0.1386 -0.3212
20063W        W35532  13.514   3.767   3.570  0.0256  0.0267 -0.0424
20064W        W35533  13.661   1.289   0.724 -0.0234 -0.1144 -0.1944
20065W        W35534   1.009   2.403  14.326  0.1434 -0.0324 -0.0374
20066W        W35535  11.415  17.528   2.216 -0.1955 -0.1085  0.0583
20067W        W35536  13.265  17.115   5.798 -0.2055 -0.1919 -0.1942
20068W        W35537  13.863   7.848   5.686  0.0533 -0.2344  0.0461
20069W        W35538  11.603   3.108  15.074  0.1088 -0.1784  0.1497
20070W        W35539   6.927  18.087   0.968 -0.2453 -0.0617 -0.2233
20071W        W35540   9.962   1.400  13.265  0.0139 -0.0037 -0.0355
20072W        W35541  15.538   0.087  14.534  0.2150 -0.0679  0.1097
20073W        W35542   5.361  17.859  11.975  0.1051  0.0864 -0.2623
20074W        W35543   8.534   3.660   2.543 -0.0343  0.2846  0.0277
20075W        W35544   8.267   7.861  13.589 -0.2734  0.0021 -0.1990
20076W        W35545   0.506  12.560  15.262 -0.1462  0.1201  0.0486
20077W        W35546  16.128  13.411   1.335  0.2299  0.0206  0.0572
20078W        W35547  10.391  13.646   4.620 -0.3221 -0.0725 -0.0800
20079W        W35548   3.597   6.612  14.860  0.1172 -0.0559 -0.0530
20080W        W35549   1.483   2.806   0.353 -0.0806 -0.1278 -0.0100
20081W        W35550   0.682  10.773   0.070  0.0340  0.1525  0.0681
20082W        W35551   8.671  18.008  12.301 -0.2865 -0.1227  0.1029
20083W        W35552   2.155   5.039   4.707  0.0205  0.0795 -0.0643
20084W        W35553  10.485   9.607  13.783 -0.1673  0.2675 -0.1467
20085W        W35554   6.105   2.163  16.087  0.1180 -0.3635  0.4627
20086W        W35555  10.248  12.668  15.784 -0.2307  0.0858  0.0998
20087W        W35556   9.444   0.024   5.260 -0.2265  0.0972  0.1184
20088W        W35557  10.515   5.207   0.370 -0.2992 -0.2756  0.1213
20089W        W35558   3.968  10.779   5.077  0.5600 -0.0540  0.1014
20090W        W35559  16.326   3.309   1.580 -0.1023 -0.2006 -0.1791
20091W        W35560   5.972   9.094  14.513  0.2371  0.0813 -0.1568
20092W        W35561  17.654  13.924   3.062  0.3914 -0.0255  0.0718
20093W        W35562  13.884  13.631  12.402  0.0716 -0.2723  0.2592
20094W        W35563  16.124  18.114   4.314  0.1558  0.0944 -0.2541
20095W        W35564   9.436  14.887   5.077 -0.3079 -0.2014  0.2808
20096W        W35565   5.860  13.233   4.143  0.0411 -0.0780  0.2734
20097W        W35566   1.336  15.993   1.215 -0.1658 -0.0548 -0.0201
20098W        W35567   5.932  15.411  16.052  0.0298  0.0402 -0.1915
20099W        W35568  12.376  18.152  12.879 -0.0706 -0.1252  0.0088
20100W        W35569  14.442   6.835  14.441 -0.2155  0.1776 -0.0617
20101W        W35570  14.517  17.562  12.547 -0.3454 -0.1505 -0.0533
20102W        W35571  10.627   5.972  12.689  0.0292  0.1016  0.1971
20103W        W35572   7.844   9.824   4.092 -0.2839  0.2639  0.2017
20104W        W35573   8.275  15.424  12.434 -0.1209  0.1358 -0.1944
20105W        W35574  11.185   2.860   5.245  0.1956 -0.5145  0.1567
20106W        W35575  15.588  13.159  15.951  0.0371  0.0480 -0.1350
20107W        W35576  17.929  16.642   1.365 -0.0818 -0.3859  0.3059
20108W        W35577   1.425  17.235  11.758 -0.0111 -0.0588  0.0624
20109W        W35578   3.914  13.646  15.816  0.3853  0.1217 -0.0317
20110W        W35579   1.858   4.172  11.406 -0.0179 -0.0189  0.0744
20111W        W35580  11.086   3.728   5.116 -0.3223  0.3006  0.0984
20112W        W35581  15.260  17.983   0.619 -0.1381 -0.1388 -0.0049
20113W        W35582   0.967   2.402  12.338  0.0261 -0.0689  0.1825
20114W        W35583   6.258   8.818   2.869  0.0340 -0.3342  0.0409
20115W        W35584   1.205   9.090   4.197 -0.4127  0.0600 -0.1182
20116W        W35585  16.954   4.738  14.568  0.0633 -0.3207 -0.0851
20117W        W35586  14.688   0.019  12.118 -0.1476  0.2819 -0.1101
20118W        W35587  15.677  11.966   2.890 -0.3545 -0.1801 -0.2747
20119W        W35588  10.264   9.928   0.137 -0.1409 -0.1660 -0.1844
20120W        W35589  14.048  12.719  13.908  0.1345  0.3135 -0.4031
20121W        W35590   6.340   0.139   0.167 -0.3461 -0.2997  0.1450
20122W        W35591   3.373   1.374   3.044  0.0187  0.0396  0.0761
20123W        W35592   3.181   0.663   0.894  0.1868 -0.0734 -0.1907
20124W        W35593  12.436   9.931  14.011  0.2065 -0.0935 -0.0525
20125W        W35594   5.810   2.013  11.212 -0.0502 -0.0617  0.0189
20126W        W35595  12.691  16.204  14.636  0.1462  0.2761  0.1784
20127W        W35596  17.176  16.541  11.029  0.3294  0.3516 -0.4444
20128W        W35597   5.679   9.057  10.461  0.2852  0.1252  0.1276
20129W        W35598   8.748  11.795  14.879 -0.1501  0.0788  0.1921
20130W        W35599  16.361   5.021  15.429  0.1142 -0.1117 -0.1187
20131W        W35600  11.291  12.900  16.025 -0.1571  0.3326 -0.3881
20132W        W35601   9.907  17.227   0.430 -0.0221  0.0730 -0.1690
20133W        W35602   8.351   4.146  12.341 -0.3170  0.0047 -0.1441
20134W        W35603   5.257   6.356  13.605  0.0733  0.1713 -0.0597
20135W        W35604   6.652   2.966   4.593 -0.0294  0.0149 -0.2469
20136W        W35605  15.204  10.998  13.508  0.1208 -0.0078  0.0577
20137W        W35606  15.550   9.082  14.266 -0.1660 -0.0922  0.0878
20138W        W35607  16.588  13.211   1.210 -0.0805 -0.1287 -0.4054
20139W        W35608  15.468   8.208  14.363  0.0529 -0.1325 -0.2630
20140W        W35609   7.939  12.930  12.325  0.0956 -0.3979 -0.1984
20141W        W35610  15.549   1.662  11.999 -0.0373 -0.1338 -0.1245
20142W        W35611   6.744  16.822   0.541  0.2738  0.0869 -0.0963
20143W        W35612   8.559   5.918  15.089 -0.0854  0.0001  0.0650
20144W        W35613  10.690   1.087   0.383 -0.1361 -0.2138 -0.1988
20145W        W35614   2.500  11.885   0.363 -0.2717  0.0870 -0.0344
20146W        W35615   4.848  10.029   4.973  0.0072  0.0206  0.0827
20147W        W35616   1.379  16.419   3.780 -0.1251 -0.1660  0.0990
20148W        W35617   4.807  12.609   0.141 -0.1609  0.1912  0.1503
20149W        W35618   0.177   4.483   2.274 -0.1103  0.0752 -0.2172
20150W        W35619  17.829   6.510   3.556  0.2852  0.1649 -0.0400
20151W        W35620  15.366  18.298   6.009 -0.3150 -0.1630  0.0143
20152W        W35621   4.568   9.371  14.024 -0.0625 -0.2313 -0.0668
20153W        W35622   1.337   1.739   4.466  0.2528 -0.3575  0.2097
20154W        W35623   9.344  16.440  11.122 -0.0886  0.0131 -0.1141
20155W        W35624  12.986   6.624   0.842 -0.0936 -0.0322  0.2321
20156W        W35625  14.722  16.051  12.730 -0.1861 -0.1345  0.2730
20157W        W35626  17.805   4.858   1.372  0.2341 -0.0054 -0.1144
20158W        W35627  13.891  13.398  12.864 -0.3314  0.1619 -0.1294
20159W        W35628   3.541   2.454   0.231  0.0994  0.1073  0.1716
20160W        W35629  14.666  15.779   3.921 -0.2862 -0.0937 -0.2492
20161W        W35630   1.281   6.977   4.420 -0.3479  0.0617  0.6752
20162W        W35631  12.175   6.986   5.475 -0.0518 -0.1024  0.0045
20163W        W35632  13.956  15.448  11.729  0.1061 -0.1487 -0.1571
20164W        W35633  15.293   2.104  12.673 -0.2671 -0.0603 -0.0661
20165W        W35634   1.080  17.643  13.669  0.0128  0.2798  0.2569
20166W        W35635   6.597  11.981   2.533 -0.2262 -0.0704 -0.0941
20167W        W35636  10.574   1.831   5.696  0.1128 -0.1205  0.4637
20168W        W35637  14.763  11.110   2.178  0.3240  0.0152 -0.1314
20169W        W35638   7.901   6.489  13.039 -0.1085  0.1420  0.3666
20170W        W35639  10.751   4.734  15.536  0.0287  0.2329  0.2998
20171W        W35640  16.579   9.954   2.360  0.0051 -0.3015 -0.1208
20172W        W35641  18.030  16.263  11.495 -0.1233 -0.0324 -0.0514
20173W        W35642   6.617  15.787   4.827 -0.1485 -0.1822  0.1313
20174W        W35643  11.487  13.080   5.008 -0.0063 -0.2283 -0.2403
20175W        W35644   1.241   6.966   4.931  0.3803  0.2767  0.1879
20176W        W35645   0.043  17.222   4.476  0.0614 -0.1380 -0.0027
20177W        W35646   4.405   2.809   4.005 -0.0379 -0.1992  0.0562
20178W        W35647  11.000  10.147  14.163  0.2270 -0.2125  0.2289
20179W        W35648   2.925  14.399  11.826  0.0797  0.0870 -0.1354
20180W        W35649  13.825   2.558   3.426 -0.3168 -0.0144 -0.0100
20181W        W35650   8.045   8.699  11.835  0.1548 -0.0518 -0.4206
20182W        W35651   3.055   8.162  13.586  0.3731 -0.0263 -0.2860
20183W        W35652  14.422   4.785   3.126  0.1482  0.0679 -0.2590
20184W        W35653   4.379   0.366  14.610  0.1891  0.2898  0.1581
20185W        W35654  13.439   3.035   4.271  0.2501 -0.0257 -0.0683
20186W        W35655  16.869  12.216   5.695 -0.2281  0.4666  0.1341
20187W        W35656   6.586   8.121  14.848  0.1688  0.2910 -0.1403
20188W        W35657   8.052   2.283  15.397  0.0443 -0.0486  0.0174
20189W        W35658  11.815   8.685  15.450 -0.2278  0.1339 -0.0959
20190W        W35659   5.552  16.914   3.358 -0.1040  0.2635 -0.0468
20191W        W35660   2.806  13.580  14.936  0.1274 -0.5469 -0.1111
20192W        W35661  13.590   6.725  14.458  0.1056 -0.1245 -0.1159
20193W        W35662   1.844   4.720   3.888 -0.0841 -0.0769  0.0886
20194W        W35663  18.193   3.129   1.133 -0.1187  0.0752  0.0234
20195W        W35664  12.108  15.107   4.946 -0.1806  0.1946  0.1113
20196W        W35665  17.910  10.084   2.724  0.1729  0.2519  0.3120
20197W        W35666   1.352   9.718  11.424  0.3159  0.3433 -0.2588
20198W        W35667  16.526   0.586   6.198  0.1307 -0.1181 -0.2721
20199W        W35668  13.710  12.925  14.172 -0.3129 -0.1599 -0.0452
20200W        W35669   8.258  15.335  11.779  0.3243  0.0782 -0.1954
20201W        W35670   3.746  13.805  11.426  0.1782  0.1353  0.1408
20202W        W35671   5.663  14.648  14.557 -0.1993  0.0567  0.3798
20203W        W35672   8.494  16.673   1.902 -0.0308 -0.0201 -0.1330
20204W        W35673   0.009   7.854   3.009  0.0171  0.1535 -0.0063
20205W        W35674   9.628  12.189   9.837 -0.1223  0.1630 -0.2953
20206W        W35675   7.825   4.452   1.086  0.0946 -0.0159 -0.1262
20207W        W35676  12.395   8.014  10.968  0.0126 -0.1692  0.1772
20208W        W35677  16.010   5.677  10.851 -0.1594  0.3033  0.1868
20209W        W35678   9.234   8.166   2.701 -0.2266 -0.2370  0.2269
20210W        W35679   6.313  15.495  15.546  0.1122 -0.1110  0.0188
20211W        W35680  17.422  13.346   2.395  0.1974  0.0298 -0.3388
20212W        W35681  10.637  14.656   5.520 -0.1862 -0.2098  0.0241
20213W        W35682   4.358   9.307  13.487 -0.2588 -0.2888  0.2590
20214W        W35683   9.800  16.093   2.802  0.0150 -0.1064 -0.0034
20215W        W35684   5.831  11.414  15.872 -0.0394 -0.0033  0.0464
20216W        W35685   2.674   5.233   5.648  0.2894  0.1243  0.0100
20217W        W35686   2.594   3.245   3.601  0.1818 -0.0550 -0.2261
20218W        W35687   5.428  13.301   4.881  0.3409 -0.1470 -0.1701
20219W        W35688  12.546   9.333  12.226  0.0283 -0.0843 -0.3835
20220W        W35689   8.744   9.329   2.770  0.4159 -0.0027  0.1723
20221W        W35690   4.872   2.711  11.730  0.2504 -0.0973  0.3095
20222W        W35691   1.575   1.502   3.519  0.0021  0.2222 -0.0160
20223W        W35692   1.558  17.981   3.868 -0.3596  0.1345 -0.2034
20224W        W35693   3.562   8.892  12.733  0.0013  0.0776  0.1671
20225W        W35694   4.701  10.315  11.263 -0.2829 -0.1388  0.2043
20226W        W35695   2.638   6.848  14.940  0.1397  0.0583 -0.3745
20227W        W35696   6.993   6.194   2.646 -0.0921  0.2850  0.1916
20228W        W35697  15.689  14.607  14.700  0.1283  0.2040  0.0313
20229W        W35698   7.598   4.509  12.851  0.1586 -0.1181  0.2453
20230W        W35699   2.164   7.697   3.535 -0.1204  0.1875  0.0286
20231W        W35700   5.872   4.644  13.064  0.3269  0.3020  0.4211
20232W        W35701  16.215  17.337  12.069 -0.1419 -0.1008 -0.1581
20233W        W35702  15.563   6.362  13.318  0.1185 -0.1305 -0.1121
20234W        W35703  11.471   6.038  11.820 -0.1534 -0.1204  0.1422
20235W        W35704   5.331  17.468   4.335  0.2887 -0.1271 -0.1306
20236W        W35705  11.712   8.527  12.925 -0.0366 -0.2831 -0.1561
20237W        W35706   0.161  12.574  15.636  0.0588  0.0863  0.0112
20238W        W35707   9.155  13.887  15.913  0.2138 -0.0870  0.2298
20239W        W35708   2.106   6.155  12.159 -0.1465  0.1524 -0.0833
20240W        W35709   7.049  17.252   1.773 -0.0926 -0.1158  0.0301
20241W        W35710   7.750   4.416  11.062 -0.3849  0.2001  0.0339
20242W        W35711   8.808   7.640  15.467 -0.3112 -0.1662  0.1283
20243W        W35712   1.747   3.137  10.915  0.2288  0.0424  0.4887
20244W        W35713  12.360   5.115   3.368  0.1337 -0.0319  0.1966
20245W        W35714   1.579   4.970  13.773 -0.1507 -0.0492  0.0197
20246W        W35715   3.726   3.528   5.432  0.1010 -0.0805 -0.1391
20247W        W35716   5.465  11.693  15.706  0.0374 -0.0104 -0.1733
20248W        W35717  16.128   8.244   9.620  0.2086  0.0815 -0.0540
20249W        W35718   5.403  10.447  13.876  0.1858 -0.3019  0.0207
20250W        W35719   0.588  17.672   4.162 -0.3037 -0.0917  0.1639
20251W        W35720   8.133   3.500   1.427  0.0933  0.2233 -0.1229
20252W        W35721   6.761  15.356   0.389 -0.0996  0.0923  0.0192
20253W        W35722   8.229   9.537  15.994  0.0309  0.1858 -0.0279
20254W        W35723   8.121  16.608   1.005 -0.2036  0.0386  0.0932
20255W        W35724   2.520   7.739   0.054 -0.2594  0.0836  0.1771
20256W        W35725   7.954   8.011  12.489 -0.0663 -0.1155  0.0807
20257W        W35726   7.649   6.030  12.892  0.0075  0.1310  0.2754
20258W        W35727  14.816   6.234   3.903  0.0301 -0.0690 -0.0711
20259W        W35728   3.134   1.471  11.478 -0.1266 -0.2264  0.1710
20260W        W35729   9.632   5.628  15.809  0.2005  0.0011 -0.1036
20261W        W35730  12.915   3.787  12.720  0.2907  0.1384  0.0466
20262W        W35731  10.302  11.437  13.068  0.2974  0.1753  0.0949
20263W        W35732   1.193  10.453   4.054  0.0672 -0.0788 -0.3221
20264W        W35733  15.638   0.795  13.337 -0.0844  0.0976 -0.1854
20265W        W35734  15.394  18.213  15.199  0.0059 -0.1604 -0.1211
20266W        W35735   4.038   3.147   4.152 -0.2237  0.0140 -0.2147
20267W        W35736  11.901   9.505  10.737 -0.1894  0.0866  0.0148
20268W        W35737   3.219  15.486  11.915  0.0962  0.0083 -0.2578
20269W        W35738   8.630  17.039   3.227 -0.1990  0.1518  0.0108
20270W        W35739   3.613   0.528  14.596  0.0276  0.1065  0.0870
20271W        W35740   2.580   1.110  12.843 -0.3035  0.1449 -0.1985
20272W        W35741   4.457  16.148   5.016 -0.0356  0.2849 -0.1298
20273W        W35742  17.720   7.115  13.273 -0.1946  0.0530 -0.0095
20274W        W35743  18.005   9.120  16.051  0.0671  0.0651 -0.1364
20275W        W35744   9.191  13.190  12.412 -0.0774  0.0012  0.1780
20276W        W35745  14.159   7.456   3.416 -0.1878  0.0175  0.0730
20277W        W35746  10.435   8.428   4.369  0.1130 -0.0260 -0.3563
20278W        W35747  17.217   9.848  14.499 -0.2430  0.0294 -0.2284
20279W        W35748  14.067  16.565  11.677  0.2037  0.0487  0.1765
20280W        W35749   2.115  14.859  12.389 -0.2311 -0.0368  0.0807
20281W        W35750   2.816  15.873  13.517  0.0738  0.1586 -0.2786
20282W        W35751  10.563  13.057   0.605 -0.1872  0.0372  0.3077
20283W        W35752   9.058   6.461  10.421  0.1638 -0.0086  0.0347
20284W        W35753   8.183   5.306   3.728 -0.3453  0.0710  0.0673
20285W        W35754  10.504   8.173   4.801  0.1739 -0.1467  0.1061
20286W        W35755   7.362  10.834   3.856 -0.2475  0.1720 -0.0344
20287W        W35756  18.047  10.171  14.378 -0.0364  0.1242  0.0972
20288W        W35757   2.660   1.585   2.566  0.1942 -0.0697 -0.1279
20289W        W35758  14.319   8.621  15.223  0.2310  0.1728  0.1053
20290W        W35759   6.186   9.517  14.736 -0.0298  0.0680  0.1804
20291W        W35760  11.531  11.452  12.505 -0.0111  0.0938 -0.3616
20292W        W35761   9.262  16.480   4.850  0.1528 -0.2839  0.2409
20293W        W35762   2.786  15.062   0.065  0.0378 -0.2195  0.0237
20294W        W35763   2.410  10.890   1.489  0.1916 -0.1517  0.0685
20295W        W35764  12.887  12.600  15.298 -0.0047  0.2485  0.1051
20296W        W35765   5.208   8.351  14.795 -0.4760  0.0971  0.2330
20297W        W35766  16.157   4.564   2.460 -0.0033 -0.1795  0.1049
20298W        W35767  15.503  14.004  12.281  0.0758 -0.0408 -0.3278
20299W        W35768  11.767   3.891  13.697 -0.2355  0.0272  0.1035
20300W        W35769  12.445   2.620   3.504 -0.2496 -0.1449  0.1249
20301W        W35770   8.802   8.053   0.639  0.0112  0.2172 -0.3254
20302W        W35771  11.469  15.900  15.780 -0.0685  0.0136  0.0555
20303W        W35772  17.526  11.937   4.143  0.5405  0.0989 -0.5426
20304W        W35773  13.732   4.738   2.959  0.2947  0.0525 -0.0671
20305W        W35774  15.417   3.011   0.480 -0.3278  0.2816 -0.0402
20306W        W35775  14.204   4.716   0.358 -0.1640 -0.1279  0.1140
20307W        W35776  13.795   2.183  12.106  0.0469 -0.1799 -0.2535
20308W        W35777   2.310   9.516  13.701 -0.3998  0.0674 -0.0269
20309W        W35778  14.432   0.525   5.649  0.0264  0.0634 -0.2176
20310W        W35779   0.793   4.103  12.802 -0.0319 -0.2238  0.1292
20311W        W35780  11.021   4.218  14.306 -0.1895  0.0076 -0.0201
20312W        W35781   8.895  13.536   4.116  0.0097 -0.1762  0.0281
20313W        W35782  17.738  16.272   1.647  0.2662  0.1967 -0.0408
20314W        W35783  14.626  14.644   3.940 -0.0874  0.1910  0.1541
20315W        W35784   0.555  12.924   1.952  0.4030 -0.2357 -0.0451
20316W        W35785   5.985   2.676  10.978  0.2249 -0.1345 -0.1267
20317W        W35786   9.529  17.166  15.469 -0.0046  0.0784  0.2553
20318W        W35787   7.914  13.335   0.234 -0.0504 -0.1284  0.0970
20319W        W35788  11.674   2.546   2.325  0.2188 -0.0208 -0.0080
20320W        W35789   4.200  14.045  16.014 -0.1811 -0.1873  0.4112
20321W        W35790   3.113  10.533   0.162 -0.2106 -0.2657 -0.0562
20322W        W35791   2.372   6.049   2.059  0.0220  0.0221 -0.0145
20323W        W35792   6.808   8.991   2.841 -0.0836 -0.3531  0.0378
20324W        W35793   2.555   9.707  14.121 -0.1558 -0.0127 -0.2599
20325W        W35794  11.518   1.605  14.695  0.1581 -0.1063 -0.0364
20326W        W35795   5.756   5.270  15.280 -0.1427 -0.0793  0.2484
20327W        W35796  14.061   1.395  14.386 -0.0274 -0.0017  0.0822
20328W        W35797  10.946   1.834   0.727  0.0241  0.0456 -0.1419
20329W        W35798   7.749   4.459   2.576  0.1964 -0.0937  0.1945
20330W        W35799   9.091   5.955  13.263  0.2958 -0.2352  0.0785
20331W        W35800   1.432  18.037  15.444 -0.1104 -0.0371 -0.1663
20332W        W35801  13.008   7.585   5.318  0.0501 -0.1684 -0.0869
20333W        W35802   6.245  13.301  15.943 -0.0669 -0.1146 -0.1027
20334W        W35803  17.832   2.063   0.447 -0.0177 -0.0627 -0.0788
20335W        W35804  10.132   6.028   5.038  0.1235 -0.0814 -0.0218
20336W        W35805   2.922   5.571   3.611  0.0370  0.1741 -0.3511
20337W        W35806  14.718  16.286   4.703 -0.0517 -0.1103 -0.0748
20338W        W35807  10.712   9.848  12.177  0.1814 -0.0575  0.1301
20339W        W35808  12.282  16.466   1.933  0.1765 -0.1949  0.3312
20340W        W35809  16.435   4.797   0.943 -0.2987 -0.0203  0.2719
20341W        W35810  13.408   7.335   3.954 -0.0119 -0.1021 -0.0304
20342W        W35811   3.189  13.118   9.837  0.3076 -0.0253 -0.0738
20343W        W35812   5.723   1.053   4.601  0.2116  0.3076 -0.0070
20344W        W35813  10.209   8.889  13.106 -0.0550 -0.2579  0.2845
20345W        W35814  16.992   7.940  14.260 -0.1953  0.0280 -0.1400
20346W        W35815   3.030   4.284   1.101 -0.0005 -0.0808 -0.4712
20347W        W35816  10.389   7.296   2.724  0.0660 -0.4735 -0.1286
20348W        W35817   4.184   5.655  13.910  0.2514 -0.2292 -0.1681
20349W        W35818   0.473   2.548  13.490 -0.1645 -0.1517  0.0682
20350W        W35819   1.993  13.166   0.165  0.2411  0.1036 -0.0549
20351W        W35820  13.836   3.776  15.678  0.3279 -0.0427 -0.2725
20352W        W35821   7.831  12.239  15.294  0.1421  0.1464 -0.1023
20353W        W35822   4.958  17.528   4.709  0.1729  0.2478  0.0715
20354W        W35823   8.092   6.911  11.474 -0.0742  0.0038  0.0377
20355W        W35824   1.167   0.284  16.064 -0.2368  0.2081  0.0478
20356W        W35825   3.617   5.114  12.428 -0.2412 -0.1167  0.0939
20357W        W35826  17.141  16.375  15.017 -0.1329 -0.1120  0.0227
20358W        W35827   0.786   4.930   2.322 -0.2606 -0.0115 -0.2419
20359W        W35828  13.439   7.592   4.401 -0.0665 -0.2584  0.3157
20360W        W35829  16.564  11.506  14.185 -0.2208  0.0408 -0.2374
20361W        W35830   5.430   4.102  13.694 -0.0462  0.0211 -0.1001
20362W        W35831  14.579  11.547   5.010  0.0970 -0.0022  0.1588
20363W        W35832  16.284   8.088   1.221  0.0436  0.2537  0.2189
20364W        W35833  12.615  13.754   0.925 -0.2775 -0.0572  0.3794
20365W        W35834   7.874   2.130   4.113 -0.1390 -0.0679  0.0025
20366W        W35835  17.829   8.360  15.061  0.2051  0.5057  0.1075
20367W        W35836   0.538  14.908  15.925  0.1867  0.1989 -0.0489
20368W        W35837   1.820  11.288   1.483  0.1406 -0.3642 -0.0046
20369W        W35838   1.765   5.588   0.909  0.0620  0.2323 -0.0243
20370W        W35839   2.242  14.253   3.906  0.1680  0.1444 -0.0912
20371W        W35840   7.740   9.196  13.005 -0.2251 -0.0058 -0.1477
20372W        W35841   3.943  17.403   4.306  0.0280 -0.1812 -0.0433
20373W        W35842   6.755   5.700   3.531 -0.0303  0.2326 -0.0168
20374W        W35843  12.037  13.487   4.307  0.2256 -0.0561 -0.0096
20375W        W35844   4.518   3.800  12.788  0.2256  0.1313  0.3459
20376W        W35845   5.528  11.191   1.331  0.0589  0.0377  0.1261
20377W        W35846   1.103  13.829   4.918  0.1383  0.0074 -0.0573
20378W        W35847   3.119  13.019   2.259  0.0641  0.0101 -0.4168
20379W        W35848  17.617  12.328   2.254 -0.0066  0.1633  0.0476
20380W        W35849  11.648   5.479  14.499 -0.0437  0.0935  0.0486
20381W        W35850   7.114   8.844   5.183 -0.2855  0.1240 -0.0676
20382W        W35851   7.195  10.829   2.460  0.1288 -0.1197 -0.0341
20383W        W35852  15.886   3.885  11.404 -0.0898  0.2286 -0.1135
20384W        W35853  14.889   1.427   4.980 -0.2997 -0.2456  0.0462
20385W        W35854   0.027  16.589   1.032 -0.1600  0.1447  0.0854
20386W        W35855   5.006   7.873  14.960 -0.0289 -0.0567 -0.2759
20387W        W35856  11.613  10.941   1.760  0.1315  0.0529  0.0070
20388W        W35857  14.201   6.971   4.169 -0.0702  0.1011  0.1009
20389W        W35858   5.971  11.748   5.074  0.0091 -0.2884 -0.2154
20390W        W35859  10.927   3.110  11.986 -0.1121 -0.0654  0.0385
20391W        W35860  13.318  11.446   1.571  0.1337 -0.2756 -0.1803
20392W        W35861   4.139   1.478  13.324  0.0189  0.1217 -0.4080
20393W        W35862  16.737  18.255  13.546 -0.3141 -0.1639 -0.1422
20394W        W35863   6.844   0.930   4.581  0.2462  0.1145  0.2731
20395W        W35864   7.742   5.761   4.009 -0.1332 -0.1764 -0.2277
20396W        W35865  14.708  15.877   0.520 -0.0124 -0.0123 -0.1878
20397W        W35866  14.139  15.862   3.882  0.0399  0.1678 -0.0724
20398W        W35867  10.442   1.763   3.428  0.1164 -0.0540  0.0834
20399W        W35868  14.798  10.952   0.337  0.0476  0.4429 -0.3501
20400W        W35869   6.908   4.670   5.495  0.2636 -0.0648  0.5209
20401W        W35870  14.637   9.143  13.849 -0.1459  0.2534  0.0197
20402W        W35871   9.201  12.712  14.190  0.1993  0.0935  0.1387
20403W        W35872   7.591  15.925   4.508 -0.2815 -0.1995 -0.0238
20404W        W35873   8.961  12.449  15.503  0.0094  0.2811  0.0351
20405W        W35874  11.438   1.270   3.840 -0.1084 -0.1360  0.1995
20406W        W35875  13.930   4.933   5.657 -0.0018  0.0424 -0.0845
20407W        W35876  16.465  18.047  14.090  0.3801 -0.0642 -0.0692
20408W        W35877   6.318   2.642   1.561 -0.0332  0.3171  0.3162
20409W        W35878   8.737   7.155   4.390 -0.1687  0.1395  0.3595
20410W        W35879  15.641  17.301   5.861 -0.0153  0.0325 -0.1898
20411W        W35880  13.677   1.912   1.772  0.0495 -0.3483 -0.1535
20412W        W35881   9.704  18.260   1.674  0.1613 -0.1079 -0.3302
20413W        W35882   5.857   7.011   5.196 -0.0842 -0.4703 -0.0517
20414W        W35883   1.137   3.117  12.007 -0.1408  0.4657  0.0067
20415W        W35884  15.783  17.449  13.236  0.1712 -0.2550  0.1727
20416W        W35885  12.848  17.969   1.721  0.1631 -0.0121  0.0837
20417W        W35886   0.092   3.737   3.870 -0.0073 -0.0951 -0.0153
20418W        W35887  13.898  14.544   4.065 -0.2191 -0.0033 -0.0060
20419W        W35888  18.254   9.900   0.221 -0.0083  0.0084  0.2347
20420W        W35889   0.127  15.475  11.792  0.3809 -0.2469 -0.0424
20421W        W35890   4.872   9.024   4.599  0.0593  0.0534 -0.0686
20422W        W35891  18.170  12.398  11.492 -0.0403 -0.0212  0.1512
20423W        W35892   3.324  13.151  15.409 -0.0501 -0.1068  0.0903
20424W        W35893   4.316   5.605   4.657  0.0589  0.2266 -0.0872
20425W        W35894   2.505  12.139   4.650  0.1531  0.5065 -0.1648
20426W        W35895  11.973   2.247  13.330 -0.1603 -0.0556  0.2470
20427W        W35896  10.756  17.397  10.892  0.2377  0.2965  0.2977
20428W        W35897  11.889  18.013   4.930 -0.0212  0.0721  0.0943
20429W        W35898   6.085   2.108   2.646 -0.1338  0.0787 -0.0404
20430W        W35899   7.684   3.364  14.811 -0.1517 -0.0497  0.1487
20431W        W35900   1.642   1.698   3.074  0.3269 -0.0358 -0.0675
20432W        W35901  17.912   9.082  12.578  0.1900 -0.1769  0.1506
20433W        W35902   2.652   7.985  12.211 -0.2027 -0.0265  0.1654
20434W        W35903   4.591   3.513   4.866  0.1055 -0.0579  0.0148
20435W        W35904   1.151  12.079  14.502  0.1817 -0.1702 -0.0190
20436W        W35905   0.352  16.162  14.782  0.3282  0.2140  0.2196
20437W        W35906   1.614  13.123   0.485  0.1203  0.0230  0.0350
20438W        W35907   6.801   8.134  14.183 -0.1084 -0.0241 -0.3395
20439W        W35908  10.966   1.537  12.412 -0.1816 -0.0637  0.0716
20440W        W35909   3.953   4.689  15.353 -0.1899 -0.1499  0.2154
20441W        W35910   4.545   1.287  15.872 -0.1786  0.2586 -0.1054
20442W        W35911   1.085   8.448   1.938  0.0650  0.0042 -0.1623
20443W        W35912   7.133   4.665  12.088  0.0763  0.0136  0.1815
20444W        W35913   5.759   4.890   1.997 -0.1108 -0.0396 -0.0826
20445W        W35914   4.961  17.336   6.033  0.1771 -0.2881  0.0906
20446W        W35915  16.391   6.527   3.392 -0.2493  0.0608 -0.0963
20447W        W35916   5.348   7.509  15.108  0.0406  0.0684  0.1413
20448W        W35917  15.949   4.192   3.696  0.2779 -0.1538 -0.0379
20449W        W35918   4.297  14.934  12.735  0.0868  0.0384 -0.1451
20450W        W35919  14.957  15.032   3.985  0.3867  0.0514  0.0194
20451W        W35920  16.828   8.843   0.214  0.2840  0.1544 -0.1126
20452W        W35921   8.686   9.072   5.250  0.0907  0.1587  0.1905
20453W        W35922  12.100   3.108   2.910  0.1386  0.0117 -0.3950
20454W        W35923   4.004  17.869   4.374  0.2384  0.1078  0.1751
20455W        W35924  12.495  15.565  13.838 -0.0614 -0.0826 -0.1436
20456W        W35925  11.561   4.413   4.531  0.0429  0.0657 -0.0667
20457W        W35926   1.109   4.399   0.351  0.4264 -0.1137 -0.2153
20458W        W35927  15.872   1.645  15.843  0.2863 -0.3446 -0.1417
20459W        W35928   9.228  15.010  14.478 -0.0460  0.0183  0.0987
20460W        W35929   4.751  16.311   3.044 -0.1620 -0.3005 -0.1557
20461W        W35930  15.043  18.050   2.927 -0.4431 -0.3825  0.0836
20462W        W35931   9.642  16.577  10.007  0.0468 -0.0376 -0.2345
20463W        W35932   7.165   3.527   2.632  0.2853  0.1061 -0.2023
20464W        W35933  16.087  10.598   1.867 -0.0255  0.3492 -0.0046
20465W        W35934   5.531   3.865   2.346 -0.1820  0.1310 -0.1173
20466W        W35935   4.524  16.821   9.484 -0.0942  0.0105 -0.0235
20467W        W35936   2.899   5.210   0.355 -0.0940 -0.2286  0.0249
20468W        W35937  12.967   4.747   4.433  0.1106 -0.1860  0.2010
20469W        W35938   8.512   3.723  15.541  0.0532  0.0230 -0.1804
20470W        W35939  10.005  17.655  12.704  0.1643  0.1097 -0.1231
20471W        W35940  16.926  13.155  13.823 -0.0284 -0.1687 -0.1855
20472W        W35941   1.933   0.878   2.589 -0.1422 -0.1142  0.5912
20473W        W35942   0.724   0.449   0.104  0.0708 -0.0203 -0.1163
20474W        W35943   3.249  12.577   0.135 -0.1074  0.2221  0.3816
20475W        W35944  11.560   4.838  12.646 -0.1416 -0.1281  0.0101
20476W        W35945   9.065   7.122   2.540 -0.2514 -0.0812 -0.3022
20477W        W35946   1.143   8.052   4.957 -0.0830  0.4367 -0.2188
20478W        W35947   7.207   7.863   3.976  0.1025  0.2850 -0.0744
20479W        W35948   9.219   9.009  15.281  0.0126  0.1945 -0.0509
20480W        W35949   7.750  16.597   3.090 -0.1944  0.1446 -0.0074
20481W        W35950  14.070   1.008   0.773 -0.2533 -0.0134  0.1910
20482W        W35951  13.979   2.853   5.128 -0.0382  0.2812 -0.0222
20483W        W35952   0.050   6.727  14.640 -0.0183 -0.1789  0.4489
20484W        W35953   5.735   3.191  12.915 -0.0099  0.0155  0.0330
20485W        W35954  12.303  16.005  12.543  0.1339  0.4922  0.1215
20486W        W35955   8.121  11.744  11.834 -0.1195 -0.0458  0.1562
20487W        W35956   4.749  13.884   4.692  0.0880  0.1434 -0.2284
20488W        W35957  13.953   5.427  14.751 -0.0930  0.0295 -0.1100
20489W        W35958  12.604   7.018  14.758 -0.1539  0.1654 -0.0596
20490W        W35959   7.194  15.628   4.713 -0.3685 -0.1752  0.1988
20491W        W35960   0.249  11.554   4.966 -0.1342 -0.3148 -0.0269
20492W        W35961  13.940   4.443  13.541 -0.1277 -0.2995 -0.0493
20493W        W35962   2.446  14.834  13.682 -0.3293  0.0547  0.0469
20494W        W35963  18.062  12.491  12.473 -0.1315 -0.2524  0.0719
20495W        W35964   2.531   8.375  13.167 -0.1737 -0.2310 -0.3170
20496W        W35965   1.471   0.995   2.518 -0.1321  0.0992  0.0279
20497W        W35966   2.103   3.859  15.744 -0.2150  0.1024  0.0119
20498W        W35967  13.696  17.973   4.693 -0.3017  0.0374 -0.3474
20499W        W35968   1.680   7.366  12.086  0.1261  0.1768 -0.1410
20500W        W35969  12.816   0.130   0.715 -0.2799 -0.0367 -0.1894
20501W        W35970  11.364   1.400   1.626 -0.1227 -0.1094  0.1193
20502W        W35971   9.603   6.325  14.313 -0.0874 -0.1043 -0.2696
20503W        W35972   5.135   4.216  14.100  0.1397  0.1885 -0.1807
20504W        W35973  12.931   0.515  15.288 -0.0541 -0.0958 -0.0610
20505W        W35974   4.229  10.020   0.047  0.2508 -0.3236 -0.2465
20506W        W35975  16.469  11.075  13.356  0.1167  0.2427 -0.0839
20507W        W35976  13.054   1.725   4.821  0.0890  0.0298 -0.0457
20508W        W35977   2.535   5.687  12.979 -0.0164 -0.1583  0.1765
20509W        W35978   3.891  12.948  11.868  0.0671  0.1347 -0.2147
20510W        W35979   0.781  16.371   4.460 -0.0529  0.2458 -0.0230
20511W        W35980   4.390   6.194   5.334  0.0990 -0.0257 -0.1550
20512W        W35981  18.305   0.355   4.326 -0.0782 -0.0397  0.1830
20513W        W35982   1.367  10.711  10.616 -0.0752  0.0598 -0.0955
20514W        W35983   5.717  14.663   1.713 -0.1881 -0.1304  0.0807
20515W        W35984   1.259  13.494  13.304 -0.1051 -0.3015 -0.0426
20516W        W35985   4.822  11.956  10.885 -0.0894  0.3033  0.0584
20517W        W35986  13.207   5.974   5.514  0.2435  0.0204 -0.1723
20518W        W35987  15.908   9.834  14.777 -0.0999  0.2008 -0.1265
20519W        W35988   6.260  16.953  12.950 -0.0061 -0.0588  0.0873
20520W        W35989   6.921  17.660  15.744  0.0803  0.2024  0.2866
20521W        W35990   7.832   6.562   2.497  0.0732 -0.2152 -0.1155
20522W        W35991  16.821   2.048  14.120  0.2724  0.1309 -0.0235
20523W        W35992  10.275  16.488   0.942  0.0293  0.2439 -0.0091
20524W        W35993   3.300   8.707  15.862  0.3110  0.2887  0.0819
20525W        W35994   0.217   9.050   2.220  0.1394 -0.1354  0.1840
20526W        W35995  17.193   1.061   1.708 -0.1387 -0.3971  0.1965
20527W        W35996   4.063   7.585   1.579  0.3810  0.2324 -0.5124
20528W        W35997  16.170   9.104   0.981 -0.1061 -0.0040  0.1897
20529W        W35998   5.167   2.103   5.115 -0.0130  0.2681 -0.1406
20530W        W35999   2.826  15.768  10.304 -0.0782 -0.0215 -0.1625
20531W        W36000   2.641   7.518   1.052  0.0817 -0.2091 -0.1525
20532W        W36001   4.289  14.883   3.797  0.0366 -0.1072 -0.1517
20533W        W36002   2.976   3.497  15.674  0.0262  0.2162  0.1273
20534W        W36003  12.606  10.452   1.023 -0.1208  0.0129 -0.1955
20535W        W36004   4.533  11.501   1.290 -0.1525 -0.1503  0.0594
20536W        W36005   6.131  11.500   3.825 -0.0980 -0.3488  0.0569
20537W        W36006  14.307   9.541   5.334 -0.1847  0.0944 -0.1764
20538W        W36007  12.097   0.987   2.052 -0.3571 -0.0454  0.1832
20539W        W36008  17.771   0.404  12.036  0.1282  0.1249 -0.1346
20540W        W36009  15.140  14.877   1.172  0.1671 -0.2717  0.0262
20541W        W36010  15.812   2.532   3.361 -0.0060  0.2043  0.1768
20542W        W36011  15.411   9.861  11.223 -0.0202 -0.3260 -0.1791
20543W        W36012  13.392  14.977   1.956 -0.0247 -0.3364  0.2104
20544W        W36013  11.355  14.998   1.519  0.1150 -0.0843  0.1124
20545W        W36014  17.751   8.665   2.097  0.0212  0.1658  0.2311
20546W        W36015   0.513   9.013   3.581  0.2478  0.1523  0.0977
20547W        W36016   2.837  18.295   4.543  0.1496 -0.1750  0.0909
20548W        W36017   4.165  10.210   3.268 -0.1381  0.1991  0.1510
20549W        W36018   8.606   4.962   3.211 -0.3970  0.1611 -0.2169
20550W        W36019  16.287  12.692  13.318  0.2003  0.1838 -0.4134
20551W        W36020   0.271   7.739   0.466  0.1965 -0.1427 -0.0376
20552W        W36021   5.695   0.563   2.203  0.0935 -0.0219  0.3054
20553W        W36022   1.670  11.978  12.470  0.1645  0.1249  0.2267
20554W        W36023   4.562   3.984   2.663 -0.0290 -0.0446  0.0859
20555W        W36024   4.776   7.844  13.231  0.0112 -0.1342  0.1846
20556W        W36025   5.657  16.874  15.922  0.0607  0.1086 -0.1990
20557W        W36026   3.188  14.004  13.598 -0.1469  0.1641  0.1638
20558W        W36027   8.331  13.349   2.335  0.0080  0.0292  0.1086
20559W        W36028   6.669  10.929   3.246  0.0637  0.0382  0.2345
20560W        W36029  15.251  15.369   0.111  0.1012 -0.0650 -0.2206
20561W        W36030  10.676  15.521  12.173  0.0119  0.1463  0.0980
20562W        W36031   9.916  13.622   4.420  0.0979 -0.1323 -0.0395
20563W        W36032   8.878   4.997  12.354  0.5582 -0.2784 -0.1339
20564W        W36033   8.861   1.613  14.859  0.0841 -0.2640  0.1712
20565W        W36034  15.831  18.025   3.926 -0.1040 -0.1527 -0.2375
20566W        W36035   3.999   7.718   3.708 -0.1369 -0.2608  0.2007
20567W        W36036   4.280   9.984  12.230 -0.2894 -0.1418 -0.1121
20568W        W36037   9.423  10.715  11.382  0.1044  0.2450  0.0038
20569W        W36038  13.036  12.676  11.640 -0.0011 -0.0166 -0.1225
20570W        W36039  10.857   9.330  11.727  0.0852  0.1880 -0.0574
20571W        W36040  12.406  17.013   0.161  0.1280 -0.1455 -0.1387
20572W        W36041   5.468   2.288  15.676  0.0787  0.1211  0.0023
20573W        W36042  18.089   2.474   0.623  0.3059 -0.0205 -0.0834
20574W        W36043   7.857   6.848   1.639  0.0471  0.1509 -0.0046
20575W        W36044  18.215  14.831   1.627 -0.3110  0.0449 -0.1138
20576W        W36045  14.078  14.991  13.811 -0.1463 -0.0040  0.1129
20577W        W36046  15.965  16.689   3.381  0.2082 -0.1437 -0.1100
20578W        W36047  13.986  10.565   3.835 -0.0214 -0.1793 -0.0796
20579W        W36048  10.535   2.865  12.426 -0.0265 -0.2817  0.3418
20580W        W36049   3.015  11.035   1.183 -0.4739  0.0665  0.0459
20581W        W36050   9.216   0.663  14.532  0.0613  0.1889 -0.0152
20582W        W36051  17.630   2.289   0.993 -0.0569  0.1749  0.1675
20583W        W36052   5.464  10.609   3.109 -0.3234  0.2250  0.1062
20584W        W36053   3.476   5.663  15.134  0.2245 -0.1555  0.0212
20585W        W36054  17.996   2.573   4.793 -0.0678 -0.1424  0.1384
20586W        W36055  18.237  13.336   9.989  0.1614 -0.0981 -0.2862
20587W        W36056   3.951   6.726  15.211  0.2772  0.0243 -0.1960
20588W        W36057   2.025  14.648  12.892  0.0885 -0.1066  0.0352
20589W        W36058   3.099   0.832   1.510 -0.2189 -0.1885  0.1545
20590W        W36059   5.947   0.379  12.323  0.2964  0.0893  0.0876
20591W        W36060   9.299  12.890   2.852  0.0158  0.0310 -0.0872
20592W        W36061   7.935   0.262  16.026  0.1291 -0.3427  0.0299
20593W        W36062   0.540  12.119  10.823  0.1047 -0.3178  0.0703
20594W        W36063  10.360   1.364   5.682 -0.0005  0.0203 -0.1766
20595W        W36064  14.584   5.026   3.655  0.2426  0.1170 -0.1950
20596W        W36065   4.589  13.030  15.868 -0.0358 -0.0236 -0.0649
20597W        W36066   2.107  10.429  10.848 -0.0378  0.3776 -0.0032
20598W        W36067  13.629  17.155   1.893 -0.0087 -0.2616 -0.0125
20599W        W36068   3.859   6.132  12.710 -0.0952 -0.1858 -0.1757
20600W        W36069   9.995   4.318   1.496  0.2429  0.1490  0.0129
20601W        W36070   3.766  16.134  15.417 -0.0008  0.0603  0.0333
20602W        W36071   0.270  11.174  13.301  0.1818  0.0385  0.0731
20603W        W36072  13.122   3.871  11.798  0.0094 -0.2722  0.1765
20604W        W36073   9.979  12.481  15.322  0.2142  0.1384 -0.4606
20605W        W36074  10.126  12.177  11.321  0.0368  0.2892  0.4856
20606W        W36075  12.806  12.522   3.145  0.0699  0.0293  0.0137
20607W        W36076  17.339  10.256   3.881 -0.2151  0.1458  0.1610
20608W        W36077   0.725  15.267  13.589 -0.2150 -0.3847  0.0491
20609W        W36078  17.538  10.730  10.111 -0.2907  0.1503  0.0106
20610W        W36079   3.290  10.528  11.806 -0.0043  0.2251  0.4194
20611W        W36080  17.720   1.216   0.689  0.0204  0.0137 -0.0557
20612W        W36081  16.112  18.090  12.620 -0.2692 -0.5721  0.0854
20613W        W36082  14.725   3.687   4.181  0.0541 -0.1004 -0.0654
20614W        W36083   5.165   8.737  14.001  0.0076  0.1460 -0.1003
20615W        W36084   3.664   8.557   5.092  0.0041 -0.0210  0.2079
20616W        W36085   4.547  15.747   0.836  0.0140 -0.1878  0.0625
20617W        W36086   2.805  14.895  14.671 -0.2194 -0.0843 -0.2040
20618W        W36087  17.068   1.678  11.670  0.1806  0.0429 -0.0515
20619W        W36088   7.131  15.850  13.683  0.1122  0.1256 -0.1236
20620W        W36089   3.737  12.218  14.321  0.2207  0.2607  0.0610
20621W        W36090  15.970   7.385   2.393 -0.2029  0.1969  0.0490
20622W        W36091  15.909  12.572   3.573  0.1535  0.3864  0.1170
20623W        W36092  11.872   0.794  14.868  0.1064  0.1811 -0.3024
20624W        W36093   9.527  13.330   2.592  0.2543 -0.1074 -0.3182
20625W        W36094   2.959  10.110   3.953 -0.0517 -0.0329 -0.2545
20626W        W36095  17.096  12.456  12.739 -0.0838 -0.1641 -0.2233
20627W        W36096   0.768  11.503  13.942  0.1445  0.0020  0.0803
20628W        W36097  10.528  11.263   4.972 -0.1868  0.0301  0.0288
20629W        W36098  11.465  13.488  11.121  0.0752  0.1383 -0.1178
20630W        W36099   2.447   2.199   0.192  0.1699  0.3624  0.3555
20631W        W36100  16.067  12.415   1.306 -0.1301  0.1684  0.0427
20632W        W36101   2.632   7.088  12.273 -0.1392  0.0665  0.0292
20633W        W36102   0.144   6.889   3.102  0.0117 -0.2224  0.4773
20634W        W36103   4.205   3.714   4.031 -0.0479 -0.2362  0.2715
20635W        W36104   7.953   8.600  13.879 -0.2487 -0.0679 -0.0512
20636W        W36105  11.968   3.442  11.939 -0.1777  0.0239 -0.0418
20637W        W36106   1.655   1.417  12.592 -0.0616  0.1936 -0.1248
20638W        W36107   3.731   9.944   2.846  0.0537 -0.1382 -0.3858
20639W        W36108  11.478  15.896   2.002  0.0683 -0.0446  0.0737
20640W        W36109   7.795  15.400   0.831 -0.1959 -0.1078 -0.0766
20641W        W36110   4.305  13.940   1.621  0.0225 -0.2325  0.2859
20642W        W36111   9.406   7.968  15.331 -0.0602 -0.0738 -0.4515
20643W        W36112  15.691   0.514   3.568  0.1428  0.2860  0.2986
20644W        W36113  12.812  13.549   4.492  0.0317 -0.0145 -0.2087
20645W        W36114  11.412   1.170  11.041 -0.1945  0.0216 -0.4341
20646W        W36115  16.274   0.229   4.417  0.4311 -0.0369  0.0469
20647W        W36116  17.587  11.477   1.832 -0.0992 -0.1023 -0.1211
20648W        W36117  10.697   6.960   1.268  0.2012 -0.1905 -0.3278
20649W        W36118   7.165  13.204  14.137  0.0738  0.2360 -0.0729
20650W        W36119  11.033  17.051  15.742  0.0419 -0.3644  0.2986
20651W        W36120  11.486  18.090   0.641 -0.1209 -0.2970  0.2132
20652W        W36121   8.002  15.294   4.844  0.2587 -0.0262 -0.3285
20653W        W36122  14.697  18.215   5.117 -0.1036  0.1740 -0.1185
20654W        W36123  12.259  12.319   4.353  0.1131 -0.0098  0.0951
20655W        W36124  11.378  17.253   1.197 -0.0100  0.2728  0.0199
20656W        W36125  15.575   4.698  12.256 -0.1842  0.1637 -0.1535
20657W        W36126  11.186   3.115   3.496  0.0464  0.2078  0.3229
20658W        W36127   5.843   7.521   1.621 -0.0699 -0.1808 -0.1160
20659W        W36128   3.519  16.464  15.668  0.0310 -0.1710 -0.1952
20660W        W36129   7.343  12.756  14.043 -0.2046 -0.1302  0.1552
20661W        W36130   0.036  15.027   2.803 -0.2604  0.5769 -0.2303
20662W        W36131   9.219   0.581  11.952 -0.0307  0.1964 -0.2012
20663W        W36132   6.986   8.246   3.655  0.1103  0.0843  0.0193
20664W        W36133   1.004  14.231   5.294 -0.0372  0.0168  0.0126
20665W        W36134   6.287   9.619  15.593 -0.0034 -0.3034  0.0219
20666W        W36135   3.002  14.899  11.706  0.0214  0.3026 -0.3830
20667W        W36136   1.099   2.832   3.643 -0.0359 -0.2316  0.3229
20668W        W36137   2.681  16.390   1.802  0.3332 -0.0705  0.0134
20669W        W36138   7.495  11.204   0.345  0.2646 -0.0197 -0.2940
20670W        W36139  10.762   1.187  14.316  0.1934  0.1887  0.1901
20671W        W36140   7.143   1.902  13.586 -0.0769  0.0259 -0.1944
20672W        W36141  12.903  18.065   4.941  0.0056 -0.1161  0.0296
20673W        W36142  13.135   1.663   2.539  0.1970  0.0304  0.2663
20674W        W36143   5.476  17.953  12.831 -0.0028  0.1443  0.2842
20675W        W36144   9.777   4.252  14.758  0.1598 -0.2384  0.0823
20676W        W36145   9.596   3.703  12.146  0.1608  0.0343  0.1994
20677W        W36146  13.104  16.045   0.469 -0.1125 -0.0402  0.1471
20678W        W36147  15.809   0.668  14.642 -0.0306 -0.0105  0.0160
20679W        W36148  16.678  14.562  13.134 -0.3595  0.0704 -0.0286
20680W        W36149   9.827  16.323   3.709 -0.1271 -0.1282  0.0983
20681W        W36150   2.958   8.982  11.775 -0.0227  0.2611  0.2848
20682W        W36151  18.207  14.686  13.265 -0.0189 -0.0745 -0.1859
20683W        W36152  15.237  11.432  15.474  0.0774 -0.1536  0.0478
20684W        W36153  11.932   4.116   4.672  0.1948  0.0557  0.1202
20685W        W36154  12.555  16.642  13.626 -0.1414  0.2597  0.1757
20686W        W36155  13.929   6.396  11.253 -0.1207 -0.0125  0.0376
20687W        W36156  12.420  13.714  13.046  0.0840 -0.2279  0.2430
20688W        W36157  11.737   6.596  13.136 -0.0609 -0.4238  0.2146
20689W        W36158   5.971   9.735   2.893  0.0364  0.2378 -0.0665
20690W        W36159  15.214   2.583   1.626 -0.2834  0.0837 -0.1474
20691W        W36160   5.668   6.586   4.637  0.0692 -0.1135 -0.0067
20692W        W36161  10.637   7.839   3.336 -0.1694 -0.0075 -0.1539
20693W        W36162  17.268   4.601   5.147 -0.1088  0.2655 -0.3425
20694W        W36163   8.869   5.307   0.489 -0.4376  0.2855 -0.1619
20695W        W36164  11.028  14.892   1.185  0.2868 -0.0030 -0.2692
20696W        W36165   3.051  16.083   1.977  0.1807  0.1668 -0.1471
20697W        W36166  13.377  14.475  13.927  0.4246  0.3520 -0.0445
20698W        W36167   0.503   9.016  12.219 -0.0668  0.5187 -0.0700
20699W        W36168  11.055  10.535   0.398 -0.0811 -0.1840  0.1488
20700W        W36169   5.842  12.073  13.189 -0.1648 -0.1150  0.3107
20701W        W36170   9.755   7.896  14.562 -0.0009  0.0458  0.2308
20702W        W36171  12.040   2.407  15.766  0.2030  0.2556  0.0793
20703W        W36172   8.990  16.393   6.126  0.2860 -0.0992 -0.4983
20704W        W36173   7.022  15.635  11.407  0.0220 -0.3530  0.0773
20705W        W36174   3.729  13.579  10.441 -0.1157  0.1176  0.0360
20706W        W36175   0.279   0.592   2.920 -0.0807 -0.0231 -0.1300
20707W        W36176  15.325  12.699   0.600  0.1946 -0.0079 -0.1374
20708W        W36177  14.647   2.350   2.531  0.2113  0.0983 -0.0269
20709W        W36178   7.129  13.226   2.337  0.0536 -0.2468 -0.1386
20710W        W36179  15.137  17.726  16.045  0.1116  0.1446  0.1477
20711W        W36180   4.674  16.969   2.187 -0.2141  0.3130  0.1186
20712W        W36181  12.390   5.276   1.157 -0.0125 -0.0716 -0.3594
20713W        W36182   4.719  11.322  14.739 -0.0924  0.1429 -0.0441
20714W        W36183  11.289   8.377  12.980  0.0064  0.0894 -0.2298
20715W        W36184   8.609  11.765   1.860 -0.0099  0.0362 -0.0178
20716W        W36185   0.341  16.482  15.884 -0.0742 -0.1835 -0.1804
20717W        W36186  10.420   8.548   5.676  0.2295  0.0987 -0.2353
20718W        W36187   5.529   6.692  14.431 -0.4093 -0.2687 -0.0380
20719W        W36188  14.482  16.312  11.580 -0.5016 -0.2147  0.2273
20720W        W36189   2.371  11.962   5.156 -0.0668  0.3687 -0.0786
20721W        W36190   5.375  11.984  11.014 -0.1662 -0.4081 -0.2217
20722W        W36191   9.133   1.316   1.055 -0.3178  0.0283 -0.1388
20723W        W36192  11.732   7.673  15.042 -0.0425 -0.0246  0.0911
20724W        W36193   0.809   3.305  14.211  0.0219  0.3286  0.1962
20725W        W36194   7.038   8.788   0.204 -0.0656  0.1332 -0.0295
20726W        W36195   0.080  16.119  16.059  0.1651 -0.2682  0.1061
20727W        W36196   1.500   3.967  11.076  0.4302 -0.1011 -0.0074
20728W        W36197  10.702   4.495  12.252  0.1047 -0.0940 -0.2603
20729W        W36198  12.752   3.874   5.559 -0.1212 -0.1150  0.2535
20730W        W36199  14.797   1.120   0.019  0.0181  0.1898 -0.2292
20731W        W36200   6.776   1.038  11.584  0.1278 -0.2410  0.2016
20732W        W36201   0.477  11.248   0.124 -0.2488  0.5339  0.0494
20733W        W36202  11.383   7.694   1.186  0.0174  0.1136 -0.0311
20734W        W36203   6.729  12.996   2.218 -0.0201 -0.1867 -0.0780
20735W        W36204   5.425  10.391  15.374 -0.1140  0.0411 -0.0925
20736W        W36205  14.684   2.884   3.410  0.0963 -0.1375  0.2099
20737W        W36206   1.688  16.849   1.572  0.0167 -0.1004  0.4621
20738W        W36207  14.732  12.469   5.480 -0.0924  0.0674 -0.1801
20739W        W36208   7.701   3.805   0.401  0.3711 -0.2447  0.0565
20740W        W36209  15.377  10.442   2.756 -0.1199 -0.1982  0.4951
20741W        W36210   9.910   5.972  13.321 -0.0666  0.1443  0.2630
20742W        W36211  13.704   6.046   3.442 -0.0022  0.1626  0.0243
20743W        W36212  15.468  16.946  11.441 -0.0186  0.1197 -0.0940
20744W        W36213   9.432   7.269   5.590  0.1723  0.0669  0.2166
20745W        W36214  17.107   6.765  13.846 -0.0051 -0.0910 -0.3035
20746W        W36215  11.532  11.692  16.082 -0.0195 -0.1257 -0.0325
20747W        W36216   0.607   3.022  16.111 -0.1645 -0.0446  0.1095
20748W        W36217   7.665   6.267   3.678 -0.3003 -0.5101 -0.1334
20749W        W36218   7.838  18.034   4.779  0.2061  0.1699 -0.0799
20750W        W36219  10.042  15.386  13.189  0.3874 -0.0488 -0.1941
20751W        W36220   4.343   9.893   4.936 -0.1643 -0.0804 -0.2478
20752W        W36221  12.096   6.607   2.760  0.1386  0.1794  0.1246
20753W        W36222  14.870  10.283  15.686  0.0650 -0.1107 -0.0746
20754W        W36223  10.131   7.462  13.048 -0.3166 -0.0352  0.0940
20755W        W36224  18.053  17.889  10.901  0.1148 -0.1624 -0.3015
20756W        W36225   0.445   2.967  15.396 -0.2045  0.0535  0.1845
20757W        W36226   4.717  14.587  12.062  0.0876  0.1740  0.0840
20758W        W36227  16.648  14.742   0.292  0.2823  0.0821  0.1311
20759W        W36228   3.405  17.920  15.992 -0.2456 -0.1677  0.2980
20760W        W36229  16.950   3.048  11.139  0.0563  0.1845  0.0671
20761W        W36230  15.502  14.367   2.402  0.2194  0.1307  0.1629
20762W        W36231   0.236  17.433  14.862  0.1740  0.0197  0.0380
20763W        W36232  16.962   8.069   1.117  0.4236 -0.1473  0.1586
20764W        W36233  15.592  13.799  13.819  0.1730 -0.0777  0.1667
20765W        W36234  12.525  13.291   4.184  0.0710 -0.2225 -0.1101
20766W        W36235   1.104  13.793   0.084  0.2001 -0.0820  0.0931
20767W        W36236  11.593  18.059  12.711  0.4159 -0.2059  0.2243
20768W        W36237  14.516   2.785  13.477  0.1257 -0.1064  0.2147
20769W        W36238  17.073  11.545  14.172  0.2106  0.0929 -0.3846
20770W        W36239   1.163  15.266  13.817  0.0165  0.6711  0.0660
20771W        W36240  16.087   7.860  13.176 -0.2961  0.1816  0.0418
20772W        W36241  14.427   7.543   2.872  0.4274 -0.4938 -0.0739
20773W        W36242   2.539  17.046   4.952  0.0756 -0.1432  0.2502
20774W        W36243  15.119  14.916  12.120  0.2841  0.2869 -0.1603
20775W        W36244   0.585   1.687   4.781  0.1336 -0.1643 -0.2781
20776W        W36245   4.104   6.011   3.990 -0.1051 -0.4309 -0.2752
20777W        W36246   4.994  13.071  15.617 -0.0676 -0.0373 -0.1281
20778W        W36247  14.089   6.184   4.275 -0.3017 -0.1004  0.3501
20779W        W36248  10.730   6.298   1.547 -0.1120 -0.2809  0.0797
20780W        W36249   3.561   1.775   2.229 -0.0334  0.1335  0.3010
20781W        W36250  14.782  15.990  15.854 -0.0041 -0.1131  0.0398
20782W        W36251   0.542  13.262  12.845 -0.3223 -0.4858 -0.2790
20783W        W36252   0.065   0.986   4.733 -0.0782 -0.3953 -0.2670
20784W        W36253  13.457   8.266  14.621 -0.0493  0.0185 -0.1297
20785W        W36254   2.269  16.671   5.045 -0.1798  0.3146  0.0614
20786W        W36255  14.175   9.730   4.535 -0.4769  0.2619  0.0408
20787W        W36256   1.105   1.719   3.596  0.0370 -0.0338  0.0183
20788W        W36257   3.721   5.174   5.458 -0.0050 -0.2110 -0.1343
20789W        W36258  10.834  10.546   3.573 -0.1107 -0.0651  0.1032
20790W        W36259   0.113   2.536   5.018 -0.2316  0.1007 -0.1289
20791W        W36260   5.227  16.746  10.660 -0.1352  0.2572 -0.0448
20792W        W36261  15.149  13.476  11.273  0.0905 -0.0601  0.1493
20793W        W36262   5.290   0.864   2.183  0.1556  0.1188  0.1663
20794W        W36263   2.965  13.160  15.793 -0.0258 -0.1197  0.2976
20795W        W36264  10.401   0.885  13.527  0.0454 -0.0175 -0.1024
20796W        W36265   8.073   0.305  13.180  0.1555 -0.2562 -0.1565
20797W        W36266  10.570  15.905  10.982 -0.2771  0.1525  0.1891
20798W        W36267  16.655   0.916   0.551 -0.0266 -0.0664  0.1535
20799W        W36268   4.277   5.551   4.129  0.0855 -0.1242 -0.1396
20800W        W36269  16.192   7.136  13.639  0.0480  0.3859 -0.0945
20801W        W36270  10.437  14.195   2.923 -0.0622 -0.1405 -0.3654
20802W        W36271   1.307  10.213   0.623  0.2352 -0.0899  0.1670
20803W        W36272  12.480  13.161   9.934  0.0395 -0.1252  0.1268
20804W        W36273  17.178   7.113  14.748 -0.1471 -0.1514 -0.0620
20805W        W36274  12.429   5.668   2.975  0.0332  0.2655  0.3861
20806W        W36275  16.254   2.722   0.973 -0.0580 -0.1879 -0.1370
20807W        W36276  16.839   3.903  14.793 -0.1507 -0.1181 -0.0264
20808W        W36277  17.154   8.377  12.396  0.2470  0.3128 -0.0374
20809W        W36278  10.692  13.444  13.892 -0.1338 -0.1048  0.0975
20810W        W36279  17.970   1.144  14.928  0.0293 -0.0238  0.2849
20811W        W36280  16.169   0.725   3.796 -0.2034 -0.0414  0.2427
20812W        W36281   7.388  16.532  13.226 -0.4113  0.0728 -0.1075
20813W        W36282   1.741   9.254   2.229  0.1511  0.1688  0.3413
20814W        W36283   0.141  17.552   4.000  0.0018  0.3713  0.0926
20815W        W36284   2.128   2.807   2.444  0.2922 -0.1321 -0.0399
20816W        W36285   3.716   1.864  13.418 -0.1262 -0.1954  0.0360
20817W        W36286  15.557  12.287   3.742  0.0995  0.1551 -0.0424
20818W        W36287   9.123   8.194  13.056  0.1025  0.2700 -0.1331
20819W        W36288  15.747  18.292  15.534  0.2745 -0.0949  0.1628
20820W        W36289  12.053  10.753   3.997 -0.1361  0.1463  0.0866
20821W        W36290   3.058   7.450   2.725  0.3067 -0.1446 -0.1710
20822W        W36291   3.963  13.494   2.506 -0.3615 -0.0843  0.0971
20823W        W36292  17.392  11.314   0.689  0.1778  0.0094  0.0016
20824W        W36293  18.202  11.060  10.709 -0.1458 -0.0814  0.0290
20825W        W36294  11.873  16.683   1.705 -0.2379  0.1993  0.2076
20826W        W36295  10.985   5.943  13.343 -0.1205  0.0017  0.0821
20827W        W36296   1.837   2.112  14.363  0.0542 -0.2739 -0.1848
20828W        W36297  16.803   3.801   3.743 -0.2720  0.3110  0.2160
20829W        W36298  14.856   0.927   5.024 -0.3238  0.1714 -0.3691
20830W        W36299   0.480   2.627  15.031 -0.2186 -0.1163  0.0187
20831W        W36300   2.244  11.543  13.189 -0.0357 -0.0196 -0.0942
20832W        W36301   1.810  12.737   0.299 -0.2897  0.1417 -0.0633
20833W        W36302   9.506  11.959   1.618 -0.1410  0.3052  0.1429
20834W        W36303   0.088   6.693   0.304  0.3660 -0.0024 -0.0322
20835W        W36304  12.696   6.989   3.474  0.3607  0.1029 -0.1938
20836W        W36305   7.938   7.282  11.797  0.0284 -0.0206  0.1504
20837W        W36306  13.443   0.950  11.488  0.0909  0.2519 -0.1656
20838W        W36307   6.536   6.594  12.399 -0.3202  0.1285 -0.1075
20839W        W36308   4.970   9.467   0.270 -0.0926  0.2604 -0.1779
20840W        W36309  13.640  13.573   3.188  0.0042 -0.2381  0.0423
20841W        W36310  15.505   5.661  11.006  0.0028 -0.1397  0.0818
20842W        W36311   8.573  14.510  15.541  0.2256  0.2448 -0.3365
20843W        W36312  12.275  18.277  15.016 -0.0868 -0.1323 -0.1894
20844W        W36313   0.853  10.670   1.928  0.0148 -0.5711  0.1284
20845W        W36314  16.106   7.240   3.720  0.1062 -0.0354 -0.3744
20846W        W36315  11.323  12.039  15.266 -0.1217 -0.3389  0.2648
20847W        W36316   6.082  16.521   0.613 -0.3160 -0.1176 -0.0635
20848W        W36317   9.983   3.140  12.289 -0.1658  0.1134  0.2018
20849W        W36318   7.163   7.054   0.376  0.0857  0.0004  0.0788
20850W        W36319   2.548  16.311  14.707 -0.0642 -0.0116 -0.1364
20851W        W36320   9.813  12.901  10.851 -0.1556  0.1354  0.1335
20852W        W36321   6.451  16.212  15.072 -0.1930  0.4388 -0.1071
20853W        W36322   3.862   0.443   0.309  0.2079  0.1421  0.0147
20854W        W36323   8.181   1.375  13.060  0.1675 -0.1704  0.0617
20855W        W36324  17.313  12.226   0.760  0.1013 -0.0191 -0.1579
20856W        W36325   5.526   7.132   2.004 -0.0205  0.1039  0.2143
20857W        W36326   4.283  17.176   9.789 -0.0674  0.1078 -0.2532
20858W        W36327   7.579  11.021  15.465  0.1003  0.4777  0.3761
20859W        W36328   2.765  16.435   0.566 -0.0511  0.0425 -0.0525
20860W        W36329   7.592   7.730  11.754  0.0531 -0.0113 -0.1339
20861W        W36330  18.072   1.677  15.179 -0.1822 -0.0968 -0.0765
20862W        W36331   6.355  18.175   2.540  0.1221 -0.0085 -0.0279
20863W        W36332   8.866   4.991  13.396 -0.1655 -0.0310 -0.2560
20864W        W36333   3.874   9.205   4.289 -0.1938 -0.1006  0.0954
20865W        W36334   1.329   9.434   3.884  0.1559  0.2391  0.2956
20866W        W36335  17.573   8.897   1.167 -0.0587  0.2125 -0.0655
20867W        W36336   1.464   9.988  13.689 -0.3022  0.0474 -0.0636
20868W        W36337  17.236   4.665   3.220 -0.2725 -0.0735 -0.0006
20869W        W36338  12.521   0.583  14.238  0.0545 -0.1368 -0.1901
20870W        W36339   3.813  17.647   3.820 -0.3299  0.1964  0.1528
20871W        W36340   1.525   6.999  11.677  0.1493  0.1124 -0.0670
20872W        W36341   2.821  11.795  11.096  0.1139 -0.0436 -0.1579
20873W        W36342   3.619   1.808  14.040 -0.0054 -0.2138  0.0647
20874W        W36343  15.958  15.237   0.821  0.0224 -0.1052  0.0079
20875W        W36344  12.478   2.279  11.398  0.2193 -0.0817 -0.0149
20876W        W36345   3.689   5.413  13.661  0.1475  0.1218  0.1567
20877W        W36346   7.216  12.486   0.825  0.0086  0.1126 -0.1639
20878W        W36347   8.681   8.129   3.950  0.0130 -0.0656 -0.1243
20879W        W36348  13.517  12.536   2.750 -0.1866  0.0627  0.0721
20880W        W36349   3.072   1.825   5.160  0.2232  0.2430 -0.0654
20881W        W36350  17.019  16.305  12.502 -0.1733  0.0507  0.0374
20882W        W36351   7.560   4.683  14.922 -0.0361  0.1552  0.0336
20883W        W36352  11.939   3.018  12.310  0.3596  0.1266 -0.1906
20884W        W36353   7.531   6.936  11.336 -0.0533 -0.0970  0.0983
20885W        W36354  11.390  12.771   4.603  0.3521  0.1782 -0.1622
20886W        W36355   0.838   4.108  15.452  0.0748  0.0562  0.1120
20887W        W36356   4.312   6.131   1.553  0.1323  0.1474  0.1205
20888W        W36357  13.045   4.338  12.660  0.0303 -0.4337 -0.1462
20889W        W36358   7.397  15.442  13.704 -0.1541  0.5460 -0.1849
20890W        W36359  17.522   5.062   4.887 -0.0093 -0.0240  0.3587
20891W        W36360  16.099  17.525   0.371  0.1091 -0.0976  0.0030
20892W        W36361   5.303   6.983  12.219  0.0851  0.0262 -0.2448
20893W        W36362   2.577  13.369  11.066 -0.0507 -0.1643 -0.0565
20894W        W36363   1.245  15.070   5.592  0.1947 -0.1779 -0.2511
20895W        W36364  12.787   6.189   5.329  0.0106  0.1475 -0.0834
20896W        W36365  18.089  13.714   0.481  0.3527  0.4349 -0.3449
20897W        W36366   9.527  13.522   2.133  0.0795  0.1763 -0.2492
20898W        W36367   5.477  11.977   3.160 -0.0813 -0.2608 -0.3442
20899W        W36368   3.404   0.319  13.775 -0.1106 -0.1434 -0.0674
20900W        W36369  15.123   0.389  11.189 -0.3570 -0.2252 -0.0359
20901W        W36370   2.647   5.269  12.603 -0.0125 -0.1295  0.1257
20902W        W36371   5.812  11.390  11.388  0.1150  0.0066 -0.3889
20903W        W36372  13.676   0.764  12.055  0.2981 -0.1522  0.2501
20904W        W36373   1.590   7.302  12.613 -0.0455 -0.0858  0.2207
20905W        W36374   0.150   5.375   1.340  0.3888  0.0251  0.1015
20906W        W36375   3.017   2.501  15.140 -0.0840 -0.0783 -0.1191
20907W        W36376  13.188  11.404  14.826 -0.1570  0.1701  0.0185
20908W        W36377  17.279   9.188  13.861 -0.3350 -0.1622 -0.3412
20909W        W36378   6.306  11.272   4.869 -0.1500 -0.1220  0.0452
20910W        W36379  16.007   3.614   2.633 -0.1123 -0.3616  0.1008
20911W        W36380  18.238  11.173   4.878  0.1851  0.1963 -0.1635
20912W        W36381  13.934   8.014   0.973  0.0817 -0.0852  0.1048
20913W        W36382   0.161   4.894   1.031  0.4153 -0.0008 -0.0421
20914W        W36383   1.791   9.084   5.526  0.1406  0.4333  0.0248
20915W        W36384   7.741  18.166  15.770 -0.0323 -0.4409 -0.0722
20916W        W36385  15.054   4.940  12.113  0.2166 -0.2188  0.1115
20917W        W36386  10.068   4.838   1.445 -0.3505  0.2690  0.0424
20918W        W36387   7.251  16.448   1.465 -0.0549  0.0288 -0.1589
20919W        W36388   6.026   9.269   3.164  0.3707 -0.3563 -0.4450
20920W        W36389  13.669  16.261  12.999  0.1284 -0.0701  0.1149
20921W        W36390  15.070  16.317   2.550  0.0774  0.3415  0.1118
20922W        W36391   3.712   5.227  11.870 -0.0259  0.1845 -0.1111
20923W        W36392  12.577   5.490  15.389  0.0133 -0.2232  0.1110
20924W        W36393  16.570   4.507  13.684  0.1417 -0.0939  0.0257
20925W        W36394  12.386   8.896   0.476 -0.2392 -0.1084 -0.1292
20926W        W36395   5.777  11.475  11.977  0.0928 -0.2083 -0.2077
20927W        W36396   5.216  16.718   2.207  0.1311 -0.1586 -0.0848
20928W        W36397  11.966  16.363   6.305 -0.0267 -0.1844  0.0980
20929W        W36398   8.409  12.191   4.094 -0.2567 -0.1712 -0.1194
20930W        W36399  11.167   4.764   2.781 -0.1126  0.1887  0.1246
20931W        W36400   7.371   8.884  12.673  0.0356 -0.5973 -0.1065
20932W        W36401   1.574   0.828  10.692  0.0748 -0.0139  0.2470
20933W        W36402  16.475   0.623  15.808  0.2227  0.0107 -0.0221
20934W        W36403  14.850   8.511  14.560  0.2800 -0.1849  0.0874
20935W        W36404  17.329   7.279   3.789  0.3258  0.1458 -0.3620
20936W        W36405  12.857  12.840   1.970  0.0931  0.1077 -0.2456
20937W        W36406  11.422  15.296  12.951 -0.0807  0.3135 -0.0313
20938W        W36407  13.497   8.164   4.445  0.3393  0.0567  0.0718
20939W        W36408   1.279   7.429  13.012 -0.0952  0.0443  0.3419
20940W        W36409  15.228  12.381  14.444  0.1541 -0.1664  0.3439
20941W        W36410  13.136   9.044  13.524  0.1801 -0.0627 -0.1645
20942W        W36411  12.237  14.632  11.798 -0.0164 -0.1292  0.0137
20943W        W36412   2.516  15.548  14.336 -0.4087 -0.2468  0.2150
20944W        W36413  12.669  10.690   0.573  0.4061 -0.1688 -0.0969
20945W        W36414  10.493  13.185   1.269  0.1384  0.1272  0.2287
20946W        W36415  11.411   6.441   4.475 -0.2582 -0.0186  0.1505
20947W        W36416   7.572   4.526   3.592 -0.2351  0.0017  0.1759
20948W        W36417   0.460  16.394   4.924 -0.1813  0.2067 -0.0237
20949W        W36418   7.520   4.744   0.767 -0.0266 -0.0377  0.0273
20950W        W36419  10.014  10.969   3.751  0.3884 -0.0599 -0.0594
20951W        W36420   5.643  17.721   4.779 -0.2232 -0.0596 -0.0566
20952W        W36421  15.033  16.547   3.079  0.0108 -0.1020 -0.0216
20953W        W36422   8.829   5.814  14.216 -0.0178 -0.0885  0.2107
20954W        W36423   2.403   4.257  14.255  0.0595  0.0650  0.0742
20955W        W36424  17.057  14.697   4.313  0.0076  0.3085 -0.0022
20956W        W36425  10.338  12.950  15.400 -0.0554 -0.3698  0.1942
20957W        W36426   4.981  15.635  15.712 -0.1938 -0.2034 -0.0115
20958W        W36427  13.574  17.398   2.995 -0.1512  0.0013  0.1507
20959W        W36428   8.062   0.493  15.511 -0.1403  0.0516  0.4048
20960W        W36429  12.316  16.572   0.922 -0.0623 -0.2064  0.1499
20961W        W36430  13.672  10.090   0.995 -0.0267 -0.2778  0.3183
20962W        W36431   5.879   2.441  15.284  0.0467  0.2067  0.0364
20963W        W36432   4.653  17.693  12.652 -0.0002  0.0643 -0.0210
20964W        W36433   6.217  12.290   3.007 -0.1589  0.0603 -0.0428
20965W        W36434   9.623   8.098   4.250  0.3440  0.1115 -0.1821
20966W        W36435   1.263   6.265   2.311  0.0930  0.3188 -0.5473
20967W        W36436   2.643  17.384   3.030 -0.0556 -0.0049 -0.0697
20968W        W36437   0.462  14.824   2.976 -0.0242 -0.1971 -0.1294
20969W        W36438  18.189   6.077   3.261 -0.0820  0.1117 -0.1907
20970W        W36439  12.608   3.959  14.723 -0.1695 -0.1489  0.0384
20971W        W36440  15.766  11.308   1.769  0.0413  0.0283  0.0161
20972W        W36441  17.274   5.691   3.123  0.1011  0.1936  0.2090
20973W        W36442   7.489  15.433  10.735 -0.0757  0.0808  0.2295
20974W        W36443   9.959   9.238  13.359  0.2053  0.3672  0.0731
20975W        W36444  13.235  18.038  15.974 -0.3418  0.0626  0.0544
20976W        W36445   3.033   6.393  14.801 -0.0913 -0.1179 -0.3113
20977W        W36446   8.571  15.400   4.257  0.1240 -0.0097 -0.1087
20978W        W36447   1.505  15.035   2.285 -0.0190  0.0338  0.0038
20979W        W36448  14.367   0.864  11.066  0.0709  0.1661 -0.0308
20980W        W36449   3.014   6.770   3.948  0.1549 -0.0716 -0.0475
20981W        W36450   6.904  10.389  10.401  0.0457 -0.0035  0.1011
20982W        W36451  15.127   9.812   2.156 -0.1724 -0.1270  0.1505
20983W        W36452  17.177   6.960  12.116  0.3020 -0.1865 -0.2790
20984W        W36453   0.905   1.555  12.238  0.1624 -0.2273 -0.1797
20985W        W36454  16.651   8.934   1.523 -0.2715  0.0844 -0.0720
20986W        W36455   2.216  12.820  11.551 -0.3384 -0.0269  0.1784
20987W        W36456  11.123   1.121  13.842  0.2290 -0.0961  0.1220
20988W        W36457   7.546   9.905   0.797 -0.0228  0.0915 -0.0160
20989W        W36458  10.409  14.824   3.567  0.3886  0.3281 -0.0744
20990W        W36459   7.257   0.310   0.334 -0.0681 -0.1543 -0.0967
20991W        W36460   9.614   2.799  14.970 -0.0159 -0.0917 -0.1058
20992W        W36461  13.215  13.804  15.593 -0.0296  0.4855 -0.0538
20993W        W36462  14.918   1.654   0.632 -0.1149 -0.1003  0.0073
20994W        W36463   1.197  16.050  16.154 -0.3555 -0.0969 -0.1105
20995W        W36464   5.265   8.215  13.740  0.1455  0.1571  0.1194
20996W        W36465  18.156  15.820  12.005  0.2415 -0.0274  0.1603
20997W        W36466  11.922   9.866   0.394 -0.0814 -0.1018  0.3738
20998W        W36467   1.290  16.943  15.119  0.2131  0.1142 -0.0009
20999W        W36468  10.238   4.258   0.546  0.1744  0.0050 -0.2483
21000W        W36469   4.739   2.441  14.617 -0.0488 -0.3305 -0.0015
21001W        W36470  10.394   4.930  14.068 -0.1489  0.0686  0.0728
21002W        W36471   6.383   1.443   1.515 -0.1132  0.2428  0.2574
21003W        W36472   0.540   9.674   0.968 -0.1845  0.0796 -0.2992
21004W        W36473  14.765  11.759   2.010  0.0912 -0.2170 -0.0844
21005W        W36474   9.752  10.603   1.287  0.1150  0.0331 -0.0542
21006W        W36475  15.145  12.058  11.842  0.1024 -0.2781  0.0421
21007W        W36476   8.338   9.195   0.271 -0.2092  0.0098 -0.0313
21008W        W36477  16.263   0.573  10.579 -0.3097 -0.2802  0.0740
21009W        W36478  13.321  17.815  15.529 -0.0244 -0.2479 -0.1283
21010W        W36479   6.598   9.165  10.881  0.1208  0.1640 -0.0591
21011W        W36480   8.600   3.706   2.051 -0.0761 -0.0798  0.1663
21012W        W36481   7.657   5.925  11.436 -0.4253 -0.0925 -0.1415
21013W        W36482  15.072   2.101  11.333  0.0716 -0.4137  0.0695
21014W        W36483   7.727  12.143  14.082  0.0450 -0.0142  0.2838
21015W        W36484   4.108  15.197   1.505 -0.0031  0.0383  0.1946
21016W        W36485  13.852   6.411  13.849 -0.2146 -0.0674  0.0015
21017W        W36486  16.056   1.215  15.943  0.0041 -0.2004  0.3825
21018W        W36487  13.632   2.068   4.082 -0.2720  0.2584  0.1832
21019W        W36488  12.782  11.052  13.345  0.0360  0.3899 -0.3946
21020W        W36489  16.499  11.909   3.228 -0.4317 -0.0065  0.4831
21021W        W36490   0.175   1.005   3.201  0.1397 -0.1276  0.3238
21022W        W36491  15.311  13.744   0.474  0.1790 -0.1064  0.0712
21023W        W36492  12.273   1.767   4.984 -0.1195  0.2553 -0.1699
21024W        W36493   2.384   1.103   0.458  0.0594  0.3079 -0.0569
21025W        W36494  13.938   5.863   0.169  0.3454  0.1496 -0.2226
21026W        W36495   4.877   4.577   3.431 -0.0925  0.1128  0.2143
21027W        W36496  11.447  10.450   1.837 -0.1809 -0.0613  0.1806
21028W        W36497  17.898  17.899   0.443 -0.0898 -0.0971 -0.3294
21029W        W36498  14.787   0.315  12.671  0.1381 -0.2697 -0.3117
21030W        W36499  18.099   2.050   0.909 -0.0570 -0.0509 -0.2192
21031W        W36500   0.262   1.519  11.423 -0.0480 -0.0432 -0.1583
21032W        W36501   5.660  16.236   0.879  0.2974 -0.0500  0.0978
21033W        W36502  13.884  13.733   2.801  0.1445 -0.2677 -0.2539
21034W        W36503   4.935   9.262   1.666  0.1817  0.1294  0.0162
21035W        W36504  14.488   5.270  12.052 -0.1761 -0.0803 -0.2082
21036W        W36505   9.454   3.251   3.080 -0.4796 -0.1689 -0.0600
21037W        W36506   5.693  16.095  14.548  0.2037 -0.4510 -0.2246
21038W        W36507   4.445  15.857   2.483  0.0269 -0.2088 -0.0838
21039W        W36508  13.342   3.006   3.791  0.1222  0.0813 -0.1420
21040W        W36509   2.471  10.368   1.673 -0.1840 -0.0263 -0.1047
21041W        W36510  13.198  11.963   3.690  0.1246 -0.0308 -0.1346
21042W        W36511  17.189  10.087   1.129  0.4150  0.0414 -0.1601
21043W        W36512   1.124  18.303   1.683 -0.2458 -0.0231  0.1066
21044W        W36513  13.091   5.911   6.063 -0.0308 -0.0885 -0.0364
21045W        W36514  13.148   2.917  14.085 -0.1118 -0.0365 -0.1019
21046W        W36515  11.663   7.260   1.238 -0.4291 -0.1423  0.0514
21047W        W36516   8.854  15.515  11.536 -0.2713 -0.0659 -0.1107
21048W        W36517   6.431  14.560  14.184 -0.2077  0.2580  0.1151
21049W        W36518   4.270   4.492   4.628 -0.0494  0.0629 -0.1208
21050W        W36519   4.583   3.603  15.050  0.0011  0.1810  0.3579
21051W        W36520   9.655   9.235   2.657  0.0511  0.0860 -0.2285
21052W        W36521   7.377  12.724  12.608  0.0853 -0.0816 -0.0797
21053W        W36522   3.662   3.566  11.730 -0.0145 -0.3099 -0.2290
21054W        W36523   7.208  16.408  12.361  0.2002  0.0066  0.1599
21055W        W36524  12.886   5.427  12.486 -0.1159  0.2062  0.2466
21056W        W36525   5.216  14.874  12.506  0.0035 -0.0109 -0.1039
21057W        W36526  15.635   5.663  15.255  0.1099 -0.0185 -0.3871
21058W        W36527   4.062   1.005   1.554 -0.0337 -0.2133 -0.2350
21059W        W36528   0.144  16.526   2.665  0.1513 -0.1606 -0.0860
21060W        W36529  13.928  14.090   3.887 -0.1587 -0.0473 -0.0697
21061W        W36530  14.985   0.710  12.435 -0.1699  0.0824  0.1793
21062W        W36531   3.149   0.420  14.361 -0.1440 -0.0381 -0.0787
21063W        W36532  15.218   6.461  11.209  0.0989 -0.0849  0.3314
21064W        W36533  15.859   7.887   1.447 -0.2392 -0.1903 -0.0126
21065W        W36534  14.342  10.093  13.565  0.0816  0.0954 -0.1222
21066W        W36535  14.437  15.924   2.980  0.2439  0.0797  0.1402
21067W        W36536  16.127  11.708  12.265 -0.1810 -0.1839 -0.0643
21068W        W36537  17.871   3.029  15.262  0.1030  0.1994 -0.0358
21069W        W36538   9.169  15.340   5.250  0.2061  0.2324 -0.0858
21070W        W36539  10.171   4.465  12.904 -0.0056  0.0345  0.4269
21071W        W36540   4.836  16.151   2.577 -0.0842 -0.3086 -0.2457
21072W        W36541   9.323   2.470  13.504 -0.1536  0.3242 -0.0688
21073W        W36542   6.048   5.220  12.934 -0.0635 -0.1506  0.0464
21074W        W36543  15.932  10.387  13.568  0.0872 -0.2645 -0.2715
21075W        W36544   3.097   7.538   2.078 -0.2927 -0.0031  0.1514
21076W        W36545   0.205  16.367  11.242  0.0363  0.1913 -0.0561
21077W        W36546   4.135  17.409  11.509  0.0405 -0.0626  0.0367
21078W        W36547   0.735   8.816   0.881 -0.1577  0.0349 -0.0691
21079W        W36548   5.482  11.501   0.404  0.3071  0.1859 -0.2466
21080W        W36549  13.096  16.880   2.197 -0.1888  0.0981  0.0714
21081W        W36550   9.956  13.367   2.932  0.1217  0.0664 -0.0813
21082W        W36551   0.197   8.107  11.302 -0.0529  0.1218 -0.0158
21083W        W36552   5.889  14.201   0.572 -0.2994  0.2526 -0.1265
21084W        W36553   1.346  11.641  13.716  0.0155 -0.0411 -0.1918
21085W        W36554  16.851   5.408  15.881  0.0394 -0.2310  0.1147
21086W        W36555   5.904  14.945   3.974 -0.0268  0.3725 -0.0549
21087W        W36556  16.933  15.812   4.664  0.0389  0.1490  0.0848
21088W        W36557   6.466   0.572  12.434  0.0189  0.0097 -0.1745
21089W        W36558  15.889   4.260  12.230  0.1943 -0.0490 -0.2391
21090W        W36559   5.868   7.707  15.368  0.0153  0.2338  0.0738
21091W        W36560   2.986   4.730   4.873 -0.2292 -0.1919  0.1470
21092W        W36561  12.119  17.126  15.566 -0.0935 -0.0406  0.1458
21093W        W36562   9.180   5.977   0.495 -0.3208  0.2054  0.0538
21094W        W36563   9.476  14.376   0.231 -0.0654 -0.3180 -0.2643
21095W        W36564   6.659   2.742  14.257  0.0146  0.2510  0.2074
21096W        W36565   7.791   7.614  14.343  0.0029  0.0073 -0.1117
21097W        W36566   0.316   6.209  14.716 -0.0598  0.0056 -0.0146
21098W        W36567   2.813   7.961  13.994 -0.5065 -0.0116  0.1852
21099W        W36568   2.991   1.861   0.722  0.0166  0.1309 -0.1764
21100W        W36569   6.947  14.087  14.362  0.2549 -0.2268 -0.2906
21101W        W36570  15.070  16.354   3.567 -0.2398 -0.1768  0.1592
21102W        W36571  14.530   1.513   0.229 -0.1090 -0.0412  0.0410
21103W        W36572   7.081  17.340  12.048 -0.1569 -0.0977 -0.0616
21104W        W36573  11.594   6.448   5.053  0.1155 -0.2381  0.1891
21105W        W36574  15.803  16.774  12.320 -0.0919 -0.0641  0.0912
21106W        W36575  12.732   1.792  16.052 -0.0256  0.0049 -0.3093
21107W        W36576   1.384   2.723   5.570  0.1268 -0.3067  0.1348
21108W        W36577   3.040  14.750   4.921 -0.3052 -0.0257  0.0124
21109W        W36578   5.562   3.992   4.132  0.1068  0.1218  0.2378
21110W        W36579  17.670  12.034   2.647  0.0653  0.0737 -0.0532
21111W        W36580  15.747   4.168   1.737 -0.3163 -0.3142 -0.3208
21112W        W36581   3.481   5.055  15.231 -0.0194 -0.2345  0.1795
21113W        W36582   4.697  15.399   5.138  0.0717  0.2976 -0.1983
21114W        W36583   0.739  11.522  13.425  0.1915  0.0361 -0.0754
21115W        W36584  15.217  11.928   1.989 -0.0269  0.3121 -0.2224
21116W        W36585   7.689   2.382   3.719  0.5088 -0.2124 -0.1138
21117W        W36586  13.801  15.718  12.710 -0.2307 -0.1362 -0.0915
21118W        W36587   7.762   2.879  15.127  0.1490  0.1196 -0.0707
21119W        W36588  10.037  12.785   0.551 -0.0925  0.3474 -0.1697
21120W        W36589  11.239   5.510   2.721  0.1419  0.0270  0.1864
21121W        W36590  13.644  11.738   5.691  0.1483  0.0726 -0.0130
21122W        W36591  17.773   8.590  13.440  0.0287  0.0527  0.0326
21123W        W36592   6.179   1.682  13.125 -0.1257  0.0047  0.1519
21124W        W36593  11.275  10.805   2.172  0.0207 -0.1367 -0.0694
21125W        W36594   0.657  18.023  13.663  0.0004  0.2631 -0.0509
21126W        W36595   3.035  17.623  12.733  0.0364  0.1922 -0.0576
21127W        W36596  10.215   2.118   3.130  0.0757  0.1645 -0.2374
21128W        W36597   2.697  14.710  14.169 -0.1405 -0.1044  0.2334
21129W        W36598  14.289   8.587  15.753 -0.0515  0.2578 -0.2170
21130W        W36599   9.803   4.374   2.070 -0.0931  0.0212  0.0538
21131W        W36600  16.484  14.670   1.167  0.1811 -0.0006 -0.1374
21132W        W36601  17.196  17.781   4.060 -0.1552  0.4010 -0.2232
21133W        W36602  10.450  17.898  11.568  0.0960  0.1997 -0.2711
21134W        W36603  10.530  15.355  15.059 -0.2439 -0.0786  0.0381
21135W        W36604  17.492  14.432   0.732  0.0536 -0.0603  0.2139
21136W        W36605   7.213  17.009  15.048  0.0475 -0.3172  0.0264
21137W        W36606   3.186   0.196  11.735 -0.4659  0.0474  0.2146
21138W        W36607   4.007   7.023  13.414  0.0943  0.1604  0.2596
21139W        W36608   9.728   7.569   2.040 -0.3128  0.0480  0.1688
21140W        W36609  14.932  18.143   0.323 -0.3032 -0.0477  0.1529
21141W        W36610  12.303   8.178   1.113 -0.0238  0.0668  0.0707
21142W        W36611   9.059   7.210  15.573  0.3015  0.4567 -0.2003
21143W        W36612  15.027  13.668   2.233 -0.1408 -0.2456 -0.3410
21144W        W36613   1.014   6.630  12.303  0.1410 -0.1628  0.2112
21145W        W36614  10.634  10.359   5.045 -0.0919  0.0950 -0.2794
21146W        W36615   0.603  14.951   3.564  0.2954 -0.1351  0.1109
21147W        W36616   0.385  12.776  13.392  0.0777  0.2866 -0.3085
21148W        W36617   0.984   6.958   0.527 -0.0811  0.0535  0.2144
21149W        W36618  14.541  16.501   1.396  0.0594 -0.2771 -0.1551
21150W        W36619  14.783  14.675  15.484 -0.1946 -0.2670 -0.1706
21151W        W36620   5.019   7.904   4.034  0.0164 -0.0023  0.0924
21152W        W36621   3.735   6.716  11.107 -0.1353 -0.1856 -0.1656
21153W        W36622  16.585  13.512   3.670 -0.0654  0.0570 -0.0043
21154W        W36623  11.208   0.431  14.201 -0.2956 -0.0763 -0.0170
21155W        W36624  13.546   3.136   0.458  0.1330  0.1220  0.1888
21156W        W36625   0.883  15.217   1.708  0.1644 -0.0186  0.0176
21157W        W36626   8.079   7.409   0.607  0.1831  0.0800 -0.1637
21158W        W36627   3.936   0.180  14.531 -0.0022  0.1736 -0.0843
21159W        W36628   6.427  15.440  12.109 -0.1461  0.0054 -0.0108
21160W        W36629  10.406  11.393  10.962 -0.3332  0.2462 -0.3782
21161W        W36630   6.366  11.832  14.489 -0.0219  0.1269  0.2064
21162W        W36631   3.516  13.059  13.111  0.2034 -0.0662 -0.1295
21163W        W36632   8.465  14.322   0.813 -0.1538  0.2040 -0.0611
21164W        W36633  15.435   1.640  12.814 -0.0482 -0.0465 -0.0250
21165W        W36634  14.615  12.540   1.966 -0.1207  0.1427  0.1117
21166W        W36635  17.637   9.789  13.405 -0.2198  0.2815 -0.1930
21167W        W36636   3.886   9.093  11.880 -0.1429  0.0466 -0.1062
21168W        W36637  15.678  16.640  13.648 -0.3642 -0.3064  0.1836
21169W        W36638  18.012  10.736   4.906 -0.0675  0.0344 -0.2509
21170W        W36639   6.078  17.185  12.574  0.2319  0.0336 -0.0777
21171W        W36640   5.779   7.531   4.080  0.2422 -0.0526 -0.1464
21172W        W36641   5.978   1.705   4.019 -0.3410  0.0834 -0.1347
21173W        W36642   2.634   9.146  13.255 -0.3723  0.0961  0.0989
21174W        W36643  17.424   2.960  13.493  0.0575 -0.0040  0.1816
21175W        W36644   9.426   6.746   1.821 -0.0774  0.3416  0.3149
21176W        W36645  10.057   1.718   5.751  0.1778 -0.2685 -0.4587
21177W        W36646   9.942  18.167   0.283 -0.0486  0.2213  0.3562
21178W        W36647  18.206  15.782  13.194  0.4259  0.2215  0.0289
21179W        W36648  18.165   9.599  12.694  0.1602 -0.0908 -0.1029
21180W        W36649   6.471   7.606  13.507  0.1150 -0.1524  0.1295
21181W        W36650  10.746   2.823   3.331 -0.2563  0.0481  0.1441
21182W        W36651   8.072   8.012   3.773 -0.2695  0.2193 -0.0466
21183W        W36652  17.994   2.575   5.268 -0.0207 -0.0564 -0.0768
21184W        W36653  16.699   5.714   1.355  0.1819  0.1859 -0.0154
21185W        W36654  17.868  12.922   2.954  0.2515 -0.0429  0.3335
21186W        W36655   2.660   9.099  14.845 -0.1859 -0.0668 -0.0844
21187W        W36656  18.040   3.607  15.203 -0.2064 -0.1648  0.2463
21188W        W36657  13.232  13.415   4.820 -0.0373 -0.2167 -0.5528
21189W        W36658   5.822  13.460  14.683  0.1351  0.0191 -0.3942
21190W        W36659   1.284   5.268  11.163  0.2258  0.3421 -0.0200
21191W        W36660   4.166   0.180   3.426  0.2332 -0.5100 -0.2850
21192W        W36661  14.568  17.701   1.041  0.1844 -0.0172  0.3064
21193W        W36662  11.359  16.492  14.651 -0.1464 -0.0547  0.0956
21194W        W36663   5.075  13.670  13.216 -0.2503  0.0536 -0.0358
21195W        W36664   6.070   5.833   0.954 -0.1600 -0.0197  0.1628
21196W        W36665   2.136  15.468   1.642 -0.0879  0.1404 -0.3232
21197W        W36666   4.893   7.549  15.967  0.1316  0.1781  0.1537
21198W        W36667   0.050  12.141   5.006  0.0939 -0.1801 -0.1327
21199W        W36668   0.074   1.812  13.247  0.0104  0.1885 -0.0409
21200W        W36669  10.796  17.520  13.209 -0.1877 -0.0362 -0.0945
21201W        W36670  12.820   7.565   4.493  0.0563 -0.0181 -0.2772
21202W        W36671  12.573   4.864   5.313 -0.0343 -0.0346 -0.3173
21203W        W36672  15.311   9.388   0.403  0.1669  0.1384  0.3411
21204W        W36673  15.348  11.637  13.806  0.0004  0.1452 -0.3826
21205W        W36674   5.933  11.799  12.365  0.1078  0.0276  0.1653
21206W        W36675   9.034  15.208   4.346 -0.2438  0.1065  0.1426
21207W        W36676  11.086  11.251  14.925  0.0295 -0.0835 -0.0115
21208W        W36677  13.364   1.763  11.017 -0.1807  0.1307 -0.0831
21209W        W36678  12.588   7.962  11.418 -0.0183 -0.2580 -0.1550
21210W        W36679  18.132   6.457   4.947  0.0730 -0.4743 -0.1459
21211W        W36680   6.561   2.906  12.447  0.0930 -0.0384  0.2662
21212W        W36681  16.361  16.344  11.052 -0.0837  0.2618  0.1906
21213W        W36682   2.230  16.139  15.369  0.1408  0.1051  0.0387
21214W        W36683  12.752   1.677  14.561 -0.0350  0.1347  0.0016
21215W        W36684   5.513   8.239  12.339 -0.1846  0.0733  0.0138
21216W        W36685   2.191  10.730  14.141 -0.0225  0.1983  0.1014
21217W        W36686   3.746   4.819   0.463  0.1002  0.0523 -0.2790
21218W        W36687  17.072   7.497  15.613 -0.0112 -0.1625 -0.2353
21219W        W36688  17.107   1.190  11.904 -0.0542  0.1573  0.0450
21220W        W36689  13.270   1.656   6.337 -0.3350 -0.1148 -0.1353
21221W        W36690  13.494  14.918   3.285  0.0398  0.0155  0.2946
21222W        W36691  17.243  18.206   5.513  0.3134  0.2018  0.1449
21223W        W36692  12.994   3.362   2.552  0.2396 -0.2259 -0.1231
21224W        W36693   2.468  12.513  14.022 -0.3966 -0.1424  0.2248
21225W        W36694   0.605   4.388  13.129 -0.0441 -0.0262 -0.0362
21226W        W36695   5.834  13.191  11.367  0.1700  0.0046  0.0198
21227W        W36696   4.371  11.223  13.736 -0.0606 -0.0418 -0.2914
21228W        W36697   6.627  16.014  13.726 -0.0309  0.3716  0.4784
21229W        W36698   2.246  16.628  10.951 -0.2709 -0.1314 -0.0313
21230W        W36699   8.723  12.496  13.363  0.0203 -0.3796 -0.0896
21231W        W36700  11.778   9.672  12.045 -0.1257  0.1573  0.3684
21232W        W36701   6.933   7.071   5.129  0.0278 -0.2057  0.1112
21233W        W36702   4.500  10.672  13.898 -0.0917  0.0270 -0.1691
21234W        W36703   1.084   0.160  14.503 -0.4074  0.0317 -0.0355
21235W        W36704   7.944   9.623  14.719  0.1291  0.2174  0.4019
21236W        W36705  16.454  17.591  15.256  0.0765 -0.0405 -0.0884
21237W        W36706  18.292   7.629   4.828  0.1348  0.0916 -0.4799
21238W        W36707   4.019   2.024  14.847 -0.0712 -0.0460  0.1139
21239W        W36708   6.761   5.338  15.492 -0.1394  0.0333  0.3012
21240W        W36709   2.584   7.363   1.962  0.1469 -0.0533  0.1096
21241W        W36710  10.630  10.372  11.671 -0.1306 -0.1012  0.0700
21242W        W36711   0.690  16.639  14.532 -0.2883 -0.1074 -0.2559
21243W        W36712   4.469  17.940   4.214 -0.1330 -0.1555  0.1619
21244W        W36713   7.562   9.986  16.088  0.3438  0.2897  0.2475
21245W        W36714  15.126  16.094   4.599 -0.1871 -0.0675 -0.0132
21246W        W36715  10.674  15.029   5.898  0.1103 -0.0788  0.2934
21247W        W36716   9.870  14.551  12.314 -0.0646  0.2695  0.0505
21248W        W36717   0.224  13.325  13.313 -0.0823  0.1769  0.0617
21249W        W36718   1.404  11.055   0.034 -0.0958  0.0089  0.2397
21250W        W36719  17.324  10.178  13.627  0.0665  0.1222  0.1219
21251W        W36720   2.878   6.146   0.672  0.1333  0.0984 -0.0982
21252W        W36721   2.328   6.637  12.218  0.1315 -0.2332  0.1931
21253W        W36722  17.572  14.025  13.128  0.0051 -0.1097  0.3869
21254W        W36723   0.107   0.512   4.911 -0.1664 -0.2725  0.1737
21255W        W36724   0.033   2.170   3.145  0.1478 -0.3094  0.0407
21256W        W36725   7.210  16.425   0.010 -0.1042  0.0075 -0.3516
21257W        W36726  13.489  16.622  12.629  0.2056  0.2982  0.1110
21258W        W36727   1.181   3.296   2.747  0.3561  0.3213  0.0175
21259W        W36728  11.634  17.178   3.406  0.0140 -0.0280  0.0382
21260W        W36729   8.036  18.241   5.953 -0.3295 -0.0439  0.3101
21261W        W36730   1.634   2.991  14.829  0.2071 -0.0699  0.0450
21262W        W36731  14.730  15.385   3.552 -0.2042 -0.0349 -0.1908
21263W        W36732  17.696  15.204   0.409 -0.0437  0.0703  0.1125
21264W        W36733  15.726  14.880   4.316 -0.1056  0.0155  0.0106
21265W        W36734   0.137  13.751  11.188 -0.0370 -0.2937  0.1298
21266W        W36735   2.472   4.158   2.276 -0.2726 -0.1294 -0.1855
21267W        W36736   8.786   2.285  13.509  0.3607  0.3276  0.1725
21268W        W36737   2.982  14.204   2.798  0.2507  0.0031 -0.3006
21269W        W36738  14.438   5.041   4.372  0.3107  0.0404 -0.2014
21270W        W36739   8.655  10.854  15.819  0.0754  0.0066 -0.1550
21271W        W36740   8.940   6.840   1.615 -0.2460 -0.0411  0.0245
21272W        W36741  11.455   3.516  14.770 -0.0573 -0.0744 -0.0702
21273W        W36742  10.047  16.061  14.745 -0.1031 -0.1297  0.1559
21274W        W36743  10.736   0.168   5.125  0.0036 -0.0527  0.2066
21275W        W36744   0.243  10.331  14.417 -0.1961 -0.2216 -0.2183
21276W        W36745   6.737  14.668   5.361 -0.1612  0.0423 -0.0661
21277W        W36746   7.708   5.935  13.373 -0.0735  0.0791  0.0195
21278W        W36747   6.958   6.634   3.077 -0.0898 -0.0090 -0.1794
21279W        W36748   2.544  17.009   0.263  0.2228  0.0111 -0.1271
21280W        W36749  12.398  17.085   0.704  0.1756 -0.1479  0.1605
21281W        W36750  10.065   2.634   3.825 -0.1714 -0.2102  0.1629
21282W        W36751   6.224  10.641  15.492 -0.1356 -0.3089  0.2456
21283W        W36752  13.062   3.876  13.244 -0.1613 -0.0299 -0.3044
21284W        W36753  14.476  14.931   2.926  0.1560 -0.2107 -0.2866
21285W        W36754  14.955  11.246   5.840  0.3572 -0.2988 -0.2832
21286W        W36755  10.543  14.116   3.519  0.0205 -0.0571 -0.0643
21287W        W36756  16.263  13.036  12.745 -0.5669 -0.4848  0.0787
21288W        W36757   8.101  11.115   2.467 -0.0288 -0.0510  0.4332
21289W        W36758   8.856  16.560  15.890 -0.1463 -0.2351  0.1192
21290W        W36759   5.462  15.424  12.301  0.1968 -0.0525  0.1443
21291W        W36760   1.342  12.136  13.634 -0.0397  0.1556  0.0683
21292W        W36761   0.812   0.204   4.555 -0.1247 -0.0342  0.1316
21293W        W36762  16.934  13.107   0.330 -0.1533  0.1374 -0.0305
21294W        W36763   1.198   0.177   2.783 -0.5104  0.4172 -0.0939
21295W        W36764   6.309  12.228  14.205  0.0066 -0.1618 -0.1572
21296W        W36765  11.448   3.246  12.222  0.4268 -0.0319 -0.3993
21297W        W36766  16.391  11.650   4.993  0.2995 -0.4194 -0.0322
21298W        W36767   1.004  14.052  12.543  0.0255 -0.1928  0.3765
21299W        W36768   3.789   9.523  15.117  0.1762  0.3239  0.2153
21300W        W36769   9.231  17.839   1.640 -0.1606 -0.2847  0.0065
21301W        W36770  16.543   3.106   4.335  0.1425  0.2884  0.1871
21302W        W36771  14.455   0.014   0.511  0.3407 -0.0868  0.2004
21303W        W36772   1.221   5.523  14.130 -0.0012  0.1899 -0.1842
21304W        W36773   2.912  14.873  10.782 -0.1850  0.1994 -0.0850
21305W        W36774   0.299  12.334  14.305  0.0323  0.2082  0.0784
21306W        W36775  12.652  13.543  16.098 -0.1271 -0.0240  0.1347
21307W        W36776   0.695  12.225   3.990 -0.0791 -0.1971 -0.3817
21308W        W36777  15.724   7.220  13.514  0.1234 -0.0091 -0.2051
21309W        W36778  11.280   3.540   4.698  0.0417  0.1235  0.3568
21310W        W36779  12.342   5.424   5.408 -0.3635  0.0910  0.2019
21311W        W36780  11.784   5.657   2.256  0.2402 -0.1535 -0.0446
21312W        W36781  17.130  12.241   3.068  0.1009 -0.0386  0.0862
21313W        W36782   9.786  15.717   4.520  0.2866 -0.0263  0.0148
21314W        W36783   6.008   5.135   5.270 -0.0648  0.1055 -0.0626
21315W        W36784   9.193  17.980  12.287  0.0193 -0.2187  0.0186
21316W        W36785   0.892  17.701   0.899  0.1078  0.0131  0.0586
21317W        W36786  13.243  10.898  14.637 -0.3425 -0.1195 -0.1740
21318W        W36787  14.729   3.802  11.563  0.1549 -0.0927  0.2680
21319W        W36788   3.506  12.645   5.276 -0.2803 -0.0588 -0.0652
21320W        W36789   3.073   5.562  16.009  0.1668  0.0350  0.1432
21321W        W36790  11.641  10.848   3.673 -0.1404 -0.1075  0.2067
21322W        W36791   4.972  16.560   1.796 -0.1318 -0.2268  0.1967
21323W        W36792   7.297   2.890   5.721  0.0726  0.1639  0.1410
21324W        W36793   5.083   0.791  14.509 -0.0606 -0.1595  0.0104
21325W        W36794  10.864   2.476   5.265  0.2735 -0.0257  0.1875
21326W        W36795   4.508   1.101  10.812  0.1037 -0.1818 -0.2255
21327W        W36796   8.319  15.080  13.717 -0.4319  0.4602 -0.0952
21328W        W36797   5.376   1.166   0.326 -0.1059 -0.0657 -0.2428
21329W        W36798   1.334   8.195   3.659 -0.2375 -0.2578 -0.2400
21330W        W36799  17.451   9.440  11.337 -0.2518 -0.0560  0.2261
21331W        W36800   2.139   6.006  15.037  0.3209 -0.1766  0.1950
21332W        W36801   2.150  16.149   3.705  0.0205 -0.1539 -0.3519
21333W        W36802   1.823  12.791  13.528 -0.0302 -0.1658  0.1633
21334W        W36803   6.585  17.288   1.605 -0.3015 -0.0100  0.1769
21335W        W36804   5.469  14.848   2.135 -0.1087 -0.1109 -0.2068
21336W        W36805   2.304  13.258  14.277 -0.1491 -0.0723  0.1064
21337W        W36806   1.381   0.531   0.685  0.2907  0.3407  0.0635
21338W        W36807  15.388  15.401   5.829  0.0737  0.0966  0.2030
21339W        W36808   2.058  18.065  12.649  0.0707 -0.1044  0.1001
21340W        W36809   4.012   8.272  11.504 -0.2112 -0.2689 -0.0768
21341W        W36810   2.390   5.696  12.470 -0.2761 -0.0158  0.1749
21342W        W36811   5.594  13.332   1.585  0.0281 -0.0639 -0.3235
21343W        W36812  13.122   6.714   3.091  0.0122  0.1618 -0.1979
21344W        W36813  18.168  12.058  12.203  0.4501  0.2110 -0.0454
21345W        W36814   9.389   0.360   0.984  0.1578  0.0545  0.2954
21346W        W36815   9.491  15.029  12.443 -0.0977  0.1979  0.0650
21347W        W36816   6.978   8.459   0.582  0.1041 -0.1597 -0.1721
21348W        W36817  10.653  12.018   4.547  0.1909  0.0677  0.0710
21349W        W36818   0.767   2.934   2.342 -0.0383 -0.1906 -0.0182
21350W        W36819   2.188   3.429  10.747  0.1006 -0.0126 -0.1153
21351W        W36820   7.291   8.949   2.516  0.0695 -0.1040  0.2406
21352W        W36821   1.142   9.150   5.892 -0.1134  0.1626  0.4141
21353W        W36822  12.900  13.372   1.817  0.0684  0.1764 -0.2070
21354W        W36823   1.810  10.485  15.486  0.1040  0.5474  0.4287
21355W        W36824   1.744   2.512   4.609  0.2706  0.1614  0.0710
21356W        W36825   5.337  12.787   4.995  0.2401  0.1298 -0.2103
21357W        W36826   9.324   5.773   3.494 -0.1468  0.1185 -0.1018
21358W        W36827   6.875  11.910   0.073  0.1412 -0.0148  0.1454
21359W        W36828   9.784  16.231  11.208 -0.0603  0.0605  0.1551
21360W        W36829   1.007   0.829   2.304  0.2328  0.0364 -0.1937
21361W        W36830   3.021   0.045   1.571  0.0122  0.2604 -0.0328
21362W        W36831   7.315   5.812  12.290  0.2428  0.0886  0.0788
21363W        W36832  18.140  17.852   3.601 -0.0055 -0.1800  0.0303
21364W        W36833   9.010  10.433  14.657  0.1739  0.0231  0.0180
21365W        W36834   3.194  16.745   0.620  0.3558 -0.2443 -0.0414
21366W        W36835   3.586   3.943   2.505 -0.1610 -0.1765  0.0102
21367W        W36836  16.569  10.203  13.170 -0.1356 -0.1612 -0.1645
21368W        W36837   7.849   3.216   6.163 -0.2821 -0.2409  0.0178
21369W        W36838   7.392  14.069  13.315 -0.0482  0.1815 -0.2593
21370W        W36839  11.123  15.959   2.888 -0.2355 -0.5298 -0.0471
21371W        W36840   9.903   3.569   4.100 -0.0473  0.0847 -0.4363
21372W        W36841   4.822  17.160   1.034  0.1298 -0.2726 -0.2020
21373W        W36842  14.827   6.756  11.434  0.0403  0.2530  0.2035
21374W        W36843  10.688  17.477  11.789 -0.1636 -0.1320  0.1239
21375W        W36844   5.434   4.523  12.229 -0.2921 -0.1389  0.0303
21376W        W36845   3.754  17.185   4.691  0.0880 -0.0354 -0.0533
21377W        W36846   0.106  11.179   3.413 -0.0146  0.1227 -0.2531
21378W        W36847  11.271   6.762  12.442 -0.2367  0.0448  0.0888
21379W        W36848   4.892   0.265  14.477  0.0924 -0.0556 -0.0937
21380W        W36849  12.677  15.860   0.693 -0.0522 -0.0833  0.1788
21381W        W36850   5.925   8.306   3.459  0.1326  0.2810 -0.1613
21382W        W36851   4.394   9.697   1.135  0.1527 -0.1302 -0.1086
21383W        W36852   1.324   7.686  14.407  0.2198 -0.0820  0.1643
21384W        W36853  13.278   5.813   1.387  0.1160 -0.1254 -0.0715
21385W        W36854  14.598  17.763   4.531 -0.3676 -0.0188  0.1965
21386W        W36855   8.511  16.169  15.789 -0.0320  0.1321 -0.4909
21387W        W36856   8.236   3.497   4.931 -0.0750 -0.0961 -0.1646
21388W        W36857  14.970  12.797   2.150  0.2096  0.1032 -0.1126
21389W        W36858  13.439   7.569  11.927 -0.2537 -0.0359 -0.0465
21390W        W36859   1.451   1.050  12.892  0.2417  0.0165 -0.3905
21391W        W36860   1.161  11.201   2.727 -0.1562 -0.1130  0.0853
21392W        W36861   3.618  17.651   3.350  0.0064 -0.1148 -0.2056
21393W        W36862  17.056   5.216   0.881 -0.3642 -0.2745  0.2502
21394W        W36863  17.565  13.635  14.715 -0.1822  0.1723 -0.0579
21395W        W36864   8.722   8.589   4.495 -0.2130  0.0085 -0.0991
21396W        W36865   7.891   9.256  12.062  0.0687  0.1586 -0.2581
21397W        W36866   7.967  17.656   3.233 -0.1422  0.1007 -0.1530
21398W        W36867   6.534   3.845  15.905  0.1454 -0.1834  0.3561
21399W        W36868   9.793  11.171  14.261  0.2607 -0.2436 -0.1387
21400W        W36869   6.767   0.681   4.174 -0.1991  0.1527  0.1604
21401W        W36870  14.804   4.656   5.175  0.1248 -0.5233 -0.0132
21402W        W36871  13.578   2.946   4.754 -0.0906  0.0285 -0.1028
21403W        W36872  11.558  10.774   5.873  0.3235  0.5642 -0.1013
21404W        W36873  16.962   7.978   3.766  0.0195  0.0329  0.2942
21405W        W36874  17.011   7.458  12.130  0.1342  0.1327 -0.0570
21406W        W36875  17.584  17.782  13.928 -0.0503  0.1609 -0.2018
21407W        W36876  11.376   9.612  10.526  0.2971 -0.0458  0.1254
21408W        W36877   6.902  13.052   5.051 -0.2987 -0.3257  0.0082
21409W        W36878  13.925   6.023   2.955  0.1407  0.2669 -0.1323
21410W        W36879  13.314   0.101  12.545 -0.0974  0.0358  0.1280
21411W        W36880  14.433   3.780   4.894  0.0167  0.0561 -0.2631
21412W        W36881   9.802  15.198  11.238  0.0143 -0.0423 -0.1803
21413W        W36882  12.097  14.298  15.001  0.0279  0.3292 -0.2886
21414W        W36883   5.509   2.817   5.420 -0.0628  0.4231 -0.1416
21415W        W36884   8.629  17.022  15.049 -0.1491 -0.0789 -0.2977
21416W        W36885  12.004  13.086  12.569 -0.0362  0.2583 -0.0717
21417W        W36886   9.309  16.479   3.138 -0.0710 -0.2295 -0.1215
21418W        W36887  16.217  11.933   1.468  0.1126  0.0555 -0.1316
21419W        W36888   4.590  12.838   2.418 -0.1145  0.1659  0.0126
21420W        W36889   3.801  13.496  13.931 -0.1939  0.5320 -0.0276
21421W        W36890  18.057   0.027   0.185 -0.2023 -0.0323  0.0294
21422W        W36891  17.300  18.084  11.498  0.0463  0.4261 -0.1348
21423W        W36892   1.937   4.374   3.528 -0.1987 -0.0369  0.1748
21424W        W36893   2.738  13.000  10.710  0.1518  0.1776  0.1482
21425W        W36894   5.381   2.065  13.302 -0.0552 -0.0933  0.0516
21426W        W36895   4.794   3.226  12.109 -0.3314  0.4997  0.1943
21427W        W36896   2.218   9.050  14.666  0.1040  0.0736  0.0463
21428W        W36897   3.640  15.948  14.499 -0.0323 -0.0184 -0.0257
21429W        W36898  16.008  15.959  12.286 -0.0649 -0.1266 -0.0872
21430W        W36899   5.830   4.505   3.997 -0.1037 -0.2498 -0.1056
21431W        W36900   7.662   1.010  13.257  0.1115  0.1542  0.1202
21432W        W36901   4.092   7.965   6.012  0.1060  0.0614 -0.0682
21433W        W36902   3.803  10.138   4.570  0.0465 -0.1756  0.1356
21434W        W36903  14.798  11.452   5.434  0.2554 -0.0422 -0.0219
21435W        W36904   7.456   9.136  15.428 -0.6287  0.1834  0.1753
21436W        W36905  11.996  14.966  10.864 -0.1623  0.1464  0.0336
21437W        W36906  10.803  10.504  13.823 -0.2408 -0.1693  0.2337
21438W        W36907   1.318   0.467   1.591 -0.0340  0.1460 -0.0042
21439W        W36908   3.947  17.790  16.090 -0.1223 -0.0218  0.1287
21440W        W36909   8.878  15.648   3.516  0.2227  0.1077  0.1710
21441W        W36910  10.281   5.616   0.194 -0.3295  0.2144  0.2199
21442W        W36911   6.518  13.834  15.665  0.0097  0.1381  0.4043
21443W        W36912   2.778  18.188  11.545  0.0560  0.2027  0.1251
21444W        W36913   8.193   8.057   0.940  0.0135  0.2958  0.1541
21445W        W36914  11.591  14.040   3.200  0.1499  0.0461 -0.0144
21446W        W36915  18.205   0.451   0.493 -0.0798  0.0785 -0.0840
21447W        W36916  11.649  12.171   2.279 -0.1381 -0.1236  0.0344
21448W        W36917  17.391   5.985   3.914  0.1408  0.2052  0.0399
21449W        W36918   3.860   7.527   0.419 -0.1502 -0.1956 -0.2148
21450W        W36919  15.350  14.004  12.834 -0.0116 -0.0042  0.1462
21451W        W36920  14.380  11.922  12.841  0.0795  0.1855  0.1292
21452W        W36921  15.158   7.075  12.739 -0.2830 -0.1801 -0.2785
21453W        W36922   5.484   9.915  15.128 -0.3079 -0.1034  0.2584
21454W        W36923   7.791  16.888  12.982 -0.6161  0.1144 -0.1040
21455W        W36924   1.803  10.358  14.186 -0.2483 -0.0627 -0.2423
21456W        W36925  18.211   5.636   2.690 -0.2974 -0.0071 -0.0101
21457W        W36926  17.842  17.841  13.537 -0.1979 -0.3956  0.0478
21458W        W36927  11.452   5.859   0.650 -0.0270 -0.1279 -0.1706
21459W        W36928  11.253   5.097   1.989 -0.0419  0.0097  0.0608
21460W        W36929  14.362   5.434   0.981  0.0755  0.1200  0.0414
21461W        W36930  10.932  10.294  13.334  0.0102 -0.5824 -0.1916
21462W        W36931   1.153  12.544  12.845  0.1810 -0.0859 -0.1096
21463W        W36932   0.057  16.072  14.361  0.1222 -0.0256  0.1963
21464W        W36933   2.472   3.078   1.484  0.0882  0.0596  0.0780
21465W        W36934   9.881  18.075  12.852 -0.1415  0.0650  0.0528
21466W        W36935  15.324   2.496   4.790 -0.1476  0.2409 -0.0529
21467W        W36936   7.792  13.261   2.996  0.3893 -0.0141  0.1827
21468W        W36937   2.807   1.666  13.468 -0.0890  0.1058 -0.0165
21469W        W36938  11.514  12.143   1.103 -0.0519  0.3877 -0.0453
21470W        W36939   5.495  17.322  11.226  0.3350  0.0120  0.0074
21471W        W36940   4.622   4.627   1.328 -0.3607 -0.0114  0.1444
21472W        W36941  16.182  12.271  12.121 -0.0314 -0.0018 -0.0099
21473W        W36942   6.526  10.427  14.551 -0.0261  0.2882  0.0205
21474W        W36943   1.235   1.289   3.020  0.0620  0.0867  0.2938
21475W        W36944   4.627   9.480   4.733 -0.1915 -0.1636 -0.0770
21476W        W36945   9.640  13.996   4.150 -0.2972 -0.1335  0.0214
21477W        W36946  15.081   9.430   2.732  0.0521 -0.3146  0.0226
21478W        W36947   4.771   6.842   0.885 -0.1147 -0.1234 -0.0638
21479W        W36948  18.268   7.671  12.395 -0.0746 -0.1141 -0.0598
21480W        W36949  11.579  12.298   3.235 -0.0585  0.1636 -0.0671
21481W        W36950   9.243  11.505  16.080  0.1906  0.0605  0.0463
21482W        W36951  17.832   5.833   2.348  0.0406  0.1768  0.0525
21483W        W36952  13.606  15.282  14.695 -0.0689 -0.2134  0.0285
21484W        W36953   0.709  15.438   0.591 -0.1803  0.2185  0.1294
21485W        W36954   2.339   8.748  16.145  0.0081  0.0258  0.0012
21486W        W36955   5.279  15.729   4.078  0.4558  0.2943  0.0413
21487W        W36956   4.539   3.227  14.670 -0.2868  0.1784 -0.2340
21488W        W36957   1.629   3.482   2.157  0.1490  0.1907 -0.3598
21489W        W36958  13.122   6.850  14.572 -0.0406  0.3843 -0.2646
21490W        W36959  15.792   5.726   1.421 -0.1396 -0.3022 -0.2832
21491W        W36960   2.876  11.087  12.306 -0.1266 -0.2859  0.1376
21492W        W36961   7.666  14.658  12.624 -0.0987 -0.0054 -0.2039
21493W        W36962  10.865   0.175  15.757 -0.2013  0.1482 -0.2298
21494W        W36963   5.972   4.268  14.037 -0.1641  0.0089  0.0302
21495W        W36964   1.201   9.542  13.755 -0.1118  0.2929  0.0731
21496W        W36965  14.194  15.409   5.170 -0.0078  0.2591 -0.0129
21497W        W36966   9.304   3.560  14.339  0.2010  0.3552 -0.2837
21498W        W36967   1.727  11.082  14.852  0.3496  0.4026  0.1634
21499W        W36968   1.523  12.262   0.521  0.0182  0.1444 -0.4128
21500W        W36969   7.042   0.418   5.427 -0.0672  0.1777 -0.0630
21501W        W36970   7.392  18.289   4.640 -0.0528 -0.1954  0.1210
21502W        W36971  16.319  13.178  12.277  0.2034 -0.1304 -0.0212
21503W        W36972   0.643  18.019  10.837 -0.1388 -0.1485  0.1065
21504W        W36973  16.871  17.781   0.058  0.0073 -0.2592 -0.0809
21505W        W36974  10.290   2.236  12.495 -0.1926  0.1452  0.2269
21506W        W36975  14.823   9.124  12.179 -0.1020 -0.1513  0.0181
21507W        W36976  11.885  18.168  15.929  0.0429  0.0575  0.2615
21508W        W36977   8.764  14.323  14.657  0.0291 -0.2029 -0.1645
21509W        W36978   8.748   8.252   5.147  0.0486  0.1064  0.1119
21510W        W36979  12.338  13.445   4.747  0.1021  0.0769 -0.1440
21511W        W36980   7.221  11.599   1.090 -0.0905  0.2478  0.0250
21512W        W36981  13.786   3.359  11.151 -0.1659 -0.2256  0.0161
21513W        W36982   0.199  16.556  14.540 -0.2664 -0.0261 -0.0089
21514W        W36983   2.809   6.104   4.686 -0.0431 -0.1381  0.2381
21515W        W36984  15.210  10.135   1.414  0.0670  0.2009 -0.2686
21516W        W36985   0.959   3.994   3.469  0.1011 -0.1317  0.1048
21517W        W36986   1.962   0.360  15.544  0.1657 -0.2415  0.1924
21518W        W36987   4.642   1.474   3.913  0.0350  0.1055  0.1479
21519W        W36988   1.227  18.214  14.973  0.1448  0.1899  0.0361
21520W        W36989  14.168  11.093  14.925 -0.0303  0.0724 -0.0323
21521W        W36990   2.984  16.244  12.687  0.0456  0.0238 -0.0031
21522W        W36991  15.854   5.370   1.775 -0.1979  0.2299 -0.0082
21523W        W36992   8.309   1.587  11.109 -0.0164 -0.1579  0.0524
21524W        W36993   6.174  10.948  14.990  0.1986  0.0329  0.1240
21525W        W36994  10.316  15.539  11.220 -0.0369  0.1235 -0.1339
21526W        W36995   7.750   2.544   2.461  0.0422  0.1425  0.1451
21527W        W36996   5.278  14.259  11.650  0.0986 -0.2853 -0.2791
21528W        W36997   0.915   0.442   4.128  0.3367  0.2389  0.1691
21529W        W36998  14.450  11.239   1.353 -0.1517 -0.3213  0.1833
21530W        W36999  13.567  14.350  11.869 -0.0997  0.2655  0.0534
21531W        W37000   9.899   5.452   4.770 -0.0921  0.3662  0.0847
21532W        W37001   9.215   4.626   0.391  0.1349  0.0530  0.1297
21533W        W37002   1.424   1.088   1.566  0.2771 -0.0437  0.0166
21534W        W37003  15.499   3.304   5.402 -0.0730 -0.1941 -0.2899
21535W        W37004   5.123  10.732  15.745  0.0681 -0.4815  0.1425
21536W        W37005   4.653  10.383  15.730  0.1030 -0.4535  0.3171
21537W        W37006   3.787  15.056  14.704 -0.0708  0.0991  0.3404
21538W        W37007  16.730   8.697  11.217  0.0516  0.4868  0.0085
21539W        W37008   9.015   2.266   5.237  0.2719 -0.0772  0.0771
21540W        W37009   0.370  17.380   2.153  0.1766  0.1693  0.2095
21541W        W37010  16.005  10.005   0.362 -0.3207  0.1016  0.2842
21542W        W37011   5.572  15.296  14.495  0.0796 -0.2656 -0.0106
21543W        W37012  10.097   4.593   3.387  0.1090  0.0882 -0.0448
21544W        W37013  12.651   6.626  12.021 -0.0069  0.1846 -0.3311
21545W        W37014   3.283  13.434   0.906  0.2136 -0.0476 -0.1112
21546W        W37015   1.790   4.278   1.118 -0.1826 -0.5679 -0.1043
21547W        W37016   1.509   7.074  13.945 -0.1825 -0.2916 -0.3620
21548W        W37017   9.267   1.379  16.154 -0.0152 -0.0934  0.2185
21549W        W37018   9.438   5.594   3.011 -0.0902 -0.1324  0.1464
21550W        W37019   1.938  12.732  14.017 -0.0090 -0.3348 -0.0117
21551W        W37020   1.596   4.104  15.991 -0.0116  0.2221  0.2331
21552W        W37021   5.301  16.502  12.656  0.0195  0.2005  0.2019
21553W        W37022   7.215   2.896  11.721 -0.1144 -0.0813 -0.0054
21554W        W37023  13.529   3.089  11.701 -0.2927 -0.0662 -0.1135
21555W        W37024  14.403  17.370  13.883  0.1005  0.3652 -0.0085
21556W        W37025   6.722  13.215  14.869  0.1575 -0.0431  0.0301
21557W        W37026  11.934  11.608   1.121 -0.1149 -0.0864  0.5791
21558W        W37027   7.915  16.466   4.638  0.0710  0.3005 -0.0836
21559W        W37028  10.021   1.966  14.133 -0.1435 -0.2164 -0.3361
21560W        W37029   6.613   3.278  15.375 -0.0410 -0.2683  0.1393
21561W        W37030  16.256   8.236   0.100  0.2157 -0.1572 -0.1740
21562W        W37031   8.448  10.921   4.593  0.2038 -0.1156 -0.2921
21563W        W37032  14.659   4.192   0.334 -0.0669  0.0729  0.0176
21564W        W37033   7.740  11.393  16.100 -0.1195 -0.1955  0.1463
21565W        W37034  13.248  14.141  14.278 -0.0495 -0.0832 -0.0940
21566W        W37035   5.437   5.236  14.726 -0.3474 -0.1776 -0.1633
21567W        W37036   0.147  12.708   1.139  0.3238  0.1320  0.1811
21568W        W37037  13.258  11.937   1.672  0.1874 -0.4509 -0.1176
21569W        W37038  10.278   7.096   5.409 -0.1499  0.0558  0.0132
21570W        W37039  11.111   7.849  13.033 -0.0478  0.0111 -0.0204
21571W        W37040  10.273   2.370  11.950 -0.2262 -0.2245 -0.1616
21572W        W37041  13.896   0.300   0.868 -0.3825 -0.2639 -0.4116
21573W        W37042  15.810  11.274   0.466 -0.0370 -0.2287 -0.1275
21574W        W37043  17.758   0.253   3.100 -0.1341 -0.1056  0.2348
21575W        W37044  12.419   9.070  14.217 -0.2193  0.2058 -0.3915
21576W        W37045   5.955   0.614   3.330  0.0355  0.0051 -0.0764
21577W        W37046   2.011   9.599   5.456  0.2008  0.2633 -0.4398
21578W        W37047   2.352   1.446   1.679  0.0950 -0.0890  0.1145
21579W        W37048  16.378   1.170  13.808  0.0804 -0.2688 -0.2177
21580W        W37049  10.572  15.351   5.475 -0.3194 -0.1507 -0.2051
21581W        W37050   4.326   4.736  13.380  0.2070 -0.2133  0.0517
21582W        W37051  17.269  14.378   2.146 -0.1417 -0.0452 -0.1398
21583W        W37052   2.863  16.903   1.743 -0.1697  0.0270  0.0160
21584W        W37053  11.198  12.749  14.954 -0.2817  0.0647 -0.2290
21585W        W37054   9.813  12.806   3.457 -0.0747  0.2610  0.1525
21586W        W37055  16.464   7.724   3.083 -0.1330 -0.1658  0.1235
21587W        W37056   2.933   2.865  11.560 -0.2293  0.2285  0.1325
21588W        W37057   0.319   9.573   3.367 -0.5836  0.0908  0.0375
21589W        W37058  12.717  10.992   1.046  0.2579 -0.3099 -0.0053
21590W        W37059   1.672  10.121   6.308  0.0425  0.0987  0.3754
21591W        W37060   6.988  16.318  10.813 -0.0130  0.3484  0.0535
21592W        W37061   1.107  15.998   3.495  0.1168 -0.0783 -0.0589
21593W        W37062   4.056   9.671  11.011  0.2456  0.0454 -0.0499
21594W        W37063   3.477   3.660   1.167  0.0045  0.0656  0.1181
21595W        W37064   3.844  11.323   2.103  0.1361 -0.0526 -0.0083
21596W        W37065  14.985  17.508  12.346  0.1058 -0.0895 -0.0572
21597W        W37066  13.846   6.601   1.147  0.1489  0.1896  0.0510
21598W        W37067   9.533  15.986  12.097  0.0622  0.1886  0.0865
21599W        W37068   8.726   2.328   0.200 -0.0535  0.0391 -0.0427
21600W        W37069   8.678   0.807  15.591 -0.0568 -0.1957  0.0443
21601W        W37070   6.603   1.247   1.913 -0.3071 -0.1022  0.0245
21602W        W37071  13.493  10.165  12.969  0.0242  0.0716 -0.0689
21603W        W37072  12.132   9.943   1.423  0.1196 -0.0741  0.4408
21604W        W37073  18.238  15.839   4.251 -0.0861  0.0786 -0.2469
21605W        W37074   6.989  16.340  14.361 -0.4329 -0.1045 -0.2420
21606W        W37075   0.860  15.011   4.615 -0.0125 -0.2161  0.1564
21607W        W37076   6.840   5.088  11.931  0.1792  0.0007 -0.2569
21608W        W37077   6.616   7.754  12.253  0.0684 -0.1643 -0.1288
21609W        W37078   2.598  11.966   2.225 -0.1453 -0.4168  0.0729
21610W        W37079  12.695   3.308   0.243  0.1631  0.3624 -0.2631
21611W        W37080   9.888  13.460   1.746 -0.1374  0.0157 -0.1469
21612W        W37081   3.052   8.117  12.500 -0.2113 -0.2135 -0.3409
21613W        W37082   0.198   5.392   1.847  0.4084  0.2267  0.1059
21614W        W37083   7.702   7.241   3.975 -0.0638  0.0604 -0.0010
21615W        W37084   3.943   3.473  15.738  0.1582  0.0838  0.1692
21616W        W37085  14.321  16.987   4.195  0.1687  0.2688 -0.1728
21617W        W37086  13.065   7.847   4.103  0.0447 -0.0598 -0.0290
21618W        W37087   2.793   5.521  13.960  0.0918  0.3969 -0.1618
21619W        W37088   1.365  13.274  14.161 -0.2112  0.1719 -0.0362
21620W        W37089  14.690   3.738   5.328 -0.1534 -0.1402 -0.0395
21621W        W37090  14.033  13.196  15.584 -0.1726 -0.0809  0.0578
21622W        W37091  14.076  18.228  12.084 -0.0220  0.3414 -0.0380
21623W        W37092   3.097  13.200  14.022 -0.0015  0.0151  0.1871
21624W        W37093   4.538  11.723  14.517  0.1062  0.0047 -0.0281
21625W        W37094  12.909   5.284   1.935  0.0790  0.2402 -0.1390
21626W        W37095   6.632   4.573   1.718 -0.3114 -0.0409  0.0972
21627W        W37096  11.575  15.844   2.563 -0.1753  0.0346 -0.0190
21628W        W37097  15.464   2.198   5.159 -0.3299 -0.0547  0.0776
21629W        W37098   7.346   3.556  15.240 -0.2004  0.2104 -0.6124
21630W        W37099  13.349  17.018   0.702 -0.2737 -0.0078 -0.1987
21631W        W37100   8.276   9.963  13.008 -0.1622  0.2603  0.0106
21632W        W37101   3.673   2.424  11.680 -0.1771 -0.1174 -0.0762
21633W        W37102   5.681  16.578  14.614 -0.2976  0.2240  0.1008
21634W        W37103   3.426  15.068   4.812  0.0729  0.0854 -0.1777
21635W        W37104   0.487   5.736   4.357  0.2321  0.1989 -0.2121
21636W        W37105   4.282   7.270   0.346 -0.0896  0.0696  0.1789
21637W        W37106   8.945   4.145  11.560 -0.0629  0.0703 -0.0181
21638W        W37107   5.681   6.050  13.686 -0.0759 -0.0471 -0.2097
21639W        W37108   0.904   7.092  12.151 -0.0169 -0.0932 -0.2846
21640W        W37109  15.483  10.575   4.663 -0.2860 -0.2995 -0.1378
21641W        W37110  16.254   5.979  15.851  0.2698 -0.1168 -0.1530
21642W        W37111  14.722  13.743  11.564  0.2572  0.0875 -0.0360
21643W        W37112  11.541   4.082  15.630 -0.1964 -0.2453  0.0932
21644W        W37113   4.370  11.835  11.758 -0.0094 -0.1972 -0.0398
21645W        W37114   8.826  16.249   5.022  0.0133 -0.0531  0.2778
21646W        W37115  14.288   7.503   4.466  0.0340  0.1085  0.3171
21647W        W37116   8.252   9.327  14.972  0.1360  0.1150  0.2998
21648W        W37117   6.704  10.342  11.447  0.1923  0.1322 -0.1652
21649W        W37118   0.391  14.047   0.702  0.0379  0.0345  0.1215
21650W        W37119  17.884   3.655  15.892  0.0733  0.0303  0.2140
21651W        W37120   6.618   4.349  10.469 -0.3564  0.0291 -0.0163
21652W        W37121  10.864   4.637   3.846 -0.2382 -0.2776 -0.0459
21653W        W37122  13.021  10.680  15.009 -0.3500  0.0392 -0.1380
21654W        W37123  13.137  16.946   5.220  0.0464 -0.0346 -0.3493
21655W        W37124  10.120   9.329   2.493  0.3011  0.1478  0.1836
21656W        W37125   4.590   9.114   2.730  0.1484 -0.0168 -0.5129
21657W        W37126   2.448   2.419   5.217 -0.0183 -0.1323 -0.3158
21658W        W37127  11.207   8.544   3.603 -0.1202 -0.2170  0.0105
21659W        W37128   7.459  12.992   1.263  0.1631  0.0830 -0.3148
21660W        W37129   8.495  15.375   4.757 -0.0236  0.0970  0.1005
21661W        W37130  16.530   6.384   3.852  0.3264  0.1678 -0.0535
21662W        W37131   1.806  18.049  11.606  0.2450  0.1451 -0.1112
21663W        W37132   8.517  10.222  12.016 -0.1391  0.0236  0.0975
21664W        W37133  11.358  16.904  14.325  0.0827  0.0326 -0.0848
21665W        W37134   1.649   3.406   1.268  0.1984  0.2110  0.1528
21666W        W37135   0.251  10.011   5.327  0.0810 -0.2546 -0.2550
21667W        W37136   3.702  16.208  13.998 -0.0622  0.2301 -0.3389
21668W        W37137   2.301   3.178   4.732 -0.0604 -0.0277  0.1065
21669W        W37138  16.668  17.968   4.429 -0.0531  0.3312  0.2203
21670W        W37139   9.892   4.797  14.868 -0.0703 -0.0459  0.3297
21671W        W37140  17.726   4.473   2.523 -0.2533 -0.4165  0.0167
21672W        W37141  14.105  16.473   4.483  0.1962  0.2575 -0.0482
21673W        W37142   1.573   3.516   3.867 -0.2110 -0.2168  0.0087
21674W        W37143  17.997   2.190  11.081  0.4471 -0.0724  0.2682
21675W        W37144   4.100  17.639   1.819 -0.1657 -0.0781 -0.1743
21676W        W37145   1.706   9.013  12.330  0.2108 -0.2163  0.2045
21677W        W37146   5.544   3.503   5.804 -0.3497  0.1807 -0.1555
21678W        W37147   6.751  10.148  13.064 -0.2025 -0.0196 -0.0437
21679W        W37148  16.130  12.071   3.754 -0.3366 -0.1572 -0.0198
21680W        W37149  11.800   8.185   1.215  0.3974  0.0562 -0.0768
21681W        W37150  10.433  14.342   0.896 -0.0606  0.2654 -0.1672
21682W        W37151   2.075   2.121  13.340 -0.0511  0.2148  0.0376
21683W        W37152  12.655  11.790  15.265  0.0889 -0.1417 -0.3413
21684W        W37153   7.570  13.476  16.027  0.1853  0.0257 -0.0945
21685W        W37154  13.695  10.675  14.789  0.0151 -0.0519 -0.2928
21686W        W37155  12.572   5.767  12.434 -0.0812 -0.0623 -0.1555
21687W        W37156   0.841  15.650  11.055  0.0006  0.0338 -0.2678
21688W        W37157   7.729   1.043  14.811  0.0778  0.0560  0.1298
21689W        W37158  11.540   3.530   3.485  0.0855 -0.0397 -0.0814
21690W        W37159   3.319  12.680  15.769 -0.0588 -0.3512  0.1987
21691W        W37160  12.322   0.917   0.896 -0.1136 -0.5529 -0.0880
21692W        W37161  12.965  12.107  11.778 -0.5669 -0.2830 -0.0858
21693W        W37162   2.509   9.792  12.626 -0.0428 -0.4195  0.2171
21694W        W37163   3.263  14.335  15.933 -0.2067 -0.0439 -0.2598
21695W        W37164   2.513  17.631   2.522 -0.1467 -0.1891 -0.3237
21696W        W37165   8.613  17.064  14.163 -0.3071  0.1527 -0.2081
21697W        W37166   2.082  17.882  14.578  0.1365  0.1749 -0.0568
21698W        W37167  17.698   3.915  14.166 -0.1305 -0.1127  0.1922
21699W        W37168  15.745   7.718   4.882 -0.1563  0.3285 -0.1899
21700W        W37169  17.161  12.386  15.076 -0.0784 -0.2448  0.1222
21701W        W37170  13.596   6.367  12.458 -0.5195 -0.2023  0.0715
21702W        W37171  16.205  13.942   1.339 -0.2164 -0.0871 -0.3132
21703W        W37172  16.602   4.997   4.169  0.0914  0.0958 -0.0974
21704W        W37173  11.847  12.599   4.400 -0.0293  0.2902 -0.0216
21705W        W37174  17.999   8.004   1.377  0.1231  0.3359 -0.1796
21706W        W37175  13.671   7.148   0.912 -0.1122 -0.1013 -0.1943
21707W        W37176  11.414   4.241  11.751 -0.2206 -0.1745  0.0355
21708W        W37177  13.946   4.704  13.065 -0.0869 -0.1023  0.0864
21709W        W37178   5.064  16.517  15.356  0.1418  0.5136 -0.0591
21710W        W37179   5.892  14.494   2.174 -0.2027 -0.1599 -0.0239
21711W        W37180   2.932  14.920   3.875  0.2751  0.2169  0.1350
21712W        W37181  15.762   5.172  10.839  0.0785  0.1806 -0.1896
21713W        W37182   3.493   3.102   2.393 -0.2018 -0.0058 -0.3427
21714W        W37183   0.534   5.726  11.345 -0.3865  0.0266  0.4014
21715W        W37184  16.717  15.310  12.273 -0.3625  0.1074 -0.0954
21716W        W37185   2.978   4.693  11.591 -0.0116  0.3064 -0.2007
21717W        W37186   1.955  11.165   3.136 -0.3560 -0.2186  0.0574
21718W        W37187   8.828  10.089   1.952 -0.1765  0.2276  0.1154
21719W        W37188   8.228  10.838  13.756 -0.1784 -0.0230  0.0264
21720W        W37189   5.341   4.046   1.924  0.3376 -0.4875 -0.0831
21721W        W37190   9.092   8.245  12.383 -0.1616  0.2105 -0.0142
21722W        W37191   0.692  16.185  13.139 -0.0079  0.3790  0.1698
21723W        W37192   5.244   6.998  15.373  0.1808  0.1175 -0.0599
21724W        W37193  15.939  15.111   3.858 -0.1085  0.2207  0.0863
21725W        W37194   2.123   8.250  16.073 -0.1309  0.1846  0.1102
21726W        W37195  12.316   2.864  14.508 -0.1848  0.1911 -0.0475
21727W        W37196  16.547   7.920   0.776  0.0493  0.3061  0.2285
21728W        W37197   7.270  16.780   0.573  0.1069 -0.1491  0.0430
21729W        W37198   3.457   3.485   2.095  0.0669 -0.0214 -0.2683
21730W        W37199   2.965   1.279  13.159  0.0508 -0.0418 -0.1523
21731W        W37200   6.942  12.142   1.602  0.1714 -0.1229 -0.0796
21732W        W37201   2.507   8.304   0.225 -0.0586  0.0160 -0.1908
21733W        W37202  13.112  15.200  11.840 -0.1160  0.3078 -0.1575
21734W        W37203   3.556   1.541  13.028  0.1696  0.3052 -0.0026
21735W        W37204  14.864  17.128  16.043 -0.2404  0.3270 -0.0067
21736W        W37205  14.646   5.632   4.977  0.1990 -0.2215  0.0933
21737W        W37206  11.284  10.923   0.774  0.0369 -0.2104 -0.0270
21738W        W37207  17.422   4.763  13.715 -0.0087  0.1632  0.1563
21739W        W37208   6.147  11.106  11.672 -0.5053 -0.0166 -0.1311
21740W        W37209  12.102  17.806  11.678 -0.1114 -0.2089 -0.1256
21741W        W37210   0.717   5.652  11.850  0.2530  0.2809  0.3445
21742W        W37211  12.314  13.193  12.147 -0.0204 -0.1280  0.0955
21743W        W37212   0.677   3.118   3.769  0.1198 -0.0633  0.0615
21744W        W37213   9.401  15.953   3.758 -0.2753 -0.1566 -0.1817
21745W        W37214   8.175   8.928   3.061 -0.1818  0.0723 -0.0107
21746W        W37215  14.068  17.388   2.206 -0.3218 -0.3069 -0.0371
21747W        W37216  13.906   8.331   4.133  0.1350 -0.0325  0.0511
21748W        W37217   7.810  13.343  11.591 -0.1079  0.0787  0.2621
21749W        W37218   0.293   0.735   0.150 -0.0704 -0.2405  0.2625
21750W        W37219   6.524   8.416   5.619 -0.1613  0.0016 -0.1278
21751W        W37220   7.893   3.917  10.770 -0.0514  0.2270 -0.5746
21752W        W37221  13.379  17.583  13.830  0.0050  0.2544 -0.2522
21753W        W37222  15.467  12.307   5.232 -0.0775  0.1469 -0.1171
21754W        W37223   3.395  12.307  12.691 -0.2804  0.0912  0.1521
21755W        W37224   0.854  13.120   1.166  0.0455 -0.3621  0.1373
21756W        W37225   4.351  15.216  15.391 -0.1954  0.0004  0.0444
21757W        W37226  11.618   4.464  15.163 -0.2161 -0.1461 -0.2870
21758W        W37227  15.189   5.155  10.847  0.0552  0.1363 -0.3489
21759W        W37228  15.262   3.599   1.288  0.1174  0.0682 -0.0711
21760W        W37229   5.303  14.201   2.106 -0.1082 -0.3062 -0.0293
21761W        W37230  11.940  14.344  15.530 -0.3130  0.0387  0.1020
21762W        W37231  16.531   2.348  15.691  0.1401  0.2262 -0.0290
21763W        W37232   3.063  13.455   0.016 -0.3519  0.2451  0.0799
21764W        W37233   2.682  15.855   9.729  0.1773 -0.2964  0.3724
21765W        W37234   1.886   0.775  13.209 -0.0436  0.2419  0.2698
21766W        W37235   6.343  14.777  11.257  0.2095 -0.0160  0.1001
21767W        W37236   9.233   7.453  15.180 -0.4762  0.0513 -0.0813
21768W        W37237  14.554  14.016  11.958  0.1176  0.1869  0.1029
21769W        W37238  17.125   0.319  13.863  0.0318  0.3221  0.2420
21770W        W37239   1.935   3.115   4.387 -0.1986 -0.0287 -0.2334
21771W        W37240   5.730  18.230  15.260 -0.0309 -0.0788 -0.0055
21772W        W37241   4.783   1.017   5.841 -0.0691  0.0699  0.0238
21773W        W37242  14.701   6.317  13.332  0.0722 -0.0724  0.2047
21774W        W37243   6.714   9.487  14.767  0.0630 -0.1954 -0.1910
21775W        W37244   6.111  16.847  13.955  0.0541 -0.1679  0.1266
21776W        W37245   9.273  12.773   5.859 -0.5239 -0.0991 -0.3091
21777W        W37246  15.609   4.961   4.142 -0.0263  0.0981  0.2249
21778W        W37247   6.883   5.138   2.733  0.0041 -0.0166  0.2203
21779W        W37248   6.162   5.268  12.410 -0.0588 -0.0071 -0.3608
21780W        W37249  10.071  12.364   0.893  0.0799 -0.1768  0.0700
21781W        W37250   5.750   0.331   3.872 -0.0264  0.0100  0.2749
21782W        W37251   8.031   9.760   5.648 -0.1377  0.2272  0.0697
21783W        W37252  18.141   1.536   1.872  0.1348 -0.0377 -0.0954
21784W        W37253   5.937  16.979   5.958  0.1236 -0.0651  0.1502
21785W        W37254  13.993  16.407   5.403  0.2489  0.2760  0.2502
21786W        W37255  12.725   9.412   2.963 -0.3939 -0.0638  0.2626
21787W        W37256   1.211  18.147   4.686  0.2087  0.0345  0.0524
21788W        W37257   6.852   0.067   0.303 -0.0956  0.1604  0.0455
21789W        W37258   4.574   9.118  11.382  0.0502  0.2106 -0.1095
21790W        W37259  12.114  13.812   3.918  0.3401  0.1415  0.0002
21791W        W37260   1.439   5.293   0.588 -0.0154  0.2750 -0.0110
21792W        W37261   6.651   5.302   2.258 -0.1355 -0.0073 -0.2388
21793W        W37262  15.598   2.256   0.720 -0.0292  0.1575 -0.1905
21794W        W37263   2.984  12.210   1.046 -0.1102 -0.1469 -0.0180
21795W        W37264   4.216   2.378  14.446 -0.3106 -0.2298  0.2205
21796W        W37265  14.976  14.857   4.877 -0.2375  0.1369 -0.0822
21797W        W37266  17.630   3.985   4.166  0.0557  0.1558 -0.0037
21798W        W37267   8.985  15.565  11.023  0.0365 -0.1720  0.3724
21799W        W37268  10.565  11.746   4.948 -0.2710  0.2680 -0.1784
21800W        W37269   1.642  16.171   3.092 -0.0817  0.1307 -0.0471
21801W        W37270   4.908   3.933   2.148  0.1098 -0.1471  0.2457
21802W        W37271   7.952  13.548  12.024 -0.0462 -0.1819 -0.1785
21803W        W37272   3.124   1.348  14.262 -0.0291  0.0118 -0.4765
21804W        W37273  17.119  11.768   0.579  0.1505 -0.1361  0.1375
21805W        W37274  16.010   9.804   3.668 -0.4216 -0.0188  0.2386
21806W        W37275   3.507   2.000  11.513  0.0020 -0.0270 -0.0499
21807W        W37276  16.473  10.422   2.947 -0.0250 -0.1648  0.1444
21808W        W37277  16.984  10.104  15.913 -0.2326  0.1892  0.3594
21809W        W37278  13.435  10.183  14.399 -0.1975  0.2573  0.3550
21810W        W37279   1.154   1.806   5.854 -0.0568  0.0402  0.0122
21811W        W37280   0.704   8.132   3.857 -0.1991 -0.0885  0.0442
21812W        W37281   4.909   9.597   2.019 -0.0651  0.0890  0.1038
21813W        W37282  14.509  13.897   0.979 -0.1685  0.1076  0.2030
21814W        W37283   4.995  12.751   2.080  0.5347 -0.1374  0.2183
21815W        W37284  12.383  16.118  13.911 -0.1868  0.1598  0.1776
21816W        W37285   3.769   9.108  14.779 -0.0805 -0.1497 -0.1747
21817W        W37286   0.088   1.887   3.938 -0.0042 -0.2579 -0.0766
21818W        W37287  13.235   0.042  13.209  0.1608 -0.1536  0.1264
21819W        W37288   9.429   1.999   5.133 -0.0165 -0.0847 -0.4263
21820W        W37289  16.481  13.435   0.344  0.0638 -0.1365 -0.0186
21821W        W37290  14.571   0.897   3.577  0.1654 -0.0529 -0.2559
21822W        W37291  15.568   5.623  14.305  0.2170  0.1299  0.0237
21823W        W37292  14.259   4.915  16.047 -0.0070  0.1496 -0.0174
21824W        W37293  14.280   0.949  12.859 -0.3081  0.0765  0.0860
21825W        W37294   2.479  14.816  11.064  0.4301 -0.1210 -0.2069
21826W        W37295  11.949   6.932  16.163 -0.5160  0.3390  0.1179
21827W        W37296   4.050  12.543  15.125  0.0453  0.0638  0.0113
21828W        W37297  12.798   6.192  12.358  0.1967  0.1773  0.0448
21829W        W37298  13.576   4.682   1.995 -0.1433 -0.0254  0.2810
21830W        W37299  17.306  15.128   4.293  0.2616 -0.0567 -0.1289
21831W        W37300   8.919   3.596  11.639 -0.0931  0.2359  0.0307
21832W        W37301  17.131   5.389   2.611 -0.2031 -0.1611  0.0714
21833W        W37302   9.973  10.832   4.249 -0.1743 -0.1044 -0.0753
21834W        W37303   1.045  16.048   1.757 -0.3536  0.0687 -0.0120
21835W        W37304   7.405   1.277   2.813 -0.0190 -0.1449  0.1937
21836W        W37305  14.161  18.018   4.899  0.0495 -0.1869  0.1418
21837W        W37306  12.167  11.071  12.776  0.0072 -0.2356 -0.2689
21838W        W37307  15.404  11.334   0.182 -0.4024 -0.0840 -0.3335
21839W        W37308   1.837   4.847   1.462 -0.2578  0.0882 -0.4290
21840W        W37309  11.394  13.696   1.065 -0.2421  0.0865  0.3214
21841W        W37310   0.008   7.041  12.524 -0.0199  0.0223  0.0363
21842W        W37311   8.349   0.968   5.202  0.1725 -0.2173  0.2319
21843W        W37312   5.452   3.195   5.153 -0.2331  0.1797 -0.5569
21844W        W37313   3.498   9.408  10.288 -0.0314 -0.0488  0.1103
21845W        W37314  10.128   5.437   6.109 -0.4096 -0.1166 -0.0803
21846W        W37315   7.389   5.936   4.803 -0.1948  0.0827  0.0544
21847W        W37316   3.236   8.927  11.226  0.3269 -0.0747  0.1532
21848W        W37317  18.019   7.315  15.656 -0.0964  0.0865 -0.3830
21849W        W37318   6.800   9.309  12.558 -0.1893 -0.1760  0.0481
21850W        W37319   3.901   7.113   6.412  0.1531  0.1447 -0.2358
21851W        W37320  15.177   2.579  12.538  0.0151  0.4027 -0.0796
21852W        W37321  10.171  11.069   0.661 -0.0459  0.1289  0.0566
21853W        W37322   1.084   6.937  15.140 -0.0838 -0.0471  0.0755
21854W        W37323  12.999   2.567  11.200 -0.2195 -0.0774  0.1189
21855W        W37324   3.905   5.047   0.918  0.0081 -0.0881  0.1198
21856W        W37325   5.176  16.552  11.209  0.1239  0.0548 -0.1015
21857W        W37326   4.518  14.403   0.660 -0.0650 -0.0776  0.1010
21858W        W37327   8.397   6.620   3.637  0.3592 -0.0624  0.0806
21859W        W37328   5.568  15.830   0.623 -0.2401  0.2422 -0.3206
21860W        W37329  13.040   3.429  14.093 -0.0066  0.0833  0.2866
21861W        W37330   7.692   1.990  12.224  0.2471  0.1216 -0.1439
21862W        W37331   4.135   9.577   2.157  0.1643  0.1743  0.0337
21863W        W37332   2.618  14.678  12.110  0.3007  0.1573 -0.0602
21864W        W37333   0.237   3.212   1.572 -0.2035 -0.0577  0.0665
21865W        W37334  15.355  11.285  14.610 -0.2158 -0.3974 -0.1967
21866W        W37335  10.968  16.081  13.935  0.1331  0.1238  0.0601
21867W        W37336  12.249  13.582   2.615  0.5264 -0.0619  0.1793
21868W        W37337   6.106  10.043   1.118  0.2443  0.0604 -0.1315
21869W        W37338  12.698   6.888   4.883 -0.1027  0.0630 -0.0904
21870W        W37339  16.716  14.545  14.124 -0.2440  0.0152 -0.0733
21871W        W37340   7.396  12.863   3.104 -0.0572 -0.0095 -0.1104
21872W        W37341  13.376   8.592  15.068 -0.2902 -0.0793 -0.0001
21873W        W37342  12.328   5.599   0.241 -0.2118 -0.0811 -0.0557
21874W        W37343  15.274   9.554   1.712  0.2430 -0.0815  0.1714
21875W        W37344  11.580   8.799  11.583  0.2483  0.0419  0.3140
21876W        W37345   7.225   7.972  16.065  0.0136 -0.0538 -0.2244
21877W        W37346  16.806  18.012   3.708  0.0434 -0.2900 -0.3437
21878W        W37347  13.746   4.546  15.479  0.1839 -0.1038  0.1679
21879W        W37348   4.108  17.698   0.660  0.0269  0.0326  0.2156
21880W        W37349   8.433  11.902   2.659 -0.3203 -0.1651 -0.2140
21881W        W37350   5.777  12.263   2.728  0.2036 -0.3379 -0.0382
21882W        W37351   2.872  17.788  10.797 -0.1007  0.2321  0.3844
21883W        W37352  10.077  13.761  16.108  0.3512  0.2951 -0.1851
21884W        W37353   3.824  11.327   3.684 -0.0009 -0.1198 -0.1262
21885W        W37354   2.565   1.475   4.216  0.2799 -0.0937 -0.2660
21886W        W37355  13.501   6.108   4.317  0.0658 -0.2537  0.1450
21887W        W37356   9.125  14.401   5.251  0.2377  0.2102  0.0245
21888W        W37357  11.074   1.152   2.353  0.1549 -0.4206 -0.0611
21889W        W37358   8.720   6.946   3.217 -0.2309  0.0344  0.1468
21890W        W37359  13.074  10.704   5.571  0.0072  0.1216 -0.0249
21891W        W37360  18.142  15.636   2.339  0.1653 -0.0752 -0.0990
21892W        W37361   2.952  13.251   4.258 -0.4261 -0.0016 -0.2531
21893W        W37362  13.564   8.343   5.740  0.0472 -0.1182 -0.2757
21894W        W37363  14.108  10.908   5.190 -0.2999  0.1596 -0.1744
21895W        W37364   9.429  14.896  15.703 -0.0824 -0.0413  0.2562
21896W        W37365  14.715   4.730  13.909 -0.0767 -0.1993 -0.4171
21897W        W37366  16.157   6.423  15.630  0.1448 -0.0440  0.1208
21898W        W37367   3.274  16.306  12.216  0.0324 -0.1092  0.2281
21899W        W37368  15.641   2.635  11.182 -0.0208 -0.1766 -0.2888
21900W        W37369   6.135   9.548   2.312  0.1073  0.2028 -0.2038
21901W        W37370   2.647   8.211   1.939 -0.2031  0.0015 -0.2392
21902W        W37371   6.238   4.123   3.435  0.0062 -0.1034 -0.2466
21903W        W37372  11.037   6.594   1.306 -0.0107 -0.2688  0.2077
21904W        W37373   5.641  10.011  14.214  0.1521 -0.0034  0.1941
21905W        W37374   9.151  17.936  14.983  0.0027  0.0917 -0.1368
21906W        W37375  17.329  11.258  11.207 -0.0766 -0.0790 -0.0349
21907W        W37376   6.022   6.995  13.434 -0.1485  0.0323 -0.0055
21908W        W37377  16.388  14.601   5.009  0.1644  0.1252 -0.0639
21909W        W37378   1.955  13.926   0.646  0.0887  0.2434  0.2128
21910W        W37379  13.119   1.541  11.427 -0.2567  0.0343 -0.1227
21911W        W37380   9.436   7.205  14.285 -0.3974  0.1614 -0.3516
21912W        W37381  14.790   9.728   1.487 -0.0109 -0.3661  0.1001
21913W        W37382  11.830   9.948  15.158 -0.0266  0.3155 -0.0170
21914W        W37383   7.050  17.882  10.402 -0.2278  0.1558 -0.1698
21915W        W37384  15.155  12.049   4.200  0.1952  0.0826 -0.0527
21916W        W37385  17.450   2.177  11.381  0.2095 -0.0431  0.3758
21917W        W37386   0.088   7.859  13.760  0.1269 -0.0691 -0.2963
21918W        W37387  11.850   5.560   4.069 -0.1110  0.2934 -0.1384
21919W        W37388  11.051   8.379  12.132 -0.3537  0.1937  0.2474
21920W        W37389  14.844   9.566  14.030 -0.0682  0.1819 -0.0487
21921W        W37390   3.214   0.210  10.817 -0.0641 -0.0061 -0.0191
21922W        W37391   3.919  16.590  16.031  0.0806 -0.5651 -0.2435
21923W        W37392   6.121   6.391   3.249 -0.0690  0.1859  0.0826
21924W        W37393   0.767   3.595   2.760 -0.3273  0.1412 -0.1587
21925W        W37394  10.564   3.992  14.283  0.1419 -0.5263 -0.0043
21926W        W37395   2.211   3.243  11.199 -0.0178  0.0942  0.1752
21927W        W37396   3.367  16.836  13.047  0.0579 -0.2837 -0.0180
21928W        W37397   1.721   4.728   2.488 -0.1330  0.0308 -0.2270
21929W        W37398  11.985  13.339   1.788 -0.0638  0.2185  0.0756
21930W        W37399   7.794  13.943  10.674 -0.0136  0.2212  0.1695
21931W        W37400   0.193   9.963   0.630  0.0539  0.1390  0.2100
21932W        W37401   6.192  16.959   3.853  0.1111 -0.0240 -0.2228
21933W        W37402   3.386   7.387  11.430  0.0951  0.0832  0.0191
21934W        W37403   6.999   2.800  12.718  0.0912 -0.4663  0.2858
21935W        W37404  17.976  14.612   4.469  0.0673 -0.0822  0.1750
21936W        W37405  11.059  13.992  15.034 -0.0337  0.0399  0.4330
21937W        W37406   7.886   3.142  11.569 -0.0628  0.1348  0.4271
21938W        W37407  11.543  17.283   3.893 -0.1453 -0.0505  0.0534
21939W        W37408   5.270  12.242   2.800  0.1415 -0.0100  0.0725
21940W        W37409  10.761   7.204   1.741 -0.2763 -0.2269  0.0832
21941W        W37410   1.477  17.306  13.545 -0.0767 -0.0827  0.0915
21942W        W37411  12.981  11.815   1.278 -0.0274  0.0165 -0.0278
21943W        W37412  12.498  15.013  15.839  0.0238  0.0367  0.0466
21944W        W37413  17.107  11.838   5.416 -0.1150  0.0286 -0.0743
21945W        W37414  15.775  11.546  15.516  0.2103  0.0062  0.2552
21946W        W37415   8.329   3.812   1.012  0.2449  0.2201  0.0871
21947W        W37416   2.189   3.243  15.174 -0.0256 -0.2119  0.2030
21948W        W37417   9.616  10.948  13.347 -0.0624  0.4237  0.0126
21949W        W37418   2.328  16.188  15.905  0.1507  0.1489  0.3075
21950W        W37419  13.596   7.202   0.323  0.0432 -0.2618 -0.1560
21951W        W37420  10.760   7.195  11.980 -0.3556 -0.0653  0.0554
21952W        W37421  11.947  12.800  13.762  0.3290 -0.1794 -0.0434
21953W        W37422   4.947   5.186  14.228 -0.4234 -0.0765  0.0850
21954W        W37423  18.150   3.663  12.965 -0.0227 -0.1814 -0.0640
21955W        W37424   6.141   3.869   1.354 -0.1408 -0.0555  0.3125
21956W        W37425   0.630   0.379   5.006 -0.1021  0.0422 -0.0803
21957W        W37426   1.502   7.637   0.006 -0.1785 -0.2126 -0.1561
21958W        W37427   0.131   2.409  14.787 -0.1865 -0.2364  0.2706
21959W        W37428  11.553  17.575   3.151 -0.2987 -0.0716  0.2128
21960W        W37429   5.515  17.244   2.319  0.2751 -0.1097  0.3241
21961W        W37430   1.860   8.886  14.168 -0.0890 -0.2663  0.1287
21962W        W37431   9.114  16.043   3.307  0.0582  0.0334  0.0668
21963W        W37432  17.106  17.286  14.561 -0.1977  0.0381 -0.1875
21964W        W37433   5.696   5.636  13.160 -0.3250  0.1025  0.1713
21965W        W37434   9.444   4.486   2.993  0.0171  0.3354 -0.1132
21966W        W37435  18.081  16.732   4.583  0.0074  0.1839  0.0343
21967W        W37436  17.578  18.216  12.235  0.0881 -0.1108 -0.0933
21968W        W37437  10.748  17.583  15.390 -0.0764 -0.1628  0.0744
21969W        W37438  17.022  10.819   0.667 -0.4639  0.0900  0.0059
21970W        W37439   7.388  17.510  10.310 -0.1046 -0.0983  0.1731
21971W        W37440   1.006   9.052  13.876 -0.1132 -0.0920  0.0129
21972W        W37441   2.705   4.611   1.393  0.2988 -0.0140 -0.0701
21973W        W37442   9.840   4.648  13.251  0.0023 -0.0603  0.5334
21974W        W37443   9.347  18.011  15.513  0.0416 -0.4566  0.1966
21975W        W37444   1.493   4.844  16.030  0.0818  0.2805 -0.1077
21976W        W37445   3.139   1.387  12.033  0.0149  0.0654  0.1541
21977W        W37446  13.734  16.706   0.447  0.3518  0.1668 -0.2336
21978W        W37447  11.038   2.805  12.371 -0.0716  0.0172 -0.2795
21979W        W37448   5.407   1.174  12.858 -0.0702 -0.2398  0.1680
21980W        W37449  17.170   7.682   2.111  0.1033 -0.1557 -0.0474
21981W        W37450  16.863  10.570   0.006  0.1978  0.1167  0.0004
21982W        W37451  10.431   6.554   1.182  0.0883  0.1306 -0.2159
21983W        W37452   0.817  13.398   4.955 -0.1740 -0.0727  0.3755
21984W        W37453   9.149  18.129   5.598  0.1789 -0.2184  0.1371
21985W        W37454  13.018   4.018  15.956  0.0078  0.3530  0.2124
21986W        W37455   5.324   8.053   5.970 -0.1030  0.3864  0.2117
21987W        W37456   5.925   5.133   3.622 -0.4428  0.2566 -0.1602
21988W        W37457  14.727   3.944  14.888  0.0030  0.3911 -0.0709
21989W        W37458   6.372   3.033   0.833 -0.0077  0.0667 -0.0750
21990W        W37459  14.010  15.257   5.689 -0.0740  0.0114 -0.1408
21991W        W37460   3.025   5.281  12.915 -0.2464 -0.3905 -0.4835
21992W        W37461  17.221  10.798   4.264  0.1954  0.2805  0.0819
21993W        W37462   7.843   9.683  13.833 -0.1722 -0.1637  0.2794
21994W        W37463  10.642   3.465  14.571 -0.1849 -0.0678  0.2548
21995W        W37464  17.424  10.683  13.755 -0.0264  0.0206  0.1816
21996W        W37465  10.495   9.600  15.509  0.4684  0.0488 -0.0435
21997W        W37466   9.400  14.808  13.499  0.2061 -0.0248 -0.3474
21998W        W37467  16.447   6.574  10.511 -0.1171  0.2565 -0.1156
21999W        W37468  16.512   3.051   3.051  0.2117 -0.3165  0.1327
22000W        W37469   1.801  14.364  11.436 -0.1426  0.1279 -0.1253
22001W        W37470   0.819   2.986   2.804 -0.0756 -0.3137 -0.1280
22002W        W37471  13.068  15.483   2.596  0.0510  0.0539  0.0905
22003W        W37472  16.725   1.262  14.649  0.0830 -0.0116  0.0595
22004W        W37473   0.144   4.959  13.298  0.1418 -0.0359  0.1399
22005W        W37474  11.702  14.049  14.579 -0.3571 -0.0672 -0.4841
22006W        W37475  17.848  12.772  13.709  0.2962  0.3331  0.4732
22007W        W37476  15.642   9.644  15.627 -0.3498 -0.1255  0.0561
22008W        W37477  12.817   2.611  14.617 -0.1901  0.2114 -0.1968
22009W        W37478  15.490  17.058   1.145  0.1974  0.2204 -0.0216
22010W        W37479  15.261  16.221  12.075 -0.1338 -0.1069  0.0533
22011W        W37480   5.100  11.173   0.388 -0.2733 -0.0123 -0.0446
22012W        W37481   3.274   3.596   3.946  0.1726  0.1077  0.0553
22013W        W37482   1.131   2.210  12.759 -0.0232 -0.1666 -0.1112
22014W        W37483  12.631   5.963   4.256 -0.2305  0.0101 -0.2690
22015W        W37484  17.458  16.122  13.825 -0.4177 -0.2406 -0.1582
22016W        W37485   9.880   3.699   5.083  0.1241 -0.1441 -0.0830
22017W        W37486   1.188   3.242  16.142  0.0462 -0.0256 -0.2965
22018W        W37487   1.732  16.808  14.797 -0.0151  0.0760  0.1769
22019W        W37488   4.455  12.023  13.721 -0.4819 -0.2735  0.2461
22020W        W37489  17.384   1.288  13.867 -0.0178 -0.2205  0.1680
22021W        W37490   9.241   4.922  13.954 -0.1413  0.0548  0.0538
22022W        W37491   4.884  13.110   3.710 -0.0875 -0.2621  0.0512
22023W        W37492   0.408  10.880  14.880 -0.4460  0.1241  0.1555
22024W        W37493   5.208   5.787  13.494  0.0170 -0.0759 -0.0787
22025W        W37494   9.278  11.314   0.393 -0.0542  0.2360 -0.0858
22026W        W37495   7.338   9.265  12.284 -0.0527  0.0967 -0.1124
22027W        W37496   0.405  10.501  13.823  0.0133  0.0001 -0.2186
22028W        W37497  13.507   6.472   2.122 -0.0137  0.0018 -0.1415
22029W        W37498  14.224  10.603  11.629 -0.0139 -0.1192  0.0120
22030W        W37499  11.504   7.879   4.305  0.0322 -0.1629 -0.0588
22031W        W37500   7.270  10.415   1.670 -0.3501 -0.0178 -0.0454
22032W        W37501   7.486   5.620   1.404  0.3029  0.3999  0.0423
22033W        W37502  18.203   9.787   4.482  0.0509  0.4269 -0.2641
22034W        W37503   5.295  14.541   5.051  0.3013  0.0926 -0.3574
22035W        W37504   3.687  17.133   3.310 -0.0318  0.2995 -0.1805
22036W        W37505  14.740  11.750   4.111 -0.1617  0.1229  0.2732
22037W        W37506   7.723   1.567   0.687  0.0541  0.0687  0.1614
22038W        W37507  12.650   5.388   2.575 -0.3347  0.1758  0.2372
22039W        W37508   5.330   9.150   0.410 -0.0840 -0.2866  0.0732
22040W        W37509   8.570   3.220   5.185 -0.2609  0.1312 -0.2066
22041W        W37510  16.479  10.010   0.618  0.0364 -0.2685  0.1902
22042W        W37511   9.072   4.785   2.762 -0.1268  0.1937  0.1246
22043W        W37512  15.405   2.439   2.064 -0.1431  0.1583 -0.1351
22044W        W37513  17.487  13.918   0.815  0.1242 -0.0637 -0.0118
22045W        W37514   6.881  10.937  15.934  0.1426  0.3419 -0.1591
22046W        W37515   0.957   8.814  15.491 -0.0949 -0.1272 -0.0843
22047W        W37516   1.602  15.659  14.973  0.0557 -0.2671 -0.0959
22048W        W37517   1.465  11.726  12.945  0.2140 -0.3127  0.1936
22049W        W37518  16.609  15.515  14.173  0.3255 -0.2900 -0.1725
22050W        W37519   9.165   2.670   3.544 -0.3556  0.0567 -0.0088
22051W        W37520  11.999   9.918  13.608 -0.3002 -0.0734  0.0191
22052W        W37521  15.061  13.781   3.420 -0.0971 -0.3340  0.2288
22053W        W37522   3.227   5.688   4.940  0.1254 -0.1132  0.3608
22054W        W37523  16.337  16.241  15.410 -0.2953  0.2136  0.2664
22055W        W37524  11.743  17.805   4.517  0.0965  0.2859 -0.0333
22056W        W37525   0.243   3.935   0.909  0.1248 -0.0929  0.2493
22057W        W37526   6.322  10.718  11.334  0.0639  0.0805  0.2651
22058W        W37527  13.337   2.567   0.157 -0.0669 -0.0601 -0.3784
22059W        W37528  13.724  10.111   5.221  0.0423  0.1310 -0.2540
22060W        W37529  13.323  17.674   4.452  0.0659 -0.2596  0.0605
22061W        W37530  10.374  18.204   2.937  0.0194  0.3464 -0.0717
22062W        W37531  13.353   5.795  15.492  0.0195 -0.0259 -0.1375
22063W        W37532  16.464   0.212   3.567  0.0278 -0.0689  0.1585
22064W        W37533   1.873   5.513  10.906  0.0767 -0.2975 -0.3992
22065W        W37534  13.491  11.664   2.020  0.1118 -0.0881  0.0074
22066W        W37535   5.606   2.347   3.534  0.2467  0.1856  0.0557
22067W        W37536   5.991   1.724  14.113  0.2690 -0.2446 -0.0539
22068W        W37537   9.610   9.801   1.861 -0.1504 -0.1244 -0.0897
22069W        W37538   1.686   7.816   4.935  0.3380 -0.2700 -0.2278
22070W        W37539   7.647   8.291  16.035 -0.2033  0.0637  0.1034
22071W        W37540  18.193   8.473   1.748 -0.2476 -0.1663  0.2078
22072W        W37541   2.306  14.975   5.150  0.0236  0.0672 -0.1795
22073W        W37542  18.174  16.960  13.097  0.1216 -0.4279 -0.0339
22074W        W37543   9.866  15.420   3.085  0.2079 -0.0403  0.3855
22075W        W37544  17.034   7.061  10.947 -0.1497  0.1267 -0.0186
22076W        W37545   7.368  14.063   1.274 -0.0300  0.0968  0.1854
22077W        W37546   8.696  15.552  12.019 -0.0752 -0.0693 -0.3806
22078W        W37547   1.260   4.400  12.770 -0.0940  0.1194  0.1005
22079W        W37548   4.882  16.650   2.661 -0.0779  0.1187 -0.1855
22080W        W37549   6.923   1.371   1.414 -0.0319 -0.0157  0.2634
22081W        W37550   6.796   9.221   0.210  0.3611 -0.1060 -0.1207
22082W        W37551  14.863   8.318  13.541 -0.0085  0.0813  0.2323
22083W        W37552  11.387   2.701  12.806 -0.1968 -0.1362 -0.4346
22084W        W37553   7.397  17.544  13.433 -0.1340 -0.3086 -0.1119
22085W        W37554  12.455   9.973   1.034  0.0262 -0.1531  0.2263
22086W        W37555   1.781  13.713  14.009  0.1995  0.0699  0.0917
22087W        W37556   4.687   0.167  12.023  0.0978 -0.3731 -0.2880
22088W        W37557  17.062   8.471  14.669 -0.1599 -0.0119  0.3047
22089W        W37558   7.684  16.567   0.268 -0.4204 -0.0141  0.0880
22090W        W37559  15.286   7.918  12.640 -0.2948  0.0647  0.0981
22091W        W37560   9.504  13.186  15.529 -0.2478 -0.0912  0.0996
22092W        W37561   8.236   5.685   0.376 -0.0578  0.1341 -0.2804
22093W        W37562  16.247   2.486  12.634  0.0583  0.1431 -0.2283
22094W        W37563   4.717  13.434   4.459  0.3875 -0.0880  0.0999
22095W        W37564   0.336   3.800  16.106 -0.1172 -0.1721 -0.0590
22096W        W37565  11.050   2.008   2.708 -0.1218 -0.2300  0.1082
22097W        W37566  15.309   7.451  13.386 -0.1799  0.3854  0.2184
22098W        W37567   4.472  15.278  13.110  0.0103  0.0954 -0.1027
22099W        W37568   5.820  10.266   1.725 -0.4537  0.0569  0.0460
22100W        W37569   4.066  15.775   2.904 -0.1434  0.2728  0.4295
22101W        W37570  17.589  18.166   0.239  0.2918  0.0517  0.0143
22102W        W37571   9.283  15.923  13.651  0.4312  0.0948  0.0489
22103W        W37572   8.393   5.414   1.692 -0.0451 -0.0145  0.0402
22104W        W37573  12.643  13.953  14.262  0.3006 -0.0737 -0.0162
22105W        W37574  10.298   0.708   0.774 -0.2324 -0.0226 -0.5426
22106W        W37575   4.835   3.533  12.493 -0.0349  0.0022  0.0201
22107W        W37576  17.044   1.604   3.594  0.2664 -0.0177 -0.3453
22108W        W37577  11.852  14.805   0.784  0.0328 -0.0377  0.1300
22109W        W37578   6.335  11.700  15.988 -0.1272 -0.0895 -0.3445
22110W        W37579  18.219   5.902  13.341 -0.1405 -0.0366  0.0253
22111W        W37580   2.262   8.106  14.143 -0.1589 -0.0109 -0.3398
22112W        W37581   6.420  11.694  13.421  0.0221 -0.0360 -0.3015
22113W        W37582   6.422   4.404  13.710  0.2056  0.2839  0.2503
22114W        W37583  13.305  15.911  11.139  0.2693  0.0002  0.0693
22115W        W37584   8.259   0.052  15.729  0.1693 -0.1308 -0.0575
22116W        W37585  15.605   5.216  13.315 -0.0528  0.1414  0.2229
22117W        W37586   1.746   7.418   1.661  0.0487  0.1006 -0.1604
22118W        W37587   6.105   5.922   6.269 -0.1848 -0.1178  0.1506
22119W        W37588   6.153   0.096  14.743 -0.0120 -0.3307  0.0584
22120W        W37589   7.676   4.796  15.440 -0.3339  0.2065  0.3702
22121W        W37590   4.259  14.840  14.651 -0.2048  0.1789  0.0457
22122W        W37591  16.954  17.205  13.203  0.1530 -0.2605 -0.0751
22123W        W37592  16.729  10.693  13.082  0.2167  0.0572  0.1819
22124W        W37593   4.789  13.366  14.234  0.0097  0.3972  0.3232
22125W        W37594  14.976   0.104   3.945  0.1011  0.1082  0.1231
22126W        W37595   1.293   6.543  10.425 -0.0513  0.0682 -0.1106
22127W        W37596  17.076   5.660  12.828 -0.0203  0.2632 -0.1510
22128W        W37597   8.394   1.996   0.957 -0.0867  0.0826 -0.2752
22129W        W37598   6.916   0.173   1.308 -0.0176 -0.1780 -0.1172
22130W        W37599   5.702   4.693  11.277 -0.2314  0.2053  0.2231
22131W        W37600   9.243  13.866   2.508 -0.0363 -0.1742  0.0779
22132W        W37601  14.429   7.951   5.310 -0.0759  0.3868 -0.1847
22133W        W37602  18.234   8.347   5.409  0.0660  0.1144  0.1306
22134W        W37603   4.071   9.223   3.356  0.0553  0.0830  0.1115
22135W        W37604   2.128  14.674  15.073 -0.2207 -0.4366 -0.4507
22136W        W37605   5.526  10.118  12.515  0.0395  0.1890 -0.2723
22137W        W37606   4.862  10.834   2.835 -0.1293  0.1966  0.6642
22138W        W37607   9.952   9.822   4.905 -0.0430  0.0439  0.0335
22139W        W37608   2.169  12.624  12.125 -0.1204 -0.0762 -0.1367
22140W        W37609  13.685   1.305   0.026  0.2234  0.0186  0.0433
22141W        W37610  12.581  15.103  10.219  0.0966 -0.1903  0.0987
22142W        W37611  17.770   7.706   4.836  0.1270  0.1598  0.1235
22143W        W37612  13.022   7.068   0.214  0.0031  0.1169  0.0983
22144W        W37613  11.568   2.647   1.039  0.2573  0.2046 -0.2913
22145W        W37614   4.851   5.388  13.179  0.1187  0.0477 -0.1616
22146W        W37615   7.086  13.869   5.390  0.0615  0.0842  0.2474
22147W        W37616   7.386   4.648   1.330  0.2583  0.1315 -0.0905
22148W        W37617   6.034   0.136   3.483  0.0470 -0.0583  0.2152
22149W        W37618  14.015   2.836  15.507 -0.3509  0.0744  0.0175
22150W        W37619  10.156   9.845  15.861 -0.2456 -0.1120 -0.1333
22151W        W37620   8.030   3.694  13.415 -0.0730  0.2279 -0.0846
22152W        W37621   6.492  17.296   4.292  0.3550  0.2875  0.0632
22153W        W37622   9.111   1.098   3.479  0.0287  0.3674 -0.1490
22154W        W37623   9.062  17.385   1.339  0.1305 -0.1278  0.1988
22155W        W37624   5.976  14.084  12.458  0.2512 -0.2126 -0.0645
22156W        W37625  12.191   3.015  11.815 -0.0089 -0.1956 -0.2016
22157W        W37626  11.827  13.314   1.057 -0.1264 -0.2729  0.0123
22158W        W37627  14.844   8.046  12.259 -0.1300  0.0437 -0.0686
22159W        W37628   9.559   0.081   4.756 -0.0791 -0.2880 -0.3120
22160W        W37629   6.193  16.791  12.179 -0.1035  0.0442  0.1122
22161W        W37630  12.894   8.503   2.787  0.3352  0.0299  0.0794
22162W        W37631  16.307   9.147  15.314 -0.1570  0.2122  0.2468
22163W        W37632  18.034   1.882   3.595  0.0994  0.1929  0.1113
22164W        W37633  11.499  16.405  15.623  0.2884  0.1299  0.2415
22165W        W37634  16.107  12.292  13.835 -0.0467 -0.1789 -0.0390
22166W        W37635   1.748   8.773   2.983 -0.1063 -0.2822 -0.0001
22167W        W37636  13.328  16.406   2.164  0.0282 -0.0977  0.2461
22168W        W37637   1.409   9.842   2.404 -0.0017  0.3092  0.0843
22169W        W37638  11.786  10.932   2.430  0.0756  0.0992  0.1571
22170W        W37639   1.719  15.374  10.870 -0.0120 -0.2842 -0.1989
22171W        W37640   3.290  14.565  11.473 -0.0762 -0.0265 -0.0762
22172W        W37641  11.122  15.322   0.282 -0.0256  0.0054  0.0240
22173W        W37642  11.784   6.791  12.632 -0.4208 -0.1366 -0.0436
22174W        W37643  10.903  13.206   0.049 -0.1444 -0.1778 -0.2318
22175W        W37644   6.593   6.230   4.975 -0.0267 -0.0388  0.1368
22176W        W37645   7.579   2.494   4.273 -0.0059 -0.0975 -0.1091
22177W        W37646   5.133  12.795   3.419 -0.0027  0.1710 -0.1481
22178W        W37647   1.251  14.768  11.965  0.3398 -0.1391 -0.0269
22179W        W37648  13.640   7.189  13.336 -0.2988 -0.1381 -0.3232
22180W        W37649   0.434  16.661   3.930 -0.1424  0.1348 -0.1924
22181W        W37650  17.578   6.448  12.753  0.0186  0.0156  0.1299
22182W        W37651  14.806  13.503   0.916  0.1116 -0.4012 -0.1042
22183W        W37652   9.235   3.297  11.372 -0.1540  0.2422 -0.1544
22184W        W37653   3.106   6.353  11.208 -0.1676 -0.1634  0.2253
22185W        W37654   3.320   4.237  15.552 -0.1680 -0.2013 -0.0480
22186W        W37655  15.261   9.067  11.877  0.3179  0.3946 -0.0976
22187W        W37656   7.027   2.163   3.059  0.0134 -0.1448 -0.2089
22188W        W37657   8.289   4.975   4.139  0.1557 -0.2043  0.0145
22189W        W37658   8.119  14.568  11.184  0.3423 -0.2193  0.0363
22190W        W37659   7.917  11.618  13.862 -0.0240 -0.0055 -0.2099
22191W        W37660   0.542   8.887  13.760  0.0962 -0.2811  0.1096
22192W        W37661  12.855   5.570   3.859  0.1985 -0.2737  0.2441
22193W        W37662  16.076  15.628   3.938  0.1953  0.0284 -0.1342
22194W        W37663  16.071   1.502  15.344  0.0802  0.0877 -0.0798
22195W        W37664   8.124   4.023   0.035  0.2541  0.2607 -0.1877
22196W        W37665   3.412   3.767   4.647 -0.0559 -0.3084  0.1306
22197W        W37666   0.910   9.622   5.879 -0.0705  0.2367 -0.1753
22198W        W37667   9.343   2.930  11.908 -0.1823 -0.2497 -0.0340
22199W        W37668  13.063   2.357   0.575 -0.0913  0.2071 -0.2682
22200W        W37669   5.855   4.814  15.008 -0.0111  0.0199  0.0185
22201W        W37670  14.167  16.685   1.721  0.2785  0.3625 -0.2496
22202W        W37671   9.144  17.055  14.352 -0.0736 -0.2456  0.0012
22203W        W37672   4.268  17.130  14.312 -0.1362  0.1468 -0.0742
22204W        W37673  10.742   6.045  11.362 -0.1518 -0.1303 -0.0868
22205W        W37674   8.842  10.898  12.572 -0.1203 -0.1719  0.0544
22206W        W37675   7.374  13.704   0.529  0.1532 -0.3021 -0.1382
22207W        W37676   7.813   4.196  14.411 -0.3105  0.1840 -0.0369
22208W        W37677   6.535   9.830  11.630  0.0462  0.1752 -0.1805
22209W        W37678   0.267  10.024   2.409 -0.1343 -0.1077  0.0527
22210W        W37679  16.872  17.758  10.708 -0.0405 -0.0206  0.1792
22211W        W37680  15.827  14.557  14.230 -0.0542  0.0451 -0.1229
22212W        W37681   7.093   2.797   6.168 -0.4354  0.0495 -0.0794
22213W        W37682   7.186  12.891   5.493  0.1133  0.1177  0.2232
22214W        W37683  12.873  12.961   3.299 -0.1880  0.0236 -0.0617
22215W        W37684  11.058   8.786  15.948 -0.0869 -0.0774 -0.0341
22216W        W37685   3.956  17.570  13.193 -0.0660  0.3105 -0.0960
22217W        W37686   1.721   3.572   5.146  0.2318  0.0563 -0.0626
22218W        W37687   8.708   1.132  13.105  0.0832  0.3090 -0.4248
22219W        W37688  13.562  15.948   5.166  0.0154 -0.0760  0.4962
22220W        W37689  12.573  10.240   1.473  0.2996 -0.3435  0.0781
22221W        W37690   5.338   2.299  12.808 -0.0338  0.2871 -0.1403
22222W        W37691   4.783  12.006   1.388  0.0321 -0.2775 -0.2312
22223W        W37692   7.764  12.285  16.147  0.1756 -0.3023  0.2502
22224W        W37693   2.438  12.832   5.042  0.0646 -0.0886 -0.0620
22225W        W37694   2.502  16.676  14.142  0.2119 -0.1209  0.0043
22226W        W37695   3.513   8.844   4.243  0.0879  0.0157 -0.2671
22227W        W37696   6.654  15.790  12.837 -0.0441 -0.2596 -0.0889
22228W        W37697   8.818  10.496  13.571 -0.4381  0.0114 -0.0284
22229W        W37698   1.893  14.034  11.741 -0.3907 -0.2758 -0.1218
22230W        W37699   7.195   7.307   1.286  0.1515 -0.0109  0.0913
22231W        W37700   4.116  11.118  13.281 -0.1344 -0.0577  0.2545
22232W        W37701   9.940   5.368   2.025  0.0329 -0.1815 -0.1397
22233W        W37702  17.415  18.041   0.654 -0.0257  0.1222 -0.0241
22234W        W37703  11.052  10.069   3.335 -0.1598  0.1065 -0.1957
22235W        W37704  16.979   4.327   3.449  0.1613  0.1351 -0.1306
22236W        W37705  15.043  13.188   6.014 -0.0175 -0.0481 -0.0035
22237W        W37706  16.412   0.371  12.009  0.1062 -0.1844  0.2735
22238W        W37707  10.180   7.589  16.019  0.0036 -0.2536  0.2444
22239W        W37708   1.049  17.609  11.051 -0.0982  0.2342  0.1358
22240W        W37709  16.754  10.688  13.868 -0.0041  0.2547 -0.1400
22241W        W37710   7.318   5.358   2.792  0.0477  0.0199  0.1169
22242W        W37711   1.094   4.886   5.397  0.1839 -0.1331  0.2014
22243W        W37712  18.246  16.173  12.472  0.2170  0.0231  0.1223
22244W        W37713   4.549  10.989  15.047  0.0013  0.3695  0.0640
22245W        W37714   1.089  10.643  15.946  0.3477  0.0992  0.1311
22246W        W37715   9.157  16.082   1.947 -0.1806  0.3721 -0.0281
22247W        W37716  17.891  16.312  14.321 -0.2087 -0.2402  0.0949
22248W        W37717  12.238  12.402  10.902  0.0041 -0.2480 -0.0178
22249W        W37718  17.293  17.069  12.828 -0.0095 -0.0822 -0.0030
22250W        W37719  14.132   0.558   1.751 -0.0473 -0.4175 -0.0219
22251W        W37720   9.475   7.674   3.996  0.0377 -0.1718  0.1174
22252W        W37721  12.650  16.931  15.745 -0.0132  0.2327 -0.1725
22253W        W37722  14.067   8.858   1.954 -0.1103 -0.1298  0.1627
22254W        W37723   6.813   8.695   4.148 -0.0528  0.1218  0.1533
22255W        W37724  15.547  12.957   3.430  0.1445  0.0990 -0.1477
22256W        W37725   7.535   2.783  15.560 -0.0775  0.1151 -0.4382
22257W        W37726   0.890   3.349  15.184  0.3007 -0.0711  0.1683
22258W        W37727   1.092  13.503  11.977  0.3258  0.0956 -0.1089
22259W        W37728  17.246   2.823   2.014 -0.0972 -0.2301  0.1435
22260W        W37729   2.323   8.399   5.342  0.1938  0.1504  0.0957
22261W        W37730  10.128   2.186   1.314  0.0192 -0.1659  0.0036
22262W        W37731  13.193  15.489   1.999 -0.0495 -0.0163 -0.0664
22263W        W37732   3.209   6.488   3.558 -0.3227 -0.2039 -0.2252
22264W        W37733  18.017   5.540   5.407 -0.0477 -0.5734 -0.0082
22265W        W37734  13.615  11.310  13.569  0.1179  0.3452 -0.3737
22266W        W37735   7.550   9.780  11.309 -0.3154  0.0589  0.1859
22267W        W37736  13.701  16.835   4.114 -0.0633 -0.2242  0.0074
22268W        W37737   1.361  15.561   3.539 -0.0290 -0.1129  0.0270
22269W        W37738   7.419   2.092  15.956 -0.0126 -0.4433 -0.0397
22270W        W37739  16.248   5.032   1.559  0.1460  0.1394  0.0307
22271W        W37740  10.705   6.509  10.108 -0.3196  0.1697 -0.3229
22272W        W37741  16.541   2.200  12.952 -0.0783  0.2514 -0.2172
22273W        W37742   7.481   0.054   2.540 -0.3599 -0.1624 -0.0612
22274W        W37743   9.895  16.377  12.177 -0.1925 -0.0485  0.1738
22275W        W37744   5.896   0.616  15.589 -0.2738  0.0484 -0.2556
22276W        W37745   7.135  13.390   2.835 -0.3170 -0.2245 -0.0348
22277W        W37746  10.271  15.644   0.679  0.1584 -0.1040  0.0300
22278W        W37747   4.100  10.730   1.138  0.1454  0.1115 -0.2076
22279W        W37748  11.710  17.541   5.444 -0.1671 -0.0436 -0.1930
22280W        W37749  18.095  11.518  15.508 -0.0275  0.0153  0.2477
22281W        W37750  16.544  12.274  13.589 -0.0897 -0.2318  0.1235
22282W        W37751  16.520  11.986  11.248  0.0212  0.0540  0.0866
22283W        W37752   7.911  16.217  13.339 -0.0518  0.2928 -0.2586
22284W        W37753   3.513   9.745   4.660  0.2039 -0.3181 -0.1980
22285W        W37754  16.541  10.920  12.670 -0.0547 -0.4911  0.0643
22286W        W37755   5.567   4.200  14.362  0.0730  0.4568  0.4127
22287W        W37756  14.393  11.236   0.519  0.3242 -0.4381 -0.1805
22288W        W37757  14.986  10.736  15.910 -0.3177 -0.0048  0.0877
22289W        W37758   3.381  14.597   9.932 -0.0342 -0.0842 -0.1970
22290W        W37759  14.449   7.668   0.647 -0.3036  0.1714  0.1278
22291W        W37760  10.549  18.020  14.837  0.2549  0.0577 -0.0615
22292W        W37761  14.208  14.484  13.451  0.0195  0.1874  0.0315
22293W        W37762   3.071  12.843   3.462 -0.0908 -0.1081 -0.1493
22294W        W37763   2.567  15.486   3.284 -0.0585  0.0697  0.3013
22295W        W37764   6.852   0.083   2.387 -0.0802 -0.3381 -0.0504
22296W        W37765   1.733   5.746  11.826  0.1980 -0.3250 -0.3547
22297W        W37766   6.871  12.631  15.933 -0.1314  0.1819  0.0609
22298W        W37767   0.525  14.074  14.967  0.1542  0.0960  0.1040
22299W        W37768   3.321   7.142   2.228  0.0643  0.3231  0.1526
22300W        W37769  10.769   8.226  12.981 -0.0101  0.3400  0.1480
22301W        W37770  15.301  17.338   0.782 -0.1656 -0.0565  0.2806
22302W        W37771   5.156  15.182  16.049  0.1436 -0.1540 -0.0081
22303W        W37772  12.340  10.663  12.573 -0.0142  0.1714 -0.0113
22304W        W37773  17.991   7.038  14.154  0.3614  0.1433  0.2805
22305W        W37774   1.701   8.833   4.953  0.0149 -0.0002 -0.0383
22306W        W37775  13.210   9.297  14.542  0.1268 -0.2490 -0.0355
22307W        W37776  11.807   1.644  11.630  0.1641 -0.1447 -0.1540
22308W        W37777  17.110  14.675  16.110  0.0440 -0.0959  0.1187
22309W        W37778   1.839   9.457  13.746  0.2914 -0.0075 -0.0147
22310W        W37779   0.153   8.163  10.311  0.2633  0.0393 -0.0668
22311W        W37780   9.035   2.935   3.094 -0.2921  0.1467  0.0614
22312W        W37781   2.428  12.341  15.594 -0.0074 -0.2412  0.1045
22313W        W37782   7.631  15.894  13.830 -0.0312 -0.0675  0.0563
22314W        W37783  14.538   2.632   1.049  0.1047 -0.0948 -0.1929
22315W        W37784  12.505  11.341   4.569  0.1037  0.0918  0.0186
22316W        W37785  11.691  16.167   1.586 -0.1554 -0.1311 -0.0653
22317W        W37786  11.861  12.301  14.655 -0.3936 -0.0981  0.0439
22318W        W37787  17.554   0.147   1.307 -0.2217  0.0108 -0.2980
22319W        W37788  14.572   4.248   5.345 -0.1472  0.1489  0.1585
22320W        W37789   7.138  16.732  12.825 -0.1484  0.2610  0.1300
22321W        W37790   0.922   3.035  10.901  0.1281 -0.1446  0.0759
22322W        W37791  14.215  12.717  10.916 -0.4288 -0.4398 -0.0147
22323W        W37792  11.011  10.635  11.482 -0.2058 -0.1529  0.0393
22324W        W37793  16.856   6.159  15.295  0.0854  0.2101  0.1853
22325W        W37794   6.402   4.491   0.388 -0.1893 -0.1028  0.2540
22326W        W37795  12.534  11.162   0.393  0.0292 -0.2788  0.2430
22327W        W37796   1.602   1.373  14.066  0.1609 -0.1232  0.1750
22328W        W37797   5.388  14.481  15.396  0.0385  0.3354 -0.0451
22329W        W37798  13.445  16.053  11.655 -0.2610  0.0783 -0.1399
22330W        W37799  13.725   9.464   3.982 -0.1930  0.0727 -0.3559
22331W        W37800  18.302   3.613   1.225 -0.2116  0.1503  0.4186
22332W        W37801   8.356   7.984   5.396 -0.0784 -0.3986 -0.0915
22333W        W37802   7.980   3.441   0.918 -0.0722 -0.1342  0.2207
22334W        W37803  10.357  17.774  13.073  0.0895 -0.1505  0.0872
22335W        W37804   4.179   5.027   0.511 -0.1700  0.1415 -0.0807
22336W        W37805   1.275  17.965   3.044  0.0123 -0.0315 -0.0915
22337W        W37806  16.323   0.553  14.374 -0.0242  0.1871  0.1030
22338W        W37807   9.394  10.589  13.659  0.0305 -0.1680 -0.0744
22339W        W37808   8.064   2.976   1.474  0.2186 -0.0247 -0.1184
22340W        W37809   2.308  11.503   3.406  0.0442  0.0851 -0.0370
22341W        W37810   9.516  16.440   1.012  0.0434  0.2173 -0.2721
22342W        W37811  13.333   5.976  12.436 -0.0202  0.3727  0.2095
22343W        W37812   5.524  12.162  13.827  0.4883  0.1220 -0.1186
22344W        W37813   8.493  15.556   2.754 -0.1519  0.2196 -0.0095
22345W        W37814   4.223   5.827   0.044  0.2510  0.0495 -0.0644
22346W        W37815  11.919  14.305  11.987 -0.0603 -0.1473 -0.1148
22347W        W37816   6.434  15.049   1.701  0.0461 -0.0328 -0.0645
22348W        W37817  10.233   3.019   1.691 -0.0689  0.1525 -0.0384
22349W        W37818   1.507  15.231  15.287 -0.0139 -0.2933 -0.4100
22350W        W37819  11.294   2.448   4.896  0.2656 -0.1790 -0.2341
22351W        W37820   2.589  15.514  11.597  0.1529 -0.3696  0.1058
22352W        W37821  17.028  17.143  11.908 -0.2621  0.1538  0.1365
22353W        W37822   4.580  15.793  13.276  0.1467 -0.3245 -0.2303
22354W        W37823   8.571   1.331  12.103 -0.0881  0.2913  0.0638
22355W        W37824  10.245   2.562   3.364  0.3030  0.2962 -0.2502
22356W        W37825  17.530  15.238   3.739  0.3552  0.0627 -0.0277
22357W        W37826  18.269   6.528  14.148 -0.2823 -0.0557 -0.3247
22358W        W37827   6.407   8.028  12.728 -0.0220  0.1122  0.0070
22359W        W37828   5.898   9.062  10.999  0.1659  0.0770 -0.0005
22360W        W37829   5.628   2.084   4.758 -0.1250 -0.2546  0.1406
22361W        W37830  10.294   9.185  14.686 -0.0485 -0.0547  0.0873
22362W        W37831   5.502   0.514   5.049 -0.3875  0.1046  0.0074
22363W        W37832   3.752   3.536   3.810 -0.3018  0.1393 -0.1836
22364W        W37833   7.033  15.073  14.672  0.1754  0.0107 -0.1269
22365W        W37834  10.287   3.309   4.941 -0.1247  0.3423  0.1806
22366W        W37835   4.510   7.678  14.515 -0.2499  0.2209 -0.1079
22367W        W37836  14.453   3.398   0.644 -0.0549 -0.0299  0.2335
22368W        W37837  18.028   2.657   1.127 -0.0322 -0.0447  0.1860
22369W        W37838   1.541   1.732   2.136  0.1486 -0.3003 -0.0155
22370W        W37839  17.851   7.263   4.653  0.1137  0.0400 -0.0650
22371W        W37840   7.026   3.928   3.596  0.1576 -0.1136 -0.2278
22372W        W37841  15.512   4.629  14.081  0.1958  0.3111 -0.2013
22373W        W37842   3.482   0.710   0.170 -0.0565 -0.3416  0.0981
22374W        W37843   9.360  12.682  13.713 -0.2307  0.0134  0.2120
22375W        W37844  17.536  17.469   4.018  0.2279  0.0361 -0.1006
22376W        W37845  12.520  11.383  14.381 -0.2117  0.0055  0.1581
22377W        W37846  17.783   1.489   3.969  0.2681 -0.2663 -0.2327
22378W        W37847  11.804   0.410  12.164 -0.0186 -0.1401 -0.2335
22379W        W37848   1.917  15.682  15.354 -0.5232  0.2818  0.2298
22380W        W37849  12.422  11.728   2.130  0.0623  0.0426  0.0538
22381W        W37850   7.436  10.148   1.257  0.0047 -0.0487  0.0195
22382W        W37851   2.124  13.299   1.216 -0.1215  0.1363 -0.1074
22383W        W37852   2.429  14.435   1.410 -0.1969  0.1438  0.0031
22384W        W37853   6.752   8.020  15.850 -0.0749 -0.0477  0.0717
22385W        W37854  13.863  11.434   0.640 -0.0708  0.1525 -0.0528
22386W        W37855  13.541   4.542  12.818  0.0221 -0.2442 -0.0834
22387W        W37856  10.879   6.759   0.851  0.2075  0.0268  0.0484
22388W        W37857  18.011  13.138  11.078  0.0839  0.0258 -0.1239
22389W        W37858   1.633  13.038  15.144 -0.0153 -0.2184  0.4185
22390W        W37859   4.554   9.683   1.660 -0.1919 -0.2148 -0.1994
22391W        W37860   1.682   2.680  10.742 -0.2997  0.1470  0.1166
22392W        W37861  13.612   0.386  13.345  0.1307  0.1876  0.2481
22393W        W37862   0.493   1.477   0.218  0.3652  0.0541  0.1288
22394W        W37863  10.398   4.651   1.202 -0.0610  0.1606  0.1993
22395W        W37864  17.746   0.613   1.509  0.2753  0.1840  0.2672
22396W        W37865  14.469   0.186  14.710 -0.0972 -0.0020  0.1800
22397W        W37866   0.533   5.797  16.040 -0.1928  0.0596  0.1772
22398W        W37867   7.458  13.783   3.073 -0.2582  0.2536 -0.0538
22399W        W37868  12.621   9.693   2.504  0.1329 -0.0551 -0.0675
22400W        W37869   3.678   4.123   5.302 -0.2050  0.0376 -0.4190
22401W        W37870   3.747   7.850   1.294 -0.1065  0.0246 -0.0403
22402W        W37871   5.275   6.800  12.724 -0.1217  0.3661 -0.0639
22403W        W37872   4.645   8.835   3.716  0.0311 -0.1219 -0.1619
22404W        W37873  12.483  12.621   2.385 -0.1708 -0.1735 -0.2043
22405W        W37874  15.075   8.042  13.135 -0.0056  0.4154 -0.4237
22406W        W37875   0.290  13.663   4.666 -0.0855 -0.3871 -0.1187
22407W        W37876  16.194  13.808  10.917 -0.3315  0.1722 -0.1681
22408W        W37877   3.808  12.988  15.248 -0.1178 -0.1609 -0.0072
22409W        W37878   5.548   3.474   4.390  0.3350 -0.3228 -0.0143
22410W        W37879   7.039   0.143  15.207  0.3756  0.2513 -0.2993
22411W        W37880  11.752   9.485  14.170  0.0457  0.0235  0.1707
22412W        W37881   5.125   8.031  12.506  0.0637  0.0459  0.1217
22413W        W37882   6.670   7.839  11.584 -0.0558  0.2597  0.0301
22414W        W37883   8.640  14.045   3.566  0.2895 -0.4421 -0.0913
22415W        W37884  10.182   1.456  10.383  0.2812  0.0366 -0.0838
22416W        W37885   2.501  13.897  15.247  0.0508  0.0437  0.0614
22417W        W37886   2.647  10.786  15.469 -0.1211 -0.4074  0.0969
22418W        W37887  14.967  10.515   0.446  0.2060  0.2854 -0.1050
22419W        W37888  17.860   4.922  12.807  0.0511 -0.2344  0.0148
22420W        W37889   0.189  13.781  14.240 -0.1550  0.2254  0.0092
22421W        W37890  17.026  10.052  11.353 -0.2349 -0.0534  0.0742
22422W        W37891   6.821   9.791  12.711 -0.1127 -0.2157  0.0714
22423W        W37892   9.677   9.415   5.190 -0.0998 -0.3551 -0.0563
22424W        W37893   0.496  13.974  13.599 -0.5542 -0.3881 -0.1375
22425W        W37894  13.725  16.272   3.288 -0.0565  0.1985  0.0256
22426W        W37895  16.840   7.976  15.987  0.1882 -0.1195 -0.0754
22427W        W37896  11.103   4.318  15.536  0.3709  0.1716  0.2049
22428W        W37897  13.665   6.611  15.365 -0.3602 -0.0517 -0.1311
22429W        W37898  14.089   8.367   1.818 -0.0019  0.0517  0.2341
22430W        W37899   1.730  15.777  14.500  0.0130  0.2068  0.0825
22431W        W37900  13.223  16.798   1.741 -0.3524  0.0086 -0.4187
22432W        W37901   1.963  16.742   1.073 -0.0028 -0.1969  0.2808
22433W        W37902  10.476  14.733  14.363 -0.0243  0.1880  0.0727
22434W        W37903  18.181   7.033  13.177  0.0995 -0.0925 -0.2910
22435W        W37904   8.759  14.112  12.126  0.0172  0.0216 -0.0052
22436W        W37905   3.841   4.620  14.224 -0.0039  0.0076 -0.1027
22437W        W37906   3.542   7.583   3.514 -0.3015  0.1911  0.3961
22438W        W37907  15.509  13.260  15.103 -0.2404 -0.2716  0.2955
22439W        W37908   2.943   7.629  11.665 -0.1006  0.0723 -0.0372
22440W        W37909  12.633  10.106   0.153 -0.4710 -0.0968 -0.2705
22441W        W37910   0.622  13.814  14.050  0.3053 -0.0860  0.0968
22442W        W37911  10.582   5.048  12.683  0.2076 -0.3500  0.0581
22443W        W37912  14.476  17.867  12.987 -0.0975  0.0944  0.2956
22444W        W37913  15.935   4.179  15.883  0.0959  0.1619  0.3262
22445W        W37914   4.061   8.804   1.034  0.1135  0.2879  0.1354
22446W        W37915   4.863   4.657  14.226 -0.2102  0.3355 -0.0279
22447W        W37916   3.645   4.239  14.598  0.0668  0.1786  0.0011
22448W        W37917  14.932   1.391  13.973 -0.1003  0.1984 -0.0786
22449W        W37918   7.405   8.982  14.437  0.2639 -0.2659  0.0490
22450W        W37919  10.965   8.013   5.161 -0.1880  0.0103  0.0608
22451W        W37920  18.167  18.223  13.187 -0.2000 -0.1955 -0.1586
22452W        W37921  15.499  12.422   2.701  0.0549 -0.1715 -0.0789
22453W        W37922   9.931   8.523   2.361 -0.0426  0.3060 -0.0016
22454W        W37923   1.824   1.361   0.404  0.0750  0.3081  0.2380
22455W        W37924  13.151   9.096  15.848 -0.3175 -0.0950 -0.0064
22456W        W37925   0.686  16.829  14.099 -0.1172 -0.1713  0.0327
22457W        W37926  16.635   6.467   0.518 -0.2337 -0.2196  0.1558
22458W        W37927  11.404   9.013  15.633 -0.2229 -0.0837 -0.1085
22459W        W37928  16.036   0.215   3.856 -0.1519  0.1806  0.1660
22460W        W37929  16.700  13.526  14.685  0.1294  0.0417 -0.0844
22461W        W37930  18.029  15.186   3.625 -0.0127  0.0399 -0.1813
22462W        W37931  14.615   2.167   3.824  0.1804  0.0968 -0.1735
22463W        W37932  14.585  15.045  12.893  0.1092 -0.0392 -0.0964
22464W        W37933   2.226  12.004  11.989  0.2813  0.0121  0.1948
22465W        W37934   1.657  14.401   2.507  0.1783  0.1872 -0.2182
22466W        W37935   5.593  12.193  14.921 -0.0911  0.2500 -0.0619
22467W        W37936   2.212   1.249   2.738 -0.0455 -0.1127  0.2041
22468W        W37937  10.451  10.482  12.165  0.1255 -0.0850 -0.0870
22469W        W37938   8.672  16.041   0.066 -0.0188  0.2647 -0.3105
22470W        W37939   9.343  17.054  13.853 -0.1187 -0.0548 -0.0129
22471W        W37940  17.598   9.749   1.438  0.0316 -0.0854 -0.0904
22472W        W37941   2.234   3.368  12.598 -0.1881  0.1450  0.4955
22473W        W37942  17.564   4.202   5.329  0.0519  0.1155  0.0820
22474W        W37943   5.915   2.698  12.950  0.0750  0.0474 -0.3800
22475W        W37944   2.255  16.331   2.210 -0.0320  0.3238 -0.0586
22476W        W37945   1.309   6.503  11.948  0.1043 -0.1242  0.1092
22477W        W37946   7.569   9.647  13.030 -0.2019  0.0742 -0.2822
22478W        W37947  11.109  13.949  15.894  0.2206 -0.1173 -0.1438
22479W        W37948   7.047   7.853   4.527  0.2869  0.2631  0.0343
22480W        W37949   3.235   3.361   0.350  0.1594 -0.0934 -0.0534
22481W        W37950   7.924   4.773   2.215  0.0335 -0.0547  0.2415
22482W        W37951  14.241  11.735   4.091 -0.1046  0.1168 -0.2184
22483W        W37952  11.596  15.362  15.574  0.0669  0.2576 -0.2009
22484W        W37953   0.287   8.828   1.726 -0.3398 -0.0191  0.2717
22485W        W37954  10.416  10.338   1.810  0.2694 -0.1352  0.0130
22486W        W37955  16.842   3.898   4.953 -0.4042 -0.2115 -0.1861
22487W        W37956   2.231  11.219  15.147 -0.0192  0.0831  0.1905
22488W        W37957  16.355   5.396   2.143  0.1624 -0.1611  0.0564
22489W        W37958   5.270   8.412  11.310 -0.0516 -0.0807 -0.1589
22490W        W37959  12.040   6.371   3.675 -0.2257  0.0103  0.0282
22491W        W37960  15.934  15.414  14.918 -0.1655 -0.0515  0.0568
22492W        W37961  11.398  13.617   3.356 -0.5619 -0.1551 -0.0333
22493W        W37962  16.733  15.487   1.176  0.0438  0.0778 -0.3115
22494W        W37963   3.046   5.029  15.582  0.0646 -0.2580  0.0114
22495W        W37964   8.688   9.292  12.198  0.1808 -0.1589  0.1268
22496W        W37965   4.974   8.695  14.466 -0.2396 -0.0014  0.0919
22497W        W37966  18.266  14.487   3.048 -0.1705  0.0992 -0.1420
22498W        W37967   3.525  14.283   3.638  0.0347  0.3496 -0.0498
22499W        W37968   5.538   2.416   5.065 -0.0162 -0.1320 -0.1452
22500W        W37969  12.075   1.327  13.691 -0.1317  0.1149  0.1223
22501W        W37970   3.565   0.876  14.926 -0.1062  0.1379  0.0473
22502W        W37971   1.623  12.371   3.287 -0.2101 -0.3120  0.0292
22503W        W37972  16.876   5.051  13.155  0.2637  0.0110 -0.2269
22504W        W37973   0.012  15.710  15.723 -0.1067  0.1097  0.2745
22505W        W37974   1.655  15.639   3.083  0.1718  0.5237 -0.0555
22506W        W37975   5.298   0.468  14.205  0.0351 -0.1246 -0.1024
22507W        W37976  10.231   8.721  11.650 -0.4106  0.2008  0.1368
22508W        W37977   4.358   9.075   4.778 -0.1635  0.3114  0.3882
22509W        W37978   9.366  17.362   0.377  0.0521 -0.0152 -0.1182
22510W        W37979   4.934  16.285   5.227  0.1749 -0.1131  0.2743
22511W        W37980   3.303  10.589  14.149  0.1881  0.1554  0.3543
22512W        W37981   5.521   3.655  14.535  0.0537  0.0099  0.0333
22513W        W37982   7.233  13.758   3.642 -0.1170 -0.2175  0.1258
22514W        W37983  13.206  16.149   4.907  0.0195 -0.0394  0.0288
22515W        W37984  11.636  17.406  11.820 -0.3487  0.0461  0.4439
22516W        W37985  13.373  16.354  12.089 -0.1051 -0.0029  0.1368
22517W        W37986   6.067   0.626  14.867  0.1669 -0.1963  0.1332
22518W        W37987   7.582  15.389   4.568 -0.2549  0.0687 -0.1845
22519W        W37988   9.519  10.926  15.584  0.2016 -0.1248 -0.1927
22520W        W37989   8.083   1.918   5.460 -0.2333 -0.0738 -0.0746
22521W        W37990   1.211  17.729   3.537 -0.1935 -0.1138  0.0433
22522W        W37991   9.498   1.248  12.453 -0.1744 -0.1560 -0.2074
22523W        W37992  14.575  16.240   0.934 -0.4564 -0.1577  0.0821
22524W        W37993   2.030  13.348   2.084 -0.0791 -0.1394  0.2594
22525W        W37994  12.144  16.000   4.840 -0.0285 -0.2733 -0.1996
22526W        W37995   2.277  11.370   3.972 -0.1223 -0.0333  0.1393
22527W        W37996   9.861  16.994   1.738  0.0763 -0.1098 -0.0440
22528W        W37997  18.087   3.641   2.882 -0.2781  0.1750  0.3106
22529W        W37998   0.702   7.713  12.729  0.1397 -0.0944 -0.1267
22530W        W37999   1.432  14.090  13.473  0.0825 -0.1194  0.2348
22531W        W38000  13.950   8.486   2.268  0.2869 -0.2637 -0.0185
22532W        W38001  11.080  17.250  14.521 -0.1244 -0.2012 -0.2501
22533W        W38002   4.669   2.806  14.317 -0.3882  0.1607  0.1540
22534W        W38003  10.137   3.303   2.083 -0.0036 -0.4414  0.0633
22535W        W38004  12.803   5.647   3.373 -0.0365  0.3156  0.2706
22536W        W38005  14.509  13.214  14.761  0.2029  0.0399  0.2101
22537W        W38006  18.201   0.246   2.867  0.0071 -0.1861 -0.0462
22538W        W38007   7.092  17.117   3.978 -0.3274  0.1023 -0.0056
22539W        W38008  11.864  11.907  11.755 -0.1296 -0.2548  0.0388
22540W        W38009   5.746  10.673  13.210  0.4097  0.1574 -0.1721
22541W        W38010   5.749  14.988  13.707  0.0752  0.1284 -0.0188
22542W        W38011   3.069  12.683  11.877 -0.1445  0.0084 -0.1355
22543W        W38012   6.422  16.950  15.480 -0.0076 -0.0149  0.2523
22544W        W38013   5.857  15.795   3.782  0.0940  0.2592  0.0883
22545W        W38014   6.907  15.951  15.282 -0.0452 -0.0223 -0.2351
22546W        W38015   3.925  16.157   3.722 -0.0714 -0.1318  0.0532
22547W        W38016  13.292  17.071  12.539  0.2167  0.0176  0.0049
22548W        W38017   0.954   1.296   1.508  0.0474  0.0949  0.0508
22549W        W38018   6.502   2.306   1.857 -0.1437  0.3058  0.1351
22550W        W38019   6.781  14.492  10.733 -0.1223 -0.1924 -0.0571
22551W        W38020  13.923   1.440   5.749 -0.0682  0.1249  0.0137
22552W        W38021  12.130   8.599  12.647 -0.1364 -0.0343 -0.0315
22553W        W38022  18.296   5.209  12.831 -0.0597 -0.0949 -0.2391
22554W        W38023   0.066   4.522   0.749 -0.1276  0.0490  0.1017
22555W        W38024   4.910   7.290  11.996 -0.0127  0.0837  0.4178
22556W        W38025   4.320  17.983   4.949  0.1626 -0.0774  0.0553
22557W        W38026  10.926   3.436  15.841  0.0238  0.0314 -0.3941
22558W        W38027   6.075  12.332  14.665 -0.0278  0.2252 -0.1449
22559W        W38028   1.256   9.059   4.731 -0.0275  0.0504 -0.3004
22560W        W38029  13.491  17.192   4.386 -0.2019  0.1993 -0.2511
22561W        W38030   8.605   2.628   5.124  0.1276 -0.0572  0.0044
22562W        W38031   4.998  10.790  13.713  0.0444  0.2661  0.2037
22563W        W38032  12.806  12.948  12.439  0.3176 -0.0883  0.2417
22564W        W38033   1.055  13.020   2.492  0.2368 -0.2447 -0.0180
22565W        W38034   8.189   3.897   1.796  0.2557 -0.1559  0.0920
22566W        W38035  16.854  11.503  10.302 -0.1086  0.0216 -0.3286
22567W        W38036  18.077   2.163   1.867  0.1829 -0.2392  0.0088
22568W        W38037   3.871   4.825   6.330 -0.0316  0.2405 -0.0145
22569W        W38038  10.943   8.646  10.969 -0.1695 -0.1247 -0.1238
22570W        W38039   9.611  12.767   3.901 -0.1121 -0.1038  0.0801
22571W        W38040  13.606  14.884   5.629  0.0225  0.0976  0.1927
22572W        W38041   2.277   6.743  14.179 -0.1615 -0.0812  0.2226
22573W        W38042   8.016   7.467   3.606 -0.1017 -0.3899  0.0188
22574W        W38043  13.627   7.121  15.930 -0.1764  0.1943  0.2165
22575W        W38044   4.611  12.194   5.621 -0.1617 -0.0154 -0.4444
22576W        W38045  16.619   2.384  14.787  0.2125  0.0428  0.1261
22577W        W38046  14.128   5.961   1.068 -0.1982  0.0209  0.1337
22578W        W38047  11.908   6.969  13.451  0.1191 -0.1898  0.1001
22579W        W38048   9.640  12.351  12.364 -0.1414  0.3408  0.0792
22580W        W38049   9.689  11.390  15.463  0.1897  0.0525  0.3267
22581W        W38050  16.053   9.330  16.121  0.0995  0.1912 -0.2132
22582W        W38051  17.277  17.600  13.099 -0.1421 -0.0390 -0.2264
22583W        W38052   2.121  17.454   3.331  0.0554  0.1147 -0.1098
22584W        W38053  16.992   3.052  14.211 -0.3682  0.0492  0.1145
22585W        W38054   9.858   2.646   4.262  0.0570  0.4717  0.0114
22586W        W38055   5.682  15.610   4.874 -0.2108  0.3105 -0.3209
22587W        W38056   1.995   5.309   1.274  0.0357  0.0099 -0.1803
22588W        W38057   3.135   2.276   2.508 -0.2068 -0.1613 -0.0221
22589W        W38058   8.794   2.588  12.626  0.0208 -0.2911  0.1093
22590W        W38059   4.393  16.916   1.169 -0.2807  0.1013 -0.1198
22591W        W38060  13.456   9.593   3.530  0.1229 -0.0576  0.1083
22592W        W38061   9.671   5.839  14.009 -0.5006 -0.0274  0.3151
22593W        W38062  17.281  17.246  11.397 -0.0544  0.0164 -0.0168
22594W        W38063   0.854   9.741   6.376 -0.0106 -0.0955 -0.0491
22595W        W38064  12.426  13.613  14.623 -0.1172  0.1890  0.3087
22596W        W38065  18.015  12.701   1.972  0.1486  0.2474  0.1467
22597W        W38066  10.429  15.841  15.299  0.0998 -0.2359  0.0997
22598W        W38067   8.841  17.917   4.584 -0.2377 -0.0143 -0.1032
22599W        W38068   0.069  11.660  12.446 -0.0427 -0.0199  0.0160
22600W        W38069   9.818   5.658  12.361 -0.0960 -0.0962  0.0277
22601W        W38070   6.229   3.911  13.238 -0.1368  0.1420 -0.0249
22602W        W38071   8.630  13.249  13.748 -0.3567 -0.4518  0.0859
22603W        W38072   6.515   3.865   2.145 -0.0616  0.1919  0.0925
22604W        W38073  13.123  14.291   2.785 -0.1489  0.0786 -0.0277
22605W        W38074  16.850   5.257   4.573 -0.1850 -0.0495  0.3975
22606W        W38075   9.717   6.972  15.088  0.0397  0.2057  0.1165
22607W        W38076   2.427  11.029  13.224  0.0051  0.3196  0.1726
22608W        W38077   5.831  12.065  10.754  0.1426 -0.1516  0.2180
22609W        W38078  11.034   1.309  15.686 -0.0764 -0.1800  0.4013
22610W        W38079   3.827  14.146   0.134 -0.1438  0.0529 -0.0278
22611W        W38080  14.141  12.230   4.095  0.1685  0.1699 -0.2498
22612W        W38081  18.171   7.997   4.476  0.1186  0.0710  0.1037
22613W        W38082   9.612  13.890   1.600  0.0887 -0.1069  0.1459
22614W        W38083   1.290   9.976   5.756 -0.2307 -0.1736 -0.2780
22615W        W38084  13.186   2.420  15.506 -0.2597 -0.0850  0.3383
22616W        W38085  17.269   3.567  12.685 -0.1387 -0.0866 -0.1754
22617W        W38086  12.909   3.215  13.675 -0.1282 -0.0732  0.0566
22618W        W38087   3.139  16.351  15.979 -0.1846 -0.0247  0.0800
22619W        W38088  12.005   5.479  16.055 -0.0371  0.0475 -0.0473
22620W        W38089  17.385  15.519   0.614 -0.0017  0.2794 -0.3795
22621W        W38090  10.380  10.979  11.264 -0.0425 -0.1555 -0.0766
22622W        W38091   2.884   0.018   0.392 -0.0056 -0.1384  0.1542
22623W        W38092   4.178   5.125  12.092  0.2449 -0.0465 -0.1273
22624W        W38093  13.034   2.253   3.245 -0.4927 -0.0063  0.0538
22625W        W38094   7.445  13.629  11.856 -0.0599 -0.2950  0.3211
22626W        W38095   7.832   2.318   0.349  0.4649 -0.0505  0.4161
22627W        W38096   9.981  11.881  13.505  0.1910  0.2552  0.0069
22628W        W38097  13.864  12.011   4.441  0.0905 -0.1963 -0.2508
22629W        W38098  12.915   1.319   1.598  0.1197  0.1736  0.1057
22630W        W38099   9.567  16.318   1.558  0.1681  0.0905 -0.3448
22631W        W38100  15.928  13.795   1.728 -0.2526 -0.1143  0.2111
22632W        W38101  16.032   5.438   0.059  0.1952 -0.0834  0.3093
22633W        W38102   4.014  15.767  14.158  0.4179  0.2132  0.2320
22634W        W38103   2.055   7.149   4.621  0.0140  0.2405 -0.3676
22635W        W38104  14.244   2.786  11.128 -0.0574  0.0266 -0.0397
22636W        W38105  15.338   3.579  13.854  0.0580 -0.2396  0.0711
22637W        W38106   2.238   0.101  13.884  0.0561 -0.3239 -0.3233
22638W        W38107   4.207  10.789  12.473  0.0701 -0.2667  0.2951
22639W        W38108   6.631   5.776  14.150  0.1047  0.1583 -0.2446
22640W        W38109  13.566  16.577  13.657  0.2697 -0.0877 -0.1712
22641W        W38110   2.193  13.056   3.564  0.3402 -0.1309  0.0002
22642W        W38111   8.020   1.772   3.201  0.0586  0.1871 -0.1813
22643W        W38112   7.159   8.426  10.475  0.2251  0.0810 -0.0301
22644W        W38113  10.733   3.320  15.361  0.1916 -0.1002  0.2328
22645W        W38114   7.046  15.090  14.068  0.1607 -0.2185 -0.4092
22646W        W38115   7.553  10.985   1.618 -0.2126 -0.1058 -0.0353
22647W        W38116  16.661  11.931  15.635  0.0373 -0.0463  0.1434
22648W        W38117   1.479   8.333  13.117 -0.2039  0.3480  0.1457
22649W        W38118  15.858  11.716   2.486  0.3323 -0.1793 -0.0072
22650W        W38119   2.504   4.417   4.130  0.1874  0.0740  0.1610
22651W        W38120  16.442   7.916   5.559  0.3934 -0.1166 -0.0644
22652W        W38121   0.356   7.051  12.903  0.0886 -0.1541  0.0256
22653W        W38122  17.985  14.969   2.465 -0.1808 -0.2751 -0.0465
22654W        W38123  17.118   9.716   5.432  0.0293 -0.0106 -0.0088
22655W        W38124   4.884   0.517   2.046  0.1314 -0.0265  0.1165
22656W        W38125   2.884  14.542   0.173  0.0065  0.0590 -0.3968
22657W        W38126   2.189  15.152  12.822 -0.0568 -0.2799  0.0728
22658W        W38127   0.901   4.798   4.803 -0.2349 -0.2795  0.1380
22659W        W38128  10.164   3.444  13.114 -0.3007  0.4876 -0.1581
22660W        W38129   7.578   6.819  13.837  0.3270  0.0546 -0.1601
22661W        W38130  18.267  11.521   4.086 -0.0748  0.0777 -0.0562
22662W        W38131   8.272  16.067   1.047 -0.2023  0.0593 -0.2510
22663W        W38132   8.645  15.303   5.227  0.0502 -0.2331 -0.0477
22664W        W38133   6.390  11.310   1.317 -0.3951 -0.0819 -0.0551
22665W        W38134   8.686  11.981   4.520  0.0085  0.1639 -0.2470
22666W        W38135  10.508  17.799   0.737  0.2644 -0.0142  0.2850
22667W        W38136  14.701   2.317   5.884 -0.2305 -0.1450  0.2210
22668W        W38137   3.561   8.264  13.495 -0.3063  0.0900  0.0872
22669W        W38138   8.881   4.092   3.917  0.0141 -0.1485  0.0686
22670W        W38139   2.236   5.970   5.375 -0.0322  0.2856  0.0133
22671W        W38140   0.139   8.984  11.840  0.1223 -0.0353  0.0321
22672W        W38141   4.143  16.524   1.332  0.3368 -0.0708 -0.3724
22673W        W38142  18.087  16.844  15.325  0.0762 -0.2964 -0.0963
22674W        W38143  16.794   8.670  10.637  0.5367  0.1188 -0.2054
22675W        W38144   9.170  14.049  13.954  0.0505  0.0209 -0.1076
22676W        W38145  12.605   3.616   5.116  0.2757 -0.1394 -0.1442
22677W        W38146  12.604  15.678  14.670  0.1789 -0.2059  0.3253
22678W        W38147  15.461   8.993   3.497  0.1852 -0.0412  0.2533
22679W        W38148  10.061  12.168  11.880 -0.1336 -0.0844 -0.0949
22680W        W38149   5.374   4.586  11.676  0.3255  0.0179  0.1627
22681W        W38150  11.448   7.960  13.465  0.0428 -0.1069  0.0634
22682W        W38151  17.598   2.761   5.458 -0.2832  0.2246 -0.0710
22683W        W38152   6.822  13.537   5.037  0.0920 -0.2166  0.0549
22684W        W38153  15.408   8.266   3.956  0.0247  0.2355  0.3500
22685W        W38154   0.464   0.890   5.050  0.0632 -0.4149 -0.3622
22686W        W38155   1.958  18.090   1.820  0.1907 -0.0728  0.0023
22687W        W38156   7.317  13.913  10.432 -0.0810 -0.1701  0.1747
22688W        W38157   8.517  15.756  10.864  0.5462 -0.0817 -0.0701
22689W        W38158   0.262   6.626  16.010 -0.0259  0.2172  0.1234
22690W        W38159   9.806   2.910   0.661 -0.1041 -0.1740 -0.0665
22691W        W38160  15.610  12.944  11.761  0.1648 -0.0655  0.1428
22692W        W38161  11.444  11.208   6.109  0.0589 -0.6032 -0.2467
22693W        W38162  12.369   5.512   4.090  0.2117  0.2340  0.2927
22694W        W38163   0.892   2.113  15.058 -0.0215  0.0502  0.1136
22695W        W38164   1.509   8.264   2.985 -0.2498  0.1288  0.0878
22696W        W38165  17.999  11.897  15.147  0.0303  0.1598 -0.2043
22697W        W38166  18.196   8.541  12.017  0.2296  0.2587 -0.1615
22698W        W38167   6.147  14.307  11.935  0.1201  0.2884 -0.0563
22699W        W38168  12.750  15.280   4.351  0.1797 -0.0245 -0.0658
22700W        W38169  10.481  17.890   4.418  0.2118 -0.0702 -0.0390
22701W        W38170  17.115  12.757  14.616  0.0410 -0.1703 -0.0950
22702W        W38171  13.624   7.980  10.504  0.0969  0.0722  0.2778
22703W        W38172  13.056   4.267  10.589 -0.1291 -0.1054 -0.1560
22704W        W38173   1.321   2.066  13.788 -0.1072 -0.0820  0.2900
22705W        W38174  14.495   2.378  14.835 -0.2497 -0.1190  0.0423
22706W        W38175   9.628  14.283  11.830  0.0230 -0.2616  0.1794
22707W        W38176   6.231   3.101   5.041  0.1319 -0.0963  0.0585
22708W        W38177   9.790   6.505   0.135 -0.1328  0.1844 -0.0375
22709W        W38178   0.572  11.585   5.481  0.1687 -0.1357 -0.2803
22710W        W38179   2.861  15.198  14.283  0.1143  0.0384  0.0847
22711W        W38180  12.011   4.330   0.301 -0.3383 -0.3221 -0.2044
22712W        W38181   3.371  10.555   1.468 -0.2136  0.2305 -0.1271
22713W        W38182   7.371   3.230  14.231  0.1351  0.1231 -0.0003
22714W        W38183   8.630   6.418   3.168  0.0896 -0.2153 -0.2038
22715W        W38184   1.098   7.140  13.669  0.1002 -0.3116 -0.2527
22716W        W38185   7.035   1.067   1.002  0.0060 -0.2132 -0.3288
22717W        W38186   7.494   9.767   2.231 -0.0568  0.0126 -0.1077
22718W        W38187  12.352   8.058  11.894 -0.1666  0.2722  0.0696
22719W        W38188  14.826   9.947  13.660  0.0833  0.0943  0.4048
22720W        W38189  11.804   5.064  12.264  0.2021  0.1029 -0.0606
22721W        W38190  17.818  13.708  10.362 -0.0488 -0.1762 -0.2386
22722W        W38191   6.443   8.482  15.203 -0.2578 -0.0621 -0.1448
22723W        W38192  12.027  17.425   3.256 -0.2731 -0.1299  0.0318
22724W        W38193   8.244   4.243  12.807 -0.1824 -0.0494 -0.4136
22725W        W38194   3.441  14.292  15.124 -0.2178 -0.1723  0.4443
22726W        W38195   1.898  14.994   4.782  0.1607 -0.1999  0.0732
22727W        W38196   6.895  17.581  13.256 -0.0882  0.3673 -0.0723
22728W        W38197  15.547  16.424   4.245  0.0010 -0.1405  0.1138
22729W        W38198   2.881   1.161   3.295 -0.0680 -0.0027 -0.3282
22730W        W38199   4.443   5.503  15.422 -0.2286 -0.0612 -0.2511
22731W        W38200   5.168   5.884   0.961 -0.0632  0.1496 -0.1274
22732W        W38201   2.047   9.752  13.372  0.0277 -0.3327  0.1082
22733W        W38202   3.524  12.924  12.647  0.1011 -0.0505  0.3291
22734W        W38203  17.009   8.977  12.686 -0.0505  0.0518  0.2296
22735W        W38204  12.705  11.372  12.802  0.0318  0.3376 -0.3628
22736W        W38205  12.134  15.145  11.637  0.1571  0.1493 -0.1330
22737W        W38206   3.697  14.799  11.187 -0.1651  0.0839  0.0470
22738W        W38207  16.536  16.149   5.365 -0.0955  0.2480 -0.0674
22739W        W38208   8.465  12.714   1.738  0.2768 -0.0294 -0.4027
22740W        W38209   7.336   3.095  13.759 -0.0166  0.1731  0.1425
22741W        W38210  11.868   3.780   0.350  0.2758 -0.1836 -0.0801
22742W        W38211  15.421   3.537  10.867 -0.2137  0.1183  0.0287
22743W        W38212   1.981  12.553  15.651 -0.1610  0.0190  0.1965
22744W        W38213   5.132  17.251   0.025  0.2234 -0.0959 -0.4004
22745W        W38214   8.750  10.068   3.496 -0.3356 -0.4294  0.0503
22746W        W38215  10.960   0.897  11.211 -0.3503  0.0500  0.1527
22747W        W38216   8.235  18.106   1.493  0.3549  0.2342  0.0309
22748W        W38217  16.602   3.041   1.261 -0.0924 -0.2499 -0.1699
22749W        W38218  15.894   0.553  12.243 -0.1405  0.2643  0.0417
22750W        W38219   1.208  11.518  13.281  0.1475  0.1401  0.2304
22751W        W38220   2.591   0.842   2.910 -0.3246  0.0734 -0.2079
22752W        W38221  16.959  15.448  15.970 -0.2154 -0.0975  0.1116
22753W        W38222  16.238  14.007  11.846  0.0416  0.1795  0.0687
22754W        W38223   6.872   6.791  15.515  0.0472 -0.1544 -0.0287
22755W        W38224   8.724   5.626   3.851  0.0836 -0.2754  0.0159
22756W        W38225   1.437  12.853   5.978  0.3092 -0.3356 -0.0259
22757W        W38226   9.245  14.665  11.581 -0.2174 -0.0102  0.1055
22758W        W38227   9.410  13.699  12.503  0.0254  0.0861  0.0363
22759W        W38228   5.089  14.893  13.064  0.3964 -0.1961  0.1493
22760W        W38229  13.953  11.571   3.725 -0.2350  0.0520 -0.1816
22761W        W38230   1.986  14.768  11.248  0.1294 -0.1426  0.0734
22762W        W38231   1.164   6.787  16.070  0.0146 -0.0947  0.0157
22763W        W38232  10.037  13.414   2.241 -0.0252 -0.0437 -0.2247
22764W        W38233   9.948   7.735   0.478 -0.0744 -0.2291  0.0542
22765W        W38234  14.990   1.685  15.041 -0.0509  0.3460  0.2204
22766W        W38235  16.709   4.153  13.304  0.1923 -0.1516 -0.1641
22767W        W38236  11.189   7.577   2.311  0.1023  0.0102 -0.0758
22768W        W38237  14.009   4.630   3.331 -0.0058  0.4244 -0.1484
22769W        W38238  15.182   9.774  12.654  0.1800  0.0452 -0.1679
22770W        W38239   7.533  17.366   4.114  0.4980 -0.0736 -0.1767
22771W        W38240   6.162  12.004   3.448  0.2151 -0.1311  0.1737
22772W        W38241   3.354  13.559  11.733 -0.0957  0.3403  0.0410
22773W        W38242  10.525  16.358   0.451 -0.0653 -0.1529 -0.4239
22774W        W38243  12.528  13.935   4.713  0.1077 -0.1604  0.4020
22775W        W38244   6.300   0.748   2.930  0.2606 -0.0489  0.0517
22776W        W38245  16.717   6.985   0.761 -0.0233  0.3251 -0.0620
22777W        W38246  15.622   8.282  10.924  0.0249 -0.3596  0.1732
22778W        W38247  13.292  10.502  13.573 -0.1243 -0.2054 -0.0101
22779W        W38248  10.302  15.193   1.466 -0.2386  0.0028  0.2869
22780W        W38249  14.720   5.695  12.775  0.3024 -0.0331  0.1372
22781W        W38250  18.160  13.426  14.099 -0.2753 -0.0305 -0.1231
22782W        W38251  11.926   1.783  13.589 -0.1300  0.1515  0.2728
22783W        W38252   6.225  14.913  14.943  0.1350 -0.0105  0.3394
22784W        W38253   2.316  16.405   0.203  0.1860 -0.4014  0.1167
22785W        W38254   3.819   4.622   1.967  0.0107 -0.0977 -0.0509
22786W        W38255   5.325  10.491  12.887 -0.2749 -0.2197 -0.1211
22787W        W38256  10.189  16.803   0.498 -0.3577  0.0276  0.0394
22788W        W38257   2.957   1.529   1.075  0.1397 -0.1659  0.0957
22789W        W38258   2.492  17.242   1.578 -0.0870  0.0201  0.1491
22790W        W38259  10.423  16.610   3.225 -0.0090  0.2294  0.0942
22791W        W38260  14.567  13.781  10.258  0.2578  0.1464  0.0011
22792W        W38261   4.006  13.601  10.893  0.4329  0.0318 -0.1426
22793W        W38262  15.398  12.811  14.573  0.1041 -0.3600 -0.2714
22794W        W38263  15.159  12.189  15.774 -0.2121 -0.1088  0.1051
22795W        W38264   0.489   4.854   4.063  0.2059  0.2602 -0.1181
22796W        W38265   8.466   2.057  15.661  0.0294  0.2238 -0.1680
22797W        W38266   4.531   8.110   2.817 -0.0206 -0.1602 -0.2980
22798W        W38267   8.984  15.819  12.668 -0.1597 -0.2829 -0.2765
22799W        W38268  17.605  17.475   0.617 -0.1682  0.0607  0.0210
22800W        W38269  18.002  17.765   1.406 -0.0096  0.0197 -0.2439
22801W        W38270  16.132  10.104   3.241  0.0698 -0.0649  0.4157
22802W        W38271   9.822  16.622   3.307  0.0855 -0.3877 -0.1073
22803W        W38272  13.507   0.964  14.776 -0.3072 -0.1073 -0.2941
22804W        W38273  15.148   7.882   4.203  0.1689 -0.2741  0.1382
22805W        W38274  14.689   6.539  14.057 -0.2761 -0.0065  0.2896
22806W        W38275  12.609   8.180   1.544  0.0541 -0.2770 -0.0407
22807W        W38276  16.064   0.706   4.322 -0.2967  0.0288  0.2117
22808W        W38277  15.965   1.849   1.291 -0.2491 -0.0671 -0.1908
22809W        W38278   7.018  17.283  15.429 -0.2419  0.1525  0.0542
22810W        W38279   8.541   0.832  12.649  0.2982  0.0119  0.0201
22811W        W38280  11.984   0.421  11.223  0.0093 -0.0003 -0.1108
22812W        W38281   7.555   2.532   1.351  0.1270 -0.2612 -0.0283
22813W        W38282   0.014   8.258  12.744  0.2473 -0.1550 -0.1062
22814W        W38283   8.574  14.800  12.797 -0.1230 -0.0522  0.0556
22815W        W38284   6.436   9.263  15.919 -0.0741  0.0189 -0.2296
22816W        W38285   0.597   8.125  14.941  0.1193 -0.0834  0.1384
22817W        W38286  15.845  17.360   1.367 -0.0499  0.0977  0.0480
22818W        W38287  15.602   4.733  13.113  0.1376  0.0231  0.1393
22819W        W38288  11.107   5.098  15.771  0.2836  0.0278  0.0178
22820W        W38289   1.985   9.112   2.633  0.4308 -0.2013 -0.2385
22821W        W38290  13.396   6.927  10.074  0.1931 -0.0232 -0.0425
22822W        W38291  13.953  11.269   2.098  0.0031  0.1729  0.0521
22823W        W38292  12.859  11.396   0.755 -0.0064 -0.1283 -0.0309
22824W        W38293   9.836   3.085   3.944  0.0312 -0.1321 -0.3389
22825W        W38294   7.390   0.076   1.225  0.0888 -0.1822 -0.0820
22826W        W38295   2.554   7.338   4.801  0.3844 -0.2458  0.0553
22827W        W38296   7.042   8.994   1.863 -0.1069 -0.2277  0.0090
22828W        W38297   8.427  12.565  11.397  0.1958 -0.0507  0.0898
22829W        W38298   0.966  15.597   2.031  0.1626  0.1951  0.1827
22830W        W38299   8.962   8.027   0.044  0.0546 -0.0392  0.1509
22831W        W38300  14.700  12.872  11.883 -0.0590  0.1726  0.3259
22832W        W38301  16.603  17.306   1.590  0.0472  0.0749 -0.1050
22833W        W38302  16.290   5.608   5.936  0.0913  0.3513 -0.0736
22834W        W38303   1.477   8.764  13.825  0.1007 -0.0812 -0.2031
22835W        W38304  11.201   5.443   3.578 -0.0638  0.3099 -0.1466
22836W        W38305  14.430   9.107  11.832 -0.1017  0.1324  0.4892
22837W        W38306  17.931   2.635   2.095  0.2425  0.0862  0.1963
22838W        W38307   8.939  12.949  10.900 -0.1393 -0.0166 -0.0570
22839W        W38308  11.651   9.101   1.488  0.1146 -0.2890  0.0384
22840W        W38309   6.531  16.229   0.721 -0.1775  0.3659  0.3189
22841W        W38310  16.440   1.805  11.616 -0.1178  0.1847 -0.2416
22842W        W38311   9.337   5.444  14.133  0.0448 -0.1617  0.2526
22843W        W38312  14.022  16.442  13.479  0.1896 -0.1782  0.0815
22844W        W38313   7.445   8.430   2.474 -0.0752  0.0623  0.1207
22845W        W38314   3.690  10.646  12.290 -0.2937  0.2447  0.0790
22846W        W38315  17.595  17.984  15.357  0.0139  0.3607  0.0901
22847W        W38316  16.795  10.331   3.339  0.1658 -0.0462  0.0236
22848W        W38317  16.643   1.133   1.608 -0.1884  0.0402  0.2608
22849W        W38318   8.257   2.668   2.271  0.0027 -0.1380 -0.1296
22850W        W38319  15.778  17.191   0.717 -0.1773 -0.1428 -0.0797
22851W        W38320  12.139   9.716  14.401 -0.1434  0.1707  0.2422
22852W        W38321  10.873   9.080   0.656 -0.2485 -0.1543 -0.0505
22853W        W38322  10.887   0.765   0.757  0.2237  0.0023  0.1963
22854W        W38323   3.351  14.978   4.228 -0.1619  0.0226 -0.0498
22855W        W38324  17.088   3.775  12.208  0.5937 -0.0935 -0.0782
22856W        W38325  13.996   4.973   2.668 -0.0856 -0.1942  0.0247
22857W        W38326  11.397   5.291  15.435 -0.0737 -0.0932  0.0122
22858W        W38327   4.435  15.489   2.776  0.0728 -0.0983  0.0337
22859W        W38328  15.449  14.584  13.905 -0.0984 -0.1048  0.4144
22860W        W38329  10.741  18.069  13.042  0.0329  0.0187  0.2922
22861W        W38330  17.110   8.110  12.865 -0.1646 -0.1649  0.1032
22862W        W38331   4.465   8.517   1.334  0.0774  0.0654 -0.0687
22863W        W38332  10.742   2.013  12.627  0.0211 -0.1031  0.0681
22864W        W38333  13.794  11.913  14.041  0.2840 -0.0873 -0.2508
22865W        W38334  14.077   1.142   2.316 -0.3978  0.0901  0.0417
22866W        W38335   8.672   8.932   3.095  0.1139 -0.1160  0.3693
22867W        W38336  15.183   6.613   2.867  0.0161  0.0279 -0.1500
22868W        W38337   8.329  17.109   0.658  0.0708  0.2548  0.0591
22869W        W38338  11.063   7.266  15.273 -0.3080  0.0777 -0.0357
22870W        W38339  14.798  11.834  15.861  0.1331  0.0573 -0.8134
22871W        W38340   6.074   1.920  12.461 -0.1662 -0.0466  0.1973
22872W        W38341   5.491   9.375  12.350 -0.0487  0.2930  0.0194
22873W        W38342   8.276   5.213  11.467  0.1147 -0.0821  0.2320
22874W        W38343   8.033  16.197  11.765 -0.1319  0.0044  0.0697
22875W        W38344   2.172  16.984  15.081 -0.2407  0.1356 -0.2801
22876W        W38345   8.391  15.502  11.313  0.2848  0.3916 -0.4189
22877W        W38346   8.551   9.556  13.124 -0.0502 -0.1168  0.0735
22878W        W38347   3.234   3.446  12.514  0.2096  0.1652  0.2540
22879W        W38348  14.957  16.694  13.801  0.0354 -0.1134 -0.0367
22880W        W38349  11.029   3.685   0.769 -0.1733  0.0116  0.1867
22881W        W38350   1.387   6.539   4.686 -0.0076 -0.0786 -0.0106
22882W        W38351   5.301  15.656  11.351 -0.2183 -0.1082  0.0271
22883W        W38352   9.675  14.131   3.282  0.1093 -0.0858 -0.1910
22884W        W38353   4.712   7.499   4.830 -0.4460  0.1452  0.3598
22885W        W38354   2.100  16.354  13.938 -0.0053  0.0059 -0.1354
22886W        W38355  13.716  11.028   3.679  0.0977  0.2442  0.4978
22887W        W38356  17.889   7.277  13.700 -0.1297  0.1541 -0.1989
22888W        W38357  15.399  10.825  11.965 -0.3312 -0.0532 -0.1974
22889W        W38358   2.773   2.802   1.781  0.0277  0.2400 -0.2911
22890W        W38359   5.125  13.397   1.765  0.2039 -0.1335  0.1759
22891W        W38360   1.641   7.007   4.035  0.2054 -0.0719  0.1239
22892W        W38361   5.197  10.835   0.858  0.2096  0.3132  0.1157
22893W        W38362   5.214   5.572   4.882  0.0503 -0.2105  0.1526
22894W        W38363  11.938  14.749  12.229 -0.0860  0.1523 -0.0315
22895W        W38364   2.406  12.041  15.165  0.2232 -0.1517  0.1477
22896W        W38365  12.324  10.385  10.916  0.0617 -0.2503  0.1206
22897W        W38366  11.344   6.254  11.385 -0.2488  0.1874 -0.0412
22898W        W38367   5.602  13.459   1.022  0.2642  0.4064 -0.1066
22899W        W38368  11.136   2.483  11.484  0.1096 -0.0729  0.2277
22900W        W38369  14.451   7.341  14.397  0.0218  0.3160 -0.0649
22901W        W38370   2.383  12.133  16.042 -0.0557  0.0940 -0.2874
22902W        W38371   5.351  14.470  13.835  0.0281  0.0111 -0.0405
22903W        W38372   1.511  15.059   3.635 -0.1525 -0.0630 -0.0535
22904W        W38373  11.779  17.199   1.546 -0.0459 -0.1039  0.0449
22905W        W38374  17.450  12.872   3.783 -0.0695  0.3328  0.1150
22906W        W38375   1.728   6.641   1.166  0.1040  0.0127  0.1792
22907W        W38376   5.819   9.624   5.210 -0.1267  0.0388 -0.2172
22908W        W38377   9.471  16.238  13.313  0.0437  0.0491 -0.1887
22909W        W38378   3.821   3.982   5.806  0.0645  0.0653 -0.1441
22910W        W38379  13.480   0.129   0.690 -0.0067 -0.0906 -0.0857
22911W        W38380   0.637   3.960  11.490 -0.2152  0.0795 -0.2249
22912W        W38381  16.594   4.096   4.496  0.1817  0.0905  0.2614
22913W        W38382  11.811   1.200  14.409  0.1864  0.3345  0.1497
22914W        W38383  13.444   7.726  13.391  0.2042 -0.1110 -0.1572
22915W        W38384   1.789  10.733   2.193  0.1946  0.1379 -0.1535
22916W        W38385   3.209   1.115   1.112 -0.0968  0.3102 -0.0631
22917W        W38386   0.014   9.064   0.330 -0.1066 -0.1066  0.3630
22918W        W38387  13.091  15.768  14.530 -0.1453  0.0148  0.0753
22919W        W38388  15.814   3.560  14.050 -0.1584 -0.2199 -0.4985
22920W        W38389   2.613   9.592   3.363  0.0798  0.0405  0.1051
22921W        W38390  13.177  10.724   2.253  0.0004 -0.1470  0.3073
22922W        W38391  15.575  17.746  10.462  0.1522 -0.2086  0.2752
22923W        W38392  12.210   8.687   9.836  0.0915 -0.6200  0.3102
22924W        W38393   0.853  10.203  15.304 -0.1545  0.0084  0.0786
22925W        W38394  17.423   7.552  13.507  0.1707 -0.2104 -0.3099
22926W        W38395   0.670  16.259  11.942 -0.0451 -0.0250  0.2298
22927W        W38396   6.833  13.449   3.639 -0.0951 -0.1497  0.2682
22928W        W38397  13.025  10.055   1.050  0.1647  0.0160  0.0086
22929W        W38398  12.117  16.526  13.954 -0.2616 -0.1951 -0.1983
22930W        W38399   0.874   2.846  13.297  0.2013 -0.2256  0.0527
22931W        W38400   4.404  15.514   4.230  0.3000 -0.1071  0.3123
22932W        W38401   2.673  15.755   4.279 -0.0655  0.3456 -0.0038
22933W        W38402   2.997  15.245   4.542 -0.1506 -0.2512  0.0304
22934W        W38403  14.145   8.012  10.547  0.1240  0.0211 -0.0183
22935W        W38404   9.942   2.159   5.095  0.2921  0.5991 -0.1670
22936W        W38405  11.101   0.942   5.086  0.1066 -0.0447  0.1540
22937W        W38406  11.910   8.228   4.684 -0.2363 -0.1455 -0.1351
22938W        W38407  17.482   6.005  12.390 -0.2583 -0.1151  0.1374
22939W        W38408   5.766   2.234  14.799  0.0274 -0.0011  0.1078
22940W        W38409   3.105  17.500   5.750 -0.2766 -0.2497 -0.2105
22941W        W38410   6.732  12.174  13.775  0.1838  0.1825 -0.2121
22942W        W38411  16.424   9.215  14.353 -0.0653  0.0243  0.2183
22943W        W38412  14.526  16.878  11.567  0.1067  0.1911 -0.2097
22944W        W38413   6.401   2.972   4.107 -0.0560 -0.0529  0.0252
22945W        W38414   0.377   7.220   3.531 -0.3336 -0.0487 -0.0284
22946W        W38415   2.629  10.289  14.603 -0.0203 -0.0338 -0.0086
22947W        W38416  17.763  14.556  13.478  0.1381 -0.0072 -0.5166
22948W        W38417   0.335  11.424  13.758  0.0256  0.0251 -0.0494
22949W        W38418  18.138   4.304  15.635 -0.2849 -0.3005  0.3261
22950W        W38419  13.100   6.585  12.246 -0.3129 -0.0530  0.1684
22951W        W38420   3.584  12.019   4.517  0.1912 -0.0143  0.1186
22952W        W38421  12.915   2.934   3.515  0.0525 -0.0786  0.1298
22953W        W38422  17.031  13.934   4.329  0.1193  0.0957  0.1224
22954W        W38423  12.404  16.983  11.267 -0.0446 -0.0612 -0.0744
22955W        W38424  12.497   3.694   3.613 -0.0436  0.1580  0.0746
22956W        W38425  12.796  12.505  12.054 -0.0834  0.1868  0.1842
22957W        W38426  11.554   5.231   3.024  0.0849  0.1376 -0.0167
22958W        W38427  15.948   1.292   0.302 -0.2714  0.1634  0.2383
22959W        W38428   1.339  11.541  14.240 -0.0511 -0.4623 -0.1874
22960W        W38429  16.661   2.130   5.996  0.0838  0.1894 -0.0191
22961W        W38430  18.114  18.255   1.289  0.1901 -0.1051  0.0655
22962W        W38431  16.677  14.347   3.017 -0.0994  0.0579 -0.0350
22963W        W38432   7.380  17.469  14.002 -0.2373 -0.1604 -0.0633
22964W        W38433   6.993   9.278  13.449  0.3394 -0.1034 -0.1051
22965W        W38434  17.607   5.366   5.646  0.2311 -0.1420 -0.0847
22966W        W38435   6.057   6.265  13.988 -0.3336  0.1723 -0.1774
22967W        W38436  18.181   6.867   1.498  0.1585 -0.1297 -0.0940
22968W        W38437   1.097   6.979   3.004 -0.3514  0.2572 -0.1805
22969W        W38438   4.040  18.199   1.620  0.1723  0.0872 -0.1153
22970W        W38439  15.601  16.690   0.791 -0.0279  0.1011  0.1236
22971W        W38440   2.181  11.192  11.362 -0.1168  0.0119  0.2562
22972W        W38441   5.654  12.721   4.144  0.3629  0.3474  0.0601
22973W        W38442  14.313   0.788  14.632  0.0411  0.1655  0.0157
22974W        W38443   8.329  10.092  15.506 -0.0974  0.1406  0.0287
22975W        W38444  12.104   4.724  14.632  0.2304 -0.0115 -0.3729
22976W        W38445   0.743   5.840  10.805 -0.1491  0.4425  0.0703
22977W        W38446  10.362  12.701   2.497  0.2625 -0.2115  0.0917
22978W        W38447  17.883  15.346  11.876 -0.0089 -0.0712  0.0870
22979W        W38448  14.245  11.178   4.749  0.2752  0.0330 -0.0384
22980W        W38449  13.183  13.868   1.613  0.1540 -0.2193 -0.0995
22981W        W38450   9.613   9.232   4.282  0.0137  0.3195 -0.1214
22982W        W38451  13.986  13.714   1.164 -0.0286 -0.1137  0.0684
22983W        W38452  15.859   0.087  13.400  0.0027  0.0064 -0.0887
22984W        W38453   5.207   7.434   3.210  0.1704 -0.3897 -0.2023
22985W        W38454   8.126  15.320  15.640  0.0134 -0.2615  0.2046
22986W        W38455  12.283  14.704   3.720  0.1725 -0.0672 -0.0518
22987W        W38456  18.185  16.504   1.856 -0.3108 -0.2070 -0.3494
22988W        W38457  18.251  16.179   3.295 -0.3473  0.1808 -0.2962
22989W        W38458   6.880  12.602   4.875 -0.0270 -0.0879  0.2766
22990W        W38459  12.733   4.931  11.609  0.0791  0.1381  0.1373
22991W        W38460   8.769   1.721  11.859  0.1856  0.1122  0.3383
22992W        W38461   2.520   9.310   0.548 -0.1051 -0.0330 -0.0313
22993W        W38462   0.138   9.153   1.298  0.4633  0.0420  0.1736
22994W        W38463   4.870  17.956   3.124  0.2170 -0.1659  0.0217
22995W        W38464   0.493   1.151   3.551  0.0567  0.5047 -0.0127
22996W        W38465   2.360  12.165  14.373  0.2580  0.1764  0.1133
22997W        W38466   0.414   9.027  12.737 -0.0981 -0.1988  0.1681
22998W        W38467  15.387  12.548   2.180  0.0894 -0.0144  0.2669
22999W        W38468   8.921  17.590   3.686 -0.1885 -0.0218 -0.1164
23000W        W38469  15.214   2.601   0.728  0.1440  0.4508  0.0741
23001W        W38470   4.038   0.758   4.726  0.1613  0.1171 -0.0817
23002W        W38471   6.068  13.627  14.213  0.4505  0.2392 -0.0685
23003W        W38472   4.702   6.949   1.530 -0.0725  0.3429  0.0616
23004W        W38473  16.156  14.415  14.658 -0.0392  0.1271 -0.3343
23005W        W38474   3.499  13.804   0.015 -0.0898 -0.0672 -0.0337
23006W        W38475   0.024  14.077   0.311  0.0660 -0.3884  0.2895
23007W        W38476  11.243   8.311   4.030 -0.0627 -0.1656 -0.0832
23008W        W38477   0.927  10.734  12.189 -0.0359 -0.2160 -0.1450
23009W        W38478   8.987   4.044  13.531  0.0236  0.0924 -0.2400
23010W        W38479   7.946   3.577  11.368 -0.1780 -0.2199 -0.2791
23011W        W38480  11.898  12.943   0.418 -0.0455 -0.0939 -0.3457
23012W        W38481  17.647   6.894   5.030 -0.1793  0.0336  0.1495
23013W        W38482   6.950  16.130  14.827  0.0468 -0.0904 -0.1891
23014W        W38483   0.018   0.564   2.454 -0.1163 -0.0024  0.1684
23015W        W38484   6.210   6.431   4.052 -0.2747 -0.2508 -0.0718
23016W        W38485  13.436   3.515  14.721  0.0531 -0.0002 -0.0882
23017W        W38486  10.314   7.293  13.981  0.0355  0.0909  0.0496
23018W        W38487  16.175   5.102   2.636  0.1567  0.0406  0.1662
23019W        W38488   3.223  17.246   4.627 -0.0465 -0.0589  0.0291
23020W        W38489  13.089  14.974  11.280  0.0771 -0.0605  0.1020
23021W        W38490  15.415   0.706   1.874 -0.1439 -0.0364  0.2279
23022W        W38491  16.138   7.840  15.836 -0.0799  0.3693 -0.0036
23023W        W38492  12.014   4.580  13.459 -0.1619 -0.0412 -0.2197
23024W        W38493   0.774   5.145   2.875 -0.1922  0.2185  0.2049
23025W        W38494   7.159  13.679  12.414  0.0536  0.3378  0.2968
23026W        W38495  17.699   8.591   3.914 -0.1530  0.1178 -0.1230
23027W        W38496   9.130  17.001   0.122 -0.0274 -0.2402  0.2695
23028W        W38497   6.998  13.699  13.577  0.0448  0.2943  0.0379
23029W        W38498  13.062   2.484   3.707 -0.0619  0.0514 -0.1913
23030W        W38499  15.711   6.823  11.291  0.1668  0.1186 -0.1510
23031W        W38500  12.168  17.272  14.680  0.1132  0.3825  0.0445
23032W        W38501   4.594   7.461   4.297 -0.0443  0.2442 -0.0038
23033W        W38502   7.500   9.717   0.346 -0.0825 -0.5032 -0.2823
23034W        W38503  11.508   2.448   6.036  0.0770  0.2363 -0.3088
23035W        W38504  16.055   2.036  11.334 -0.0513  0.1928 -0.1603
23036W        W38505   8.364   7.549  15.143 -0.3664 -0.3997 -0.0566
23037W        W38506  16.507  12.663  14.535  0.0055  0.1449  0.1620
23038W        W38507   1.649   6.633   0.029  0.1113 -0.3838  0.0334
23039W        W38508   6.789  13.361  13.911  0.2466  0.2358  0.0056
23040W        W38509   4.997   2.172   4.241  0.0208  0.1012  0.2830
23041W        W38510   6.543   2.109  12.226 -0.0230  0.1371 -0.1939
23042W        W38511   1.959   2.593   2.954 -0.0979  0.0491 -0.1555
23043W        W38512  11.275  11.050  15.339  0.0473  0.1476 -0.2495
23044W        W38513  13.650  10.730   3.259 -0.1933  0.0371  0.0378
23045W        W38514  13.337   7.953   1.251  0.1005 -0.2508 -0.2000
23046W        W38515  15.324  16.607   5.276  0.3761 -0.1453  0.1451
23047W        W38516  10.711   3.837  13.810 -0.0875 -0.1001  0.0594
23048W        W38517  13.173   6.344  14.336 -0.2057  0.4445 -0.1273
23049W        W38518  13.482  17.048   0.165 -0.0488 -0.1790 -0.1526
23050W        W38519  10.249  12.253   2.276  0.2156 -0.3490  0.0563
23051W        W38520   4.217   2.874  14.562 -0.1156  0.2985  0.1851
23052W        W38521  14.376   7.418   3.969  0.0004 -0.0999  0.1629
23053W        W38522   3.306   9.582   3.009  0.1612  0.1013  0.0927
23054W        W38523   3.697  15.432   0.651  0.1599  0.0038 -0.1198
23055W        W38524  10.658   6.123   5.080  0.3308 -0.0783 -0.0088
23056W        W38525  14.002  16.625  15.824 -0.2667  0.1211 -0.0318
23057W        W38526   0.654  15.971  10.626 -0.0655  0.2405  0.1083
23058W        W38527  13.026  17.364   3.031 -0.0781  0.1510  0.0889
23059W        W38528  11.861  12.111  10.988  0.1142 -0.0513 -0.0532
23060W        W38529  11.408   8.065   4.764 -0.0839 -0.1429 -0.0642
23061W        W38530   8.799   2.517   3.089  0.0737  0.0445 -0.2363
23062W        W38531  11.933  17.948   3.236  0.0639 -0.1571  0.1522
23063W        W38532  14.080   0.688   1.133 -0.0885  0.1170  0.4637
23064W        W38533   0.393   4.051  13.718  0.2519  0.0371  0.1355
23065W        W38534  15.779  11.395   1.261  0.2364 -0.3648  0.1604
23066W        W38535  16.078  11.227   4.873 -0.1386  0.0685  0.0843
23067W        W38536   2.133  18.079  13.505 -0.1706 -0.1924 -0.1429
23068W        W38537   7.526   1.511  15.186  0.1601 -0.1462 -0.0660
23069W        W38538  11.406  16.700  13.797  0.0354  0.1199  0.0483
23070W        W38539   8.694  18.227  15.140 -0.2307  0.0175  0.1182
23071W        W38540   9.843  14.296   2.300 -0.2009  0.0874  0.1352
23072W        W38541   8.366   5.005  14.336  0.1766 -0.0047 -0.1892
23073W        W38542  18.116   8.754   1.218  0.0447  0.0551  0.1240
23074W        W38543   3.649   2.355  11.174 -0.1059 -0.3131  0.0663
23075W        W38544   5.789  17.011   2.853 -0.1845  0.0518 -0.0224
23076W        W38545   1.613   1.939  14.851 -0.1007  0.2612 -0.0218
23077W        W38546  14.207  13.003  12.032  0.1304 -0.0835 -0.0934
23078W        W38547  15.015  10.394   4.113  0.1788 -0.2121 -0.0161
23079W        W38548   9.638  13.025   0.899  0.0969 -0.1149 -0.2126
23080W        W38549  12.633   8.854  10.774  0.1378  0.0037 -0.0114
23081W        W38550  16.789  15.899  12.172 -0.0952  0.1154 -0.4293
23082W        W38551   1.962  14.070  13.201  0.0234  0.3401  0.1686
23083W        W38552   6.715  16.780  10.836  0.1706 -0.2563 -0.1628
23084W        W38553   2.499   6.435   3.194 -0.1776 -0.3929 -0.0023
23085W        W38554  15.928  14.823   5.133 -0.0478  0.2373 -0.5326
23086W        W38555   4.672   4.972  12.352 -0.0761 -0.0770 -0.0197
23087W        W38556  15.391  12.476  15.408 -0.2419  0.2730 -0.0358
23088W        W38557   3.588  13.909  10.943 -0.1984 -0.1171  0.0187
23089W        W38558  12.701   9.896  12.674  0.0319 -0.2180  0.2931
23090W        W38559   8.286   1.468   0.636  0.1324  0.0746 -0.0241
23091W        W38560  13.216  12.972   2.252  0.1416 -0.1604  0.1971
23092W        W38561   1.003   6.697  14.706 -0.0813 -0.3512  0.2856
23093W        W38562  16.338  17.844   3.933  0.1917  0.1768 -0.0970
23094W        W38563   1.366  15.285   1.829  0.0373  0.0825  0.1039
23095W        W38564  13.598  14.219   2.511  0.2763  0.1501 -0.3405
23096W        W38565   9.657  10.712   5.785  0.1738 -0.1316  0.0345
23097W        W38566   6.729   4.070   3.182 -0.0908 -0.0252  0.1702
23098W        W38567   6.176   7.770   5.083 -0.0859  0.1014  0.3361
23099W        W38568  16.183   5.880   0.164 -0.1272  0.2644 -0.3389
23100W        W38569  18.291   8.479  13.232 -0.1692  0.1790  0.1056
23101W        W38570  12.597  15.235  10.784 -0.1841 -0.0975 -0.3565
23102W        W38571  15.336   7.406  12.442 -0.0463 -0.0335 -0.1945
23103W        W38572   3.252  15.527   4.871  0.0218 -0.5201  0.1709
23104W        W38573   9.606  11.840   4.704 -0.0413 -0.1513  0.0019
23105W        W38574  16.304   8.911   5.406  0.0290  0.1276  0.0330
23106W        W38575   4.567  16.903  14.587 -0.3200 -0.1539 -0.1112
23107W        W38576   7.115   1.763   3.349 -0.2719 -0.1179 -0.1597
23108W        W38577  12.221  13.108  11.638 -0.0514 -0.3022  0.0247
23109W        W38578  16.687   5.567   4.213 -0.0268  0.0574  0.0339
23110W        W38579   0.089   9.409  11.671  0.1161 -0.0461 -0.1122
23111W        W38580  14.163  11.790  11.909 -0.0038 -0.0325  0.3031
23112W        W38581  16.015  11.073  10.812 -0.0894 -0.1550  0.0625
23113W        W38582  11.956   3.291   4.034 -0.1604  0.3387 -0.0612
23114W        W38583   5.719   1.395  15.285  0.0623 -0.1360  0.1215
23115W        W38584  13.330   3.305   1.011  0.0087  0.0251 -0.0854
23116W        W38585  17.693   9.115  15.637  0.3145  0.2962  0.2293
23117W        W38586  10.954   9.213   3.746 -0.0545  0.1788 -0.2726
23118W        W38587  10.358  15.475   2.222 -0.1270 -0.2717  0.0196
23119W        W38588   4.659   9.661   0.641 -0.0724  0.0758  0.0209
23120W        W38589   0.164  11.644   3.223 -0.1509  0.0605  0.2496
23121W        W38590   8.567   4.192  13.259  0.2387  0.2047 -0.0324
23122W        W38591   5.436  12.667   3.015  0.2063 -0.1952  0.0487
23123W        W38592   8.397   0.117   2.536 -0.1760 -0.1770 -0.0698
23124W        W38593   8.499   4.466   3.234 -0.1604  0.0818 -0.1778
23125W        W38594   9.494   0.733   2.641  0.1793  0.0113  0.5514
23126W        W38595  11.756  17.171   4.973  0.0950  0.0424 -0.1299
23127W        W38596  18.236   2.783   2.481  0.0810 -0.1477 -0.2409
23128W        W38597   0.998   8.680   5.637  0.4199 -0.0406  0.0374
23129W        W38598   7.461  18.087  14.235  0.0670  0.1022  0.0618
23130W        W38599  14.116   6.623  12.728  0.1137  0.1379 -0.0073
23131W        W38600   3.976  16.867   4.999 -0.1170 -0.0124  0.1417
23132W        W38601   2.062  10.335   1.486  0.4005  0.1484  0.0958
23133W        W38602   1.413  12.314  10.104 -0.1718 -0.0565 -0.3509
23134W        W38603  15.606  15.771  12.630 -0.0192  0.1576 -0.1521
23135W        W38604  15.314   3.689  14.383 -0.0364  0.0158  0.7152
23136W        W38605   5.652  13.730  12.411  0.3545  0.2558 -0.0700
23137W        W38606  13.120  11.562   2.986  0.0934 -0.1198 -0.0835
23138W        W38607  13.722  10.038  12.576 -0.3086 -0.0019 -0.2239
23139W        W38608  10.308  12.600  14.955 -0.1247  0.1120  0.0463
23140W        W38609  15.160  14.057  11.900  0.2682  0.0371 -0.0666
23141W        W38610  15.813  11.465  16.050  0.3814 -0.0287  0.0174
23142W        W38611   3.546   0.950  10.788 -0.0045 -0.0559  0.1083
23143W        W38612   3.027   5.869  14.393  0.0836  0.0207 -0.2844
23144W        W38613   8.225   5.308  11.933  0.0572  0.3755  0.0658
23145W        W38614   9.240  11.073  12.206 -0.3396 -0.0113 -0.3222
23146W        W38615  12.643   3.046   2.825  0.1115  0.0361  0.0318
23147W        W38616   0.123   4.144  13.218  0.0013 -0.0673 -0.0212
23148W        W38617   0.040   6.372   1.153  0.0349 -0.0245  0.0545
23149W        W38618  15.593  15.635  11.445 -0.0771  0.1364 -0.0291
23150W        W38619  16.969  14.241   1.787 -0.2065  0.3454 -0.3201
23151W        W38620   4.480   1.953   2.232 -0.3051 -0.0685  0.2466
23152W        W38621   9.926  17.255  11.186  0.1187  0.2495 -0.1224
23153W        W38622   2.824  10.768  13.354 -0.0346 -0.0862 -0.0044
23154W        W38623  17.276   8.674   1.926 -0.1012 -0.2101 -0.2636
23155W        W38624  16.320   6.540  13.732 -0.0617 -0.2975 -0.2203
23156W        W38625  14.432  14.629   0.321  0.2179 -0.2249 -0.0659
23157W        W38626   3.836  14.798  12.172 -0.1251 -0.2776 -0.0202
23158W        W38627  15.970   1.642   1.819  0.0914  0.2029 -0.3194
23159W        W38628   2.452   8.782   0.486  0.3430  0.1046 -0.0702
23160W        W38629  14.749  14.589  14.461  0.0276  0.0425  0.1649
23161W        W38630  10.493  14.463  11.569 -0.1039 -0.1260 -0.1568
23162W        W38631   5.229   2.881   0.827 -0.5051  0.1193 -0.0681
23163W        W38632   4.839   5.554   1.420 -0.0648  0.2243 -0.0186
23164W        W38633   9.882   6.643   2.046 -0.0858 -0.0427  0.0594
23165W        W38634   4.848  15.823   4.969 -0.3635  0.2658  0.0018
23166W        W38635   1.493   5.221   1.491 -0.3187  0.1886 -0.0443
23167W        W38636  11.204   5.623  15.779 -0.2323  0.0646  0.1388
23168W        W38637  12.051  11.197  10.733  0.0500  0.1672  0.0295
23169W        W38638  15.148   4.855   3.754  0.0112  0.2306  0.1491
23170W        W38639   8.175  15.808  14.995 -0.2241  0.0113  0.0606
23171W        W38640   4.501   4.334  13.090 -0.3642 -0.1218 -0.0815
23172W        W38641  11.580  10.698   1.261  0.4137  0.1841 -0.0447
23173W        W38642   5.642  16.112  15.349  0.0502 -0.1495 -0.0546
23174W        W38643  10.872  12.237  13.726 -0.3942  0.0504  0.1641
23175W        W38644   5.341  10.990   4.950  0.1112 -0.0734  0.3737
23176W        W38645   5.982  14.362   2.679 -0.0610 -0.1150 -0.0416
23177W        W38646  11.271  13.659   1.844  0.1497  0.0437 -0.0725
23178W        W38647  13.685  14.077  12.371  0.1835 -0.1120 -0.1505
23179W        W38648   6.565   0.801   3.747 -0.1581 -0.2053 -0.0758
23180W        W38649   1.853   9.161  15.439  0.2317 -0.1523  0.0618
23181W        W38650   0.587  17.572  13.419  0.1536 -0.2311  0.2013
23182W        W38651   2.279  12.883  13.195  0.0909 -0.0101 -0.1768
23183W        W38652   3.272   9.727  15.912  0.0134  0.2398  0.0386
23184W        W38653   0.721   8.131  11.992 -0.0396 -0.2452  0.2115
23185W        W38654   5.050   3.995   0.623  0.1224 -0.3117  0.1788
23186W        W38655  10.885   0.346   3.532  0.0819 -0.0064  0.2283
23187W        W38656  10.998   7.271   4.998 -0.0137  0.2112  0.1144
23188W        W38657   1.821  15.641  13.160 -0.0219 -0.3005 -0.1584
23189W        W38658  10.868   0.084  15.252  0.0581  0.1273  0.0395
23190W        W38659  13.119  10.668   0.850 -0.0158  0.0107 -0.1072
23191W        W38660  12.852   4.466   1.010  0.3141  0.3053 -0.0181
23192W        W38661  14.977  14.251   5.073  0.0315  0.1067  0.0174
23193W        W38662   3.824  10.547   3.119  0.3395  0.0138 -0.1589
23194W        W38663  16.817  15.508  13.747 -0.2486  0.2319  0.2776
23195W        W38664   5.704  13.105   2.817 -0.0078 -0.0869  0.1402
23196W        W38665  17.664   2.301   3.569 -0.0031  0.1101 -0.1904
23197W        W38666   5.274  12.889  10.670 -0.0891  0.4664  0.2505
23198W        W38667  14.846   2.368   3.030  0.0728  0.4046  0.0230
23199W        W38668  14.635   4.616   0.765  0.2664 -0.0645  0.2360
23200W        W38669  15.100   9.090   5.772  0.1644  0.3246 -0.2858
23201W        W38670  16.895  12.919  15.987  0.0723  0.1938 -0.0886
23202W        W38671  10.465   7.975   2.931  0.1713  0.0361  0.0309
23203W        W38672   5.146   7.812   3.561 -0.3335  0.2725  0.0494
23204W        W38673  13.356   7.463   5.609  0.0552  0.1509 -0.1070
23205W        W38674  15.450   1.886   3.258  0.5062 -0.0463 -0.0478
23206W        W38675  14.262  14.840  15.152  0.0577 -0.0549  0.1746
23207W        W38676   9.690  12.612  14.168 -0.0326 -0.0440  0.0757
23208W        W38677   8.658   5.127   3.683  0.3211  0.1375 -0.3926
23209W        W38678  10.254   5.787   3.118 -0.0580  0.0869  0.2898
23210W        W38679   5.535  16.238   4.244 -0.2551 -0.0600 -0.2997
23211W        W38680  13.803  11.720  12.238 -0.0396  0.2975 -0.0371
23212W        W38681  12.883   0.047  12.843  0.0095 -0.1383  0.0607
23213W        W38682   5.841  12.316   2.187 -0.2701  0.1556 -0.0897
23214W        W38683   2.211   9.072   1.497 -0.0122  0.0481 -0.0737
23215W        W38684   6.517   8.537  12.048 -0.2548  0.0524 -0.3310
23216W        W38685  10.226  13.822  13.163 -0.0851 -0.2280 -0.1007
23217W        W38686   2.316   7.920  13.251 -0.0406  0.4067 -0.1230
23218W        W38687  13.286   3.569  11.324 -0.1646  0.2772  0.0431
23219W        W38688  17.086   9.714   1.537  0.4645 -0.3397  0.0996
23220W        W38689  12.906   7.933  12.522  0.2455  0.1335  0.3256
23221W        W38690   8.905  14.093  15.521  0.1493  0.0181 -0.1716
23222W        W38691  12.618   8.134   5.456 -0.1538 -0.2432  0.1261
23223W        W38692   0.604  14.170  11.522  0.1446 -0.0491 -0.0216
23224W        W38693  17.610  10.986   3.940  0.0844 -0.0275  0.2756
23225W        W38694   3.523  15.401   4.442 -0.0138  0.0182  0.1545
23226W        W38695   4.841   8.309  13.025  0.2222  0.1222  0.1544
23227W        W38696  17.746  16.593   3.834 -0.0781  0.1595 -0.1586
23228W        W38697  13.610  13.036  15.038  0.2910 -0.1582  0.0281
23229W        W38698  12.771  10.624  15.889  0.0257  0.0062  0.1890
23230W        W38699  10.864   0.928  12.261 -0.1654  0.4362  0.3919
23231W        W38700  12.080  12.265  11.484  0.1314  0.0154 -0.2647
23232W        W38701  10.169   7.688   3.494 -0.0948 -0.1783  0.0232
23233W        W38702   9.264  10.859   3.337 -0.0519 -0.0289 -0.2481
23234W        W38703   5.559   6.178  14.935  0.1649  0.1710  0.1437
23235W        W38704   6.562   7.356  14.704  0.3308  0.0010  0.0352
23236W        W38705   8.464  15.250  10.668  0.3701  0.0234  0.0479
23237W        W38706  12.409  11.980   4.680  0.0046 -0.0835  0.2038
23238W        W38707   3.957  10.283  13.116  0.2599  0.2186  0.1565
23239W        W38708  16.067  14.290   3.265 -0.0098 -0.1087 -0.0391
23240W        W38709  15.502   3.470   0.326 -0.1535  0.1632  0.0445
23241W        W38710  13.519  16.753  13.178 -0.0637 -0.0433  0.3220
23242W        W38711  12.791   0.286   2.948  0.0100  0.1415 -0.0116
23243W        W38712  10.994  18.147   2.319  0.1487  0.0865 -0.0713
23244W        W38713   7.208  14.160  14.997  0.3830 -0.0467  0.0342
23245W        W38714   6.478  16.758   4.530 -0.1983 -0.1996  0.1775
23246W        W38715   7.159  18.223  16.126  0.1534  0.0798 -0.3259
23247W        W38716   6.943  12.100   5.088 -0.0786  0.1281 -0.0050
23248W        W38717   7.334   9.004  13.307  0.0393 -0.0936 -0.2271
23249W        W38718   0.211  17.991   2.497 -0.0998  0.0566 -0.4283
23250W        W38719   6.949  12.835   0.426  0.2975  0.0595  0.0322
23251W        W38720  17.534   9.386  16.098 -0.1233 -0.1825 -0.1097
23252W        W38721   6.143   0.603  13.423 -0.1715 -0.0183 -0.2128
23253W        W38722  11.322   0.713   2.345  0.0994  0.3162  0.0409
23254W        W38723   0.002  14.156   4.675 -0.2457 -0.0044 -0.1616
23255W        W38724   8.216  12.491  14.949 -0.0310 -0.3053 -0.3329
23256W        W38725   5.165   5.062  11.605  0.1373  0.3656 -0.1642
23257W        W38726  15.979   4.741  11.321 -0.1178  0.1948 -0.1260
23258W        W38727  10.869   4.688  15.046  0.0686  0.1758  0.0988
23259W        W38728  17.994   2.663  14.751  0.1679  0.0304  0.2124
23260W        W38729   0.121  17.482   1.691  0.1698 -0.0109  0.0939
23261W        W38730  10.128  15.045   6.093  0.1012  0.1640 -0.0724
23262W        W38731   4.221   6.064   2.986 -0.0488  0.0643  0.0229
23263W        W38732   4.698   5.185   0.602 -0.0021  0.2027 -0.2921
23264W        W38733  13.262  13.149  14.148  0.2785 -0.0439 -0.1953
23265W        W38734  10.583  12.249  11.734  0.0635  0.0771 -0.2558
23266W        W38735   3.936   5.295   4.573  0.3633 -0.2318  0.1506
23267W        W38736   0.096  17.363   3.490  0.1362  0.1482  0.0766
23268W        W38737   4.134  17.541   4.851  0.1344 -0.4729  0.0561
23269W        W38738   5.491   8.533  11.878 -0.2619 -0.0177  0.2658
23270W        W38739   9.194  14.576  13.910 -0.0693  0.0208 -0.2868
23271W        W38740   2.056  16.755   2.509  0.0661  0.1252  0.1061
23272W        W38741  13.404   2.091   0.296  0.1637 -0.0792 -0.1698
23273W        W38742  10.754   2.531  12.743 -0.1187 -0.0879  0.0855
23274W        W38743   3.179   9.082  12.449  0.1205  0.1295 -0.0783
23275W        W38744  11.205  14.468   1.417  0.2274 -0.2937 -0.2698
23276W        W38745   4.701  13.171   1.866 -0.2308  0.1890  0.2167
23277W        W38746   4.243   1.336   0.636  0.0078  0.2811  0.0858
23278W        W38747  17.032   3.603  13.579  0.1638 -0.5286  0.0097
23279W        W38748  14.156  10.209   4.684  0.0219  0.1340 -0.1919
23280W        W38749  15.736  17.301  12.279  0.2753 -0.2505  0.1284
23281W        W38750   0.944  15.464   4.426  0.0907 -0.0941 -0.2926
23282W        W38751  15.706   5.841   0.175  0.4122  0.2664  0.0708
23283W        W38752  13.260   1.473  15.481 -0.0381  0.0512 -0.1363
23284W        W38753   2.489   4.422   1.856  0.4395  0.0248 -0.1153
23285W        W38754  10.064   9.813   2.634 -0.1059  0.3612  0.0872
23286W        W38755  10.932  17.490   0.406 -0.1012  0.2727 -0.0893
23287W        W38756  11.362  15.708  15.257  0.2296 -0.0578 -0.1586
23288W        W38757   6.791   3.814   0.275 -0.2168  0.1766 -0.1993
23289W        W38758   0.405   4.889   2.606  0.0819  0.3300 -0.0629
23290W        W38759   8.034   0.964  16.174  0.1704 -0.1291 -0.1690
23291W        W38760   2.592  11.929   1.273  0.3056 -0.0880 -0.2090
23292W        W38761  11.435   9.483   2.954 -0.3834  0.1883 -0.0740
23293W        W38762  10.215  10.365  16.149 -0.4222  0.0170 -0.0147
23294W        W38763  16.434   0.675  13.876  0.2507 -0.3165 -0.0126
23295W        W38764  10.605  15.826  13.178 -0.1121  0.1986  0.2168
23296W        W38765   5.595   6.243   3.189  0.3572  0.3380 -0.1291
23297W        W38766   1.069   4.950  12.128 -0.1218 -0.1979 -0.0182
23298W        W38767   7.298  14.799  15.652  0.2852 -0.2055  0.0379
23299W        W38768  12.384   8.250   3.904  0.0551 -0.3614  0.2666
23300W        W38769   2.670  10.553   4.709  0.1691  0.2562 -0.2632
23301W        W38770   2.734  13.064   4.643 -0.1200 -0.0126 -0.1879
23302W        W38771  16.227  11.774  12.990  0.2013 -0.0222  0.2185
23303W        W38772   6.316  13.023  10.212 -0.1679 -0.1465  0.0211
23304W        W38773  17.285   3.589   1.425  0.2207  0.1417  0.2649
23305W        W38774  15.681  12.904  15.496 -0.0761 -0.2149  0.3358
23306W        W38775  17.896  12.139   4.874  0.0682  0.2479 -0.0636
23307W        W38776   0.309  10.219   3.886 -0.4451  0.0776 -0.0801
23308W        W38777   4.970   0.710  12.780  0.2129  0.1550 -0.0152
23309W        W38778  11.777   3.043  12.753 -0.1968  0.0888 -0.4990
23310W        W38779   7.176   5.385   2.255 -0.1985 -0.0413 -0.1206
23311W        W38780   3.378   2.150  13.736  0.0779  0.2570 -0.1496
23312W        W38781   6.657   9.000   1.021  0.0257  0.1724 -0.2185
23313W        W38782  17.155  12.901  15.068 -0.0892  0.1094 -0.0025
23314W        W38783  14.440   7.052  11.560  0.0090 -0.0307 -0.1283
23315W        W38784  13.989   9.573   3.555  0.0447  0.0069 -0.1158
23316W        W38785  10.132   0.763   4.083 -0.0526 -0.0550  0.1686
23317W        W38786   0.721   3.425  11.039 -0.0290 -0.1466  0.3377
23318W        W38787   0.586  10.743  14.289  0.0927 -0.2464 -0.1213
23319W        W38788   4.237  10.210   5.709  0.0330 -0.1861 -0.1151
23320W        W38789  13.795  13.467  13.332 -0.1402 -0.3415 -0.2891
23321W        W38790   6.937   0.579   2.369 -0.1635  0.0374  0.1027
23322W        W38791   3.283  14.323  10.956 -0.0105  0.1022 -0.0949
23323W        W38792   7.240   2.373  13.305  0.1260  0.1072 -0.1000
23324W        W38793   0.676   2.625  15.774 -0.0632 -0.1038  0.1754
23325W        W38794  10.224   8.694  14.664  0.2822 -0.1004 -0.2961
23326W        W38795   9.437   5.286   4.987 -0.0046  0.1625  0.3265
23327W        W38796   5.708   5.661  15.691 -0.0105 -0.1098 -0.0299
23328W        W38797  12.737  11.606  10.001 -0.1779  0.0573 -0.0644
23329W        W38798  10.723  13.872  13.036  0.1003 -0.1563 -0.0615
23330W        W38799   1.288  10.274  11.966  0.0811 -0.4786  0.1578
23331W        W38800   1.957  16.237   4.966 -0.1992 -0.1289  0.1887
23332W        W38801  13.647  12.523   5.451 -0.3349  0.1255  0.0740
23333W        W38802  11.852   4.077  14.315 -0.0416 -0.1008  0.1192
23334W        W38803  17.595  12.179  15.278  0.0990  0.2413  0.2640
23335W        W38804   3.358   9.626   0.986 -0.1070  0.1966  0.2439
23336W        W38805   3.666   1.881  12.525  0.3314 -0.1746 -0.1032
23337W        W38806  14.288  15.850  11.842 -0.0007  0.1827  0.2480
23338W        W38807  16.781   9.359   2.360  0.0960  0.1815 -0.1435
23339W        W38808  16.164   7.566   1.685  0.0576 -0.0733  0.1834
23340W        W38809   2.919   9.314  11.382 -0.1515  0.0605  0.1881
23341W        W38810  11.083  12.965   3.334 -0.3081  0.3438  0.0962
23342W        W38811   9.673   5.673   4.286  0.1974 -0.1785 -0.3562
23343W        W38812   8.084   1.766  15.511  0.4103  0.2274 -0.3545
23344W        W38813   0.488  17.156  15.140 -0.0959  0.0948 -0.0452
23345W        W38814   0.452   0.988  13.486  0.3222 -0.3130 -0.4272
23346W        W38815   8.742   6.135  13.825  0.0539  0.1322 -0.2672
23347W        W38816   5.334   9.538   3.994  0.3933 -0.0063  0.0115
23348W        W38817   2.133   6.617   2.442  0.3418 -0.1186 -0.2842
23349W        W38818  15.784   2.264  10.899 -0.1076  0.0757  0.0807
23350W        W38819   2.388   3.709   3.645  0.1673  0.1354  0.0168
23351W        W38820   7.698   9.445  12.562  0.0539 -0.1518  0.0697
23352W        W38821   2.407  10.335   0.063  0.2549  0.2787  0.0720
23353W        W38822   3.101  10.207   4.645  0.0465  0.0088 -0.1251
23354W        W38823  14.968   2.721   1.239 -0.0791  0.1925 -0.0021
23355W        W38824  15.756   9.189   3.969 -0.0448 -0.0246 -0.1154
23356W        W38825   5.741  11.914  11.324  0.0643  0.0206 -0.1884
23357W        W38826   0.797  11.062   1.641  0.0224 -0.0263 -0.1077
23358W        W38827  12.903  15.965   2.664 -0.0440  0.2536 -0.3161
23359W        W38828  14.630  10.128  14.784 -0.2280  0.2536 -0.0374
23360W        W38829  12.029   3.966   2.574 -0.1094 -0.0060 -0.1189
23361W        W38830   0.583  14.654   2.378 -0.1541 -0.0323 -0.0054
23362W        W38831   5.975  13.796  15.886  0.2814  0.0398  0.0417
23363W        W38832   2.556   4.113  13.689  0.2925  0.2044 -0.1407
23364W        W38833   7.084  11.128  11.993  0.2463  0.2359 -0.0883
23365W        W38834  13.724  11.556  11.789 -0.2311  0.0244  0.2843
23366W        W38835  16.710  16.284   0.889 -0.0107  0.2263 -0.1553
23367W        W38836   6.682   9.746  15.849  0.1989  0.0385  0.2868
23368W        W38837   5.683   8.945  12.027  0.1653 -0.0291  0.0573
23369W        W38838   4.646   5.740  12.939 -0.0235 -0.3094 -0.1135
23370W        W38839   9.160   9.783   3.343  0.2325  0.1072  0.1395
23371W        W38840   1.465  10.922   3.604  0.1015  0.2703 -0.2189
23372W        W38841  11.613   6.326   3.462  0.2061 -0.2817 -0.1920
23373W        W38842   7.458  17.510  12.922 -0.0076  0.1191  0.1232
23374W        W38843   4.094   7.965   0.753  0.2600  0.1121 -0.1161
23375W        W38844  14.222   6.128  12.574  0.0799  0.2440  0.0882
23376W        W38845   5.738  10.790   0.971 -0.2633 -0.1031 -0.0518
23377W        W38846   9.929  12.781   1.230 -0.0573 -0.0481 -0.2381
23378W        W38847   4.968  11.870   3.016  0.0269 -0.3973 -0.1633
23379W        W38848   2.475  10.314  15.170 -0.3866  0.0131 -0.2544
23380W        W38849  10.484   0.563  15.888  0.1363 -0.1726  0.0795
23381W        W38850  17.084   1.357  12.431 -0.3969  0.2771 -0.2689
23382W        W38851  15.104   7.692   4.662 -0.0518  0.0347 -0.1358
23383W        W38852  11.586  13.466  15.265 -0.1768 -0.0780 -0.0818
23384W        W38853  17.205  16.729   2.034  0.2170  0.0203 -0.0978
23385W        W38854   9.523  16.006   0.705 -0.0143  0.2575 -0.0276
23386W        W38855  13.373   3.805  10.807 -0.1471  0.0572  0.1787
23387W        W38856  14.605  10.520   0.108 -0.0367  0.0174  0.0847
23388W        W38857  13.727   3.682  15.091  0.1406 -0.0183 -0.1174
23389W        W38858  13.593   4.249   1.063  0.2687 -0.1545 -0.2370
23390W        W38859  14.158  16.958  12.032 -0.2395 -0.0547  0.1446
23391W        W38860  12.759  14.661   2.618  0.0062  0.3184  0.1635
23392W        W38861  10.608  10.973  14.024 -0.1740  0.3787 -0.0162
23393W        W38862  11.095  11.921   0.984  0.1177  0.2196 -0.0882
23394W        W38863   5.718  15.112  11.308  0.0091  0.0856 -0.0444
23395W        W38864  10.157   0.538  14.354 -0.0676  0.2381  0.0643
23396W        W38865   9.919   9.577   4.498  0.1315  0.0023 -0.1364
23397W        W38866   9.511  17.592   2.855  0.0693  0.1278  0.1721
23398W        W38867   2.881  14.613  11.206  0.0501 -0.0137  0.0102
23399W        W38868  16.997   0.560   6.444  0.0258 -0.0345  0.1485
23400W        W38869  13.781   9.601   2.708  0.1407  0.0465  0.1068
23401W        W38870   0.836  12.013  13.503 -0.0202 -0.0059  0.0963
23402W        W38871   9.893   2.990  12.773 -0.3251  0.0762 -0.4437
23403W        W38872  14.504  13.060   1.286  0.1944  0.3551 -0.1370
23404W        W38873  11.350  16.711   0.476 -0.1325 -0.1193  0.1916
23405W        W38874  12.213  14.635  13.332  0.0596  0.4846 -0.1278
23406W        W38875   9.262  13.193  11.483 -0.0634 -0.3014 -0.0277
23407W        W38876   5.313  13.998  13.864 -0.2944  0.3591  0.0402
23408W        W38877   1.976   1.001  11.615  0.2372 -0.0586 -0.0112
23409W        W38878   1.775   6.568  12.119 -0.3189  0.2170  0.1522
23410W        W38879  14.886  17.554   4.963  0.3132  0.1236  0.1916
23411W        W38880  10.633  13.304  11.045  0.0136  0.1588  0.0242
23412W        W38881  16.181   9.548  15.643 -0.0346 -0.1362 -0.4995
23413W        W38882  17.178   8.958   5.189 -0.0199 -0.0342 -0.0064
23414W        W38883   7.636   9.433   3.398  0.1503 -0.2170 -0.2736
23415W        W38884  15.048   8.541   4.938 -0.0164 -0.0227 -0.0017
23416W        W38885   1.039   0.834   2.832  0.1674 -0.1034  0.1858
23417W        W38886  14.242  13.589  14.622 -0.3381 -0.4756  0.1698
23418W        W38887  13.293   8.189  10.840 -0.0268  0.0805 -0.0695
23419W        W38888   9.819  17.263   1.282 -0.2959 -0.0162  0.0807
23420W        W38889  16.589  13.831  12.802 -0.2058  0.0945 -0.2655
23421W        W38890  11.965  16.133   2.072  0.0105 -0.0590  0.0399
23422W        W38891   2.846   2.338   0.692  0.0994 -0.1983 -0.0198
23423W        W38892  12.579   0.813   3.095  0.0984  0.1641  0.0962
23424W        W38893  10.183   6.733  13.852  0.0298  0.0296 -0.3489
23425W        W38894   1.559   7.178   2.556  0.2654  0.0564  0.2641
23426W        W38895  17.487  11.591   5.634  0.1298  0.0601  0.1235
23427W        W38896  12.040  15.150   3.694  0.1357 -0.1377  0.1522
23428W        W38897   3.985  11.545  15.375 -0.0704  0.1511 -0.1331
23429W        W38898   7.241  15.821   3.123  0.1175  0.0625  0.2060
23430W        W38899  14.179  12.941  12.821  0.0144  0.0006  0.1083
23431W        W38900  11.898   9.907  12.425 -0.0445  0.2245 -0.3008
23432W        W38901  12.446  15.674  15.354  0.0646  0.2554 -0.0517
23433W        W38902   9.235   9.343   2.345 -0.3002  0.3124  0.0188
23434W        W38903  13.831   6.330  10.733  0.2612  0.0597  0.1893
23435W        W38904  14.947  11.976   5.422 -0.3038 -0.2205 -0.2820
23436W        W38905   1.301   7.190   3.505  0.0116  0.1323  0.1611
23437W        W38906   2.831   4.449  15.502  0.0858  0.4061  0.0803
23438W        W38907   6.144   2.953   4.561  0.1990 -0.0072 -0.1093
23439W        W38908   5.420   8.482   1.262 -0.0605 -0.0216  0.1203
23440W        W38909   9.122  11.195  15.710  0.1594  0.1401  0.1761
23441W        W38910  18.244   1.342   2.420  0.1487 -0.1104  0.1367
23442W        W38911  12.638   7.782  13.032 -0.1772  0.2700 -0.0094
23443W        W38912   4.747   1.369  15.357 -0.0737  0.2359  0.1893
23444W        W38913   0.478   4.083   4.339  0.1223 -0.0381  0.0554
23445W        W38914   3.503  10.912   4.684 -0.2370 -0.0305 -0.0519
23446W        W38915  18.227  10.812   4.457  0.0811 -0.1894  0.1355
23447W        W38916   8.849   6.497  13.311 -0.0198 -0.0164  0.0756
23448W        W38917  10.215   5.421  14.160  0.0189 -0.3055  0.0280
23449W        W38918   4.521  15.388  10.865 -0.2511  0.0605  0.3496
23450W        W38919   7.841  14.529  15.727  0.1034  0.1186 -0.2211
23451W        W38920   9.159  17.508   2.024 -0.1443 -0.0687  0.0999
23452W        W38921   6.091   5.982   0.390 -0.0611 -0.2033 -0.4416
23453W        W38922  14.426   6.912  15.485 -0.1214  0.1063  0.5021
23454W        W38923  13.340  18.215   2.616 -0.0398 -0.0284  0.0129
23455W        W38924   9.135   2.987  12.345 -0.0549 -0.1031 -0.0905
23456W        W38925  17.445  16.639   1.588  0.2359  0.1888 -0.0982
23457W        W38926  12.358   3.368  14.600 -0.4055  0.1115 -0.4897
23458W        W38927   1.794   8.600   5.429 -0.0991 -0.0773  0.3573
23459W        W38928   7.797  11.562   4.432 -0.4954 -0.2169  0.3875
23460W        W38929   0.507   2.187  10.917 -0.1662 -0.2659 -0.1379
23461W        W38930   2.041   3.398  11.730 -0.1938 -0.5381  0.1500
23462W        W38931  17.223   8.631   3.732  0.0752  0.2553 -0.1926
23463W        W38932   5.463  11.779   4.984  0.0952 -0.1577 -0.0070
23464W        W38933  17.551   0.658   2.526 -0.0674 -0.1391 -0.0255
23465W        W38934  10.591  12.490  12.145  0.1567 -0.0715 -0.2574
23466W        W38935  11.666  14.679   3.728  0.1600  0.2101 -0.1318
23467W        W38936   2.198  13.512  15.462  0.0861 -0.4184 -0.0842
23468W        W38937   9.626   6.504  15.713 -0.0368 -0.2341 -0.0593
23469W        W38938  10.484  16.322  14.135 -0.1723  0.2311 -0.1221
23470W        W38939   8.283   5.924   2.986 -0.0300 -0.2449  0.0809
23471W        W38940   7.995   9.605   3.653 -0.1766 -0.0124  0.1262
23472W        W38941   2.699  14.024  14.741 -0.2294  0.0100 -0.2664
23473W        W38942  14.104   1.494  13.128 -0.1617  0.2153 -0.0054
23474W        W38943  10.196  11.342  15.413 -0.0491  0.1316  0.0054
23475W        W38944   1.898   7.320  15.325  0.0712 -0.0112 -0.1553
23476W        W38945  13.278   9.908  12.488  0.2736 -0.0975  0.0122
23477W        W38946  14.114   7.889   3.863 -0.1397  0.3068  0.1032
23478W        W38947  16.184   1.001   0.637 -0.0609 -0.0792 -0.2315
23479W        W38948  13.730   4.238   3.199  0.1278 -0.0653 -0.0801
23480W        W38949  17.673  14.926   1.599  0.0156  0.1673 -0.2972
23481W        W38950   0.022   7.696   5.378  0.0841  0.1491  0.0096
23482W        W38951   9.730  17.258   4.141 -0.3149  0.1806  0.0175
23483W        W38952  16.783   3.902  11.252  0.0398  0.0986  0.3799
23484W        W38953   4.616  12.386  11.093 -0.0688  0.2042  0.0313
23485W        W38954   2.896   6.138   1.501 -0.2656  0.2083  0.0902
23486W        W38955  12.623  16.206   4.759  0.3237 -0.0505 -0.0437
23487W        W38956   6.594   1.411  11.241  0.1595  0.2155  0.0137
23488W        W38957  10.548   1.065  15.663  0.1573 -0.0455  0.0739
23489W        W38958  12.266   0.524  15.174  0.0398  0.4206  0.0187
23490W        W38959  15.251  17.474   5.564  0.0535 -0.3513 -0.1698
23491W        W38960   0.682   3.846  14.069 -0.3626  0.2114  0.3346
23492W        W38961   0.902   6.553  13.883 -0.0922 -0.0105 -0.0257
23493W        W38962  17.532   9.397  14.281  0.0810  0.1464 -0.0521
23494W        W38963   6.005  12.838  12.200 -0.0559 -0.0200  0.0843
23495W        W38964   4.519   2.136  11.448 -0.0950  0.2822  0.3967
23496W        W38965  10.873  11.354  14.330 -0.2747  0.0826  0.2508
23497W        W38966   5.866  12.590  15.308 -0.2029 -0.2576  0.2815
23498W        W38967   1.813  15.703  11.718 -0.1617 -0.1059 -0.0543
23499W        W38968  14.991   4.167   3.059  0.2781 -0.3259  0.0775
23500W        W38969   4.318   4.626  11.856 -0.1380 -0.4094 -0.2437
23501W        W38970  13.928  14.475  12.557  0.0054 -0.2151 -0.0484
23502W        W38971  13.586  14.132  14.680  0.1903 -0.0598 -0.3012
23503W        W38972  14.237  15.379  12.616 -0.0147 -0.3298 -0.0692
23504W        W38973  13.545  13.142  15.537  0.0132 -0.1804  0.1676
23505W        W38974  11.304   1.569  14.222 -0.1607 -0.1058  0.1023
23506W        W38975  10.815  17.984  11.960 -0.1766  0.0527  0.1577
23507W        W38976   9.808   7.172   2.777 -0.1552  0.0278  0.2947
23508W        W38977  11.532  10.800   0.257  0.0262  0.0267  0.1376
23509W        W38978   7.101  17.415   2.736 -0.2247 -0.3064 -0.0196
23510W        W38979   1.270   1.809  15.235 -0.0892 -0.1361 -0.0896
23511W        W38980  13.982   7.602  12.724  0.0705  0.2742  0.1729
23512W        W38981   0.305   4.561  13.540  0.1931  0.1712 -0.1228
23513W        W38982   3.882   2.804  11.137 -0.0691 -0.0901 -0.0959
23514W        W38983   8.529  11.066  15.228 -0.1532  0.0071  0.2006
23515W        W38984  15.805   6.578   4.625  0.2850 -0.0940  0.1587
23516W        W38985  10.191   7.519   4.513 -0.0093  0.2729  0.0748
23517W        W38986  15.026  17.832  15.208 -0.0779 -0.0209 -0.0009
23518W        W38987  16.628   6.923   4.914 -0.1198  0.0597 -0.0990
23519W        W38988   2.280  10.728  13.637 -0.1339 -0.4484 -0.2541
23520W        W38989  14.549  12.233  13.745 -0.0350 -0.0090 -0.0866
23521W        W38990   2.633   9.355  12.274  0.0565  0.0051  0.3180
23522W        W38991  10.100   1.648   2.572 -0.1910  0.0501 -0.0717
23523W        W38992   0.025   3.246  13.738  0.0204  0.0481  0.1796
23524W        W38993  17.053   4.669  11.204  0.2316 -0.1604  0.1254
23525W        W38994   5.385   9.601   2.281 -0.0930 -0.4628 -0.0923
23526W        W38995  16.051  17.407   5.062  0.1195  0.1537 -0.0722
23527W        W38996  11.267   3.150  15.412  0.1451  0.1040 -0.1365
23528W        W38997   2.027   4.390  13.069  0.0240 -0.3342 -0.0866
23529W        W38998   1.221  13.396  10.673 -0.0947  0.0216 -0.0427
23530W        W38999   6.397  13.409  11.867  0.0883 -0.3382  0.1822
23531W        W39000   6.487  14.286  12.874 -0.2821 -0.2116 -0.0601
23532W        W39001  10.441   2.577  14.606  0.3059 -0.1172 -0.0840
23533W        W39002  11.898  18.019   2.267 -0.2216 -0.0210  0.2741
23534W        W39003  12.948   6.869  15.133 -0.0763  0.0224  0.1725
23535W        W39004   4.596   6.859  11.660  0.1328  0.1604 -0.1272
23536W        W39005  17.241  16.250  11.422 -0.0681 -0.0370  0.2885
23537W        W39006   5.373   6.959  14.883 -0.1164 -0.3863 -0.1173
23538W        W39007   2.493   6.240   0.351  0.0549  0.1133  0.2140
23539W        W39008  17.666   2.260  12.967 -0.0775  0.0392 -0.0063
23540W        W39009  17.409   3.960  15.007  0.0731  0.0655 -0.1872
23541W        W39010   3.694   5.832   2.797 -0.0712 -0.0071 -0.0829
23542W        W39011   1.837   3.775   4.227 -0.2495  0.1433  0.3544
23543W        W39012  17.105   5.901   1.617  0.1248  0.0125 -0.1103
23544W        W39013   8.941  18.009   3.415  0.0238 -0.0982 -0.1426
23545W        W39014   7.023   1.548  10.906  0.0834  0.1771  0.1330
23546W        W39015  12.381   9.477   2.160  0.1684 -0.0266  0.2123
23547W        W39016  15.473   1.282  13.128  0.1094  0.0569  0.4036
23548W        W39017   6.999  11.971   2.966 -0.1460 -0.0519 -0.0108
23549W        W39018  18.137  10.880   1.440 -0.3484 -0.1710 -0.0180
23550W        W39019   1.206  16.345  11.932 -0.0113  0.1215 -0.0455
23551W        W39020   2.940  12.347  15.768 -0.1388 -0.1528 -0.0058
23552W        W39021  10.363   2.946  15.426  0.0594 -0.4193  0.2055
23553W        W39022   2.802  11.381   3.606  0.2717 -0.1763 -0.0071
23554W        W39023   5.325   7.652  12.280 -0.2201  0.2188  0.1154
23555W        W39024   9.689   1.369   1.132  0.0118 -0.4398 -0.0841
23556W        W39025  17.092  17.072  13.666 -0.4229 -0.0030  0.2738
23557W        W39026   9.198   9.690  16.012 -0.0118 -0.1025  0.0910
23558W        W39027   8.257   1.145   1.469 -0.1945 -0.0376  0.0152
23559W        W39028  12.724   6.475   1.735  0.4297 -0.0914 -0.4273
23560W        W39029   4.367   7.385   3.049  0.1279 -0.1300  0.1984
23561W        W39030  15.711   2.628   2.780 -0.1738  0.0403 -0.0094
23562W        W39031   9.957  10.063   3.657  0.2455 -0.1880  0.2580
23563W        W39032   6.081  15.913  15.317 -0.0266 -0.1733  0.0417
23564W        W39033   7.352   6.653  15.423 -0.0156  0.1739  0.2630
23565W        W39034  15.714   5.311   0.432 -0.1950 -0.2479 -0.3247
23566W        W39035   8.352  16.938   3.785  0.3172 -0.0682 -0.0367
23567W        W39036   9.859  16.796  14.095  0.1059 -0.0688  0.5102
23568W        W39037   9.349   4.546  13.000  0.2099  0.1538  0.1575
23569W        W39038   9.995   2.663   1.134  0.2563 -0.2289 -0.2413
23570W        W39039   6.573   4.352   5.332  0.0338  0.1635  0.1286
23571W        W39040   7.888   4.324   1.551 -0.1371  0.4183  0.0655
23572W        W39041  13.968   1.964  15.260 -0.0251 -0.1079  0.0760
23573W        W39042   4.122   9.757   3.244  0.0931 -0.0304  0.0270
23574W        W39043  10.265   5.684   3.609  0.0277  0.2663 -0.2336
23575W        W39044  11.765   3.872  12.151  0.1594 -0.1431  0.3029
23576W        W39045   7.804  17.000  15.824  0.1355 -0.0669 -0.0800
23577W        W39046  16.059  18.012   2.619  0.0552 -0.1937  0.4408
23578W        W39047   0.733   5.833  10.333 -0.3062 -0.2165  0.0745
23579W        W39048  14.535  14.331  13.954 -0.0717 -0.0972  0.2312
23580W        W39049  17.867   4.366   1.658  0.0704 -0.2490  0.2487
23581W        W39050   8.715   9.560   5.120 -0.2899 -0.1342  0.0394
23582W        W39051   8.844   2.205   4.383  0.1159 -0.1960 -0.1126
23583W        W39052  14.697   9.482   2.377 -0.0124 -0.1413  0.0997
23584W        W39053   4.483   8.658   0.061 -0.3534  0.0243  0.0828
23585W        W39054  16.987   8.118  13.828  0.2561  0.1364  0.5229
23586W        W39055   9.571   2.524   3.847 -0.2261  0.0619  0.0585
23587W        W39056  14.558  10.137  13.132  0.1823 -0.3250 -0.2607
23588W        W39057   1.927  10.393  11.686 -0.1070  0.1860 -0.2694
23589W        W39058   5.992   4.890   3.110 -0.3523 -0.1210  0.0283
23590W        W39059   2.243   5.087  15.478  0.0390 -0.1038  0.0956
23591W        W39060  11.414   7.990   2.525  0.0751  0.5465 -0.0608
23592W        W39061   0.500   1.922  11.345  0.2455  0.0680  0.1551
23593W        W39062   9.735   1.186   4.607  0.4219  0.0797  0.0781
23594W        W39063  14.208   5.238   0.293 -0.0740  0.0159 -0.0612
23595W        W39064  14.142   3.564  15.342 -0.0153  0.2086  0.2063
23596W        W39065   1.987  12.150   2.952  0.3309  0.0357 -0.2381
23597W        W39066  12.256  12.079   1.197 -0.0723  0.1801  0.1232
23598W        W39067  13.257  14.647  14.467 -0.0685 -0.0628 -0.0186
23599W        W39068   7.210   3.905  12.228  0.0261  0.2858  0.0967
23600W        W39069   8.564   6.293  14.425 -0.1650  0.1977 -0.0831
23601W        W39070  10.161  12.892  13.874  0.2102 -0.0323 -0.0453
23602W        W39071  16.650   8.570  11.712  0.1826 -0.2075  0.0445
23603W        W39072   5.717  12.424  12.056  0.1927  0.0646  0.1702
23604W        W39073   3.767  16.605  13.732 -0.1982  0.1167  0.0834
23605W        W39074  11.673  15.572  14.362 -0.4784  0.0375  0.0394
23606W        W39075  17.988  12.836  12.801 -0.0120 -0.1217  0.2494
23607W        W39076   6.500   5.864   1.326 -0.0156  0.1378  0.0815
23608W        W39077  15.907  15.428   3.453 -0.2461  0.0628  0.2082
23609W        W39078   3.178  16.066  14.200 -0.0790 -0.1444  0.1189
23610W        W39079  12.177  10.376  13.804 -0.0203  0.1597  0.3468
23611W        W39080   8.316   5.861  14.621  0.0590  0.0083 -0.3318
23612W        W39081  17.292   1.403   0.937 -0.1157 -0.1730  0.1728
23613W        W39082   9.600  10.138  14.117 -0.3808 -0.3750  0.2780
23614W        W39083   1.757   2.412   5.481  0.1450 -0.0679  0.2999
23615W        W39084   2.799   3.914  11.128  0.3841  0.1158  0.1351
23616W        W39085  17.079  14.142   3.204 -0.1465  0.1515 -0.0984
23617W        W39086   7.519   4.992  13.812  0.1162  0.2896  0.0323
23618W        W39087   9.583   3.263   4.404  0.1345  0.1309  0.1316
23619W        W39088   5.842  16.694   1.696 -0.0080 -0.0164 -0.0900
23620W        W39089  12.103   0.545   5.136 -0.0428 -0.0824 -0.1237
23621W        W39090  14.162   2.406   0.728  0.0216  0.0462  0.1017
23622W        W39091   4.541   7.713  11.687  0.0514  0.2787  0.1979
23623W        W39092   9.987   2.648  15.407 -0.0589  0.2065  0.0911
23624W        W39093   8.112  11.694   1.538  0.0258 -0.3589 -0.2681
23625W        W39094   2.822  11.776   0.772  0.0467 -0.3478  0.1635
23626W        W39095  11.705  13.680   1.481  0.0895  0.1037  0.2238
23627W        W39096  10.405  17.223  15.709  0.0043  0.1207  0.2093
23628W        W39097  16.079   6.565   2.800  0.1458 -0.2465 -0.2100
23629W        W39098  10.073   4.692   0.806 -0.2279  0.1125  0.0865
23630W        W39099  16.291  11.584   3.571  0.1120  0.1315  0.4453
23631W        W39100   2.890   1.363   1.565  0.1075  0.1388  0.0270
23632W        W39101  11.503   8.121   3.534 -0.1521 -0.0448  0.0727
23633W        W39102   9.814  17.824   1.493 -0.3962  0.0499  0.0060
23634W        W39103  18.164   0.992   0.462  0.0882  0.4276 -0.0181
23635W        W39104  12.775   7.859  14.767 -0.0116 -0.1731 -0.3689
23636W        W39105  16.773  11.269  12.975  0.0543 -0.1532 -0.3103
23637W        W39106  17.450   4.687  14.625  0.1532 -0.0679 -0.0257
23638W        W39107  14.913   7.494   0.774  0.0681  0.0418 -0.2728
23639W        W39108  16.850   6.948   1.766  0.2685 -0.0428 -0.0396
23640W        W39109   3.238  12.784   4.795  0.0727  0.1661  0.0266
23641W        W39110  16.762  16.487  11.339 -0.0290 -0.3189  0.1628
23642W        W39111   3.254  13.393   4.839  0.0434 -0.0668 -0.2377
23643W        W39112  17.756   8.677   1.557 -0.0749  0.3242 -0.1907
23644W        W39113  15.260   4.657   5.844 -0.1791  0.1943 -0.1721
23645W        W39114   0.951  12.494  13.820 -0.1282 -0.0337  0.0140
23646W        W39115  15.966  11.834  15.002 -0.1427 -0.0571 -0.1817
23647W        W39116   1.282  14.512   0.353  0.0104  0.1834  0.1319
23648W        W39117  12.960   0.435   3.377  0.2739 -0.1076 -0.0609
23649W        W39118   5.491   6.339   2.143  0.2423  0.0307  0.0762
23650W        W39119   3.672   3.675  12.670  0.0360 -0.0217 -0.4795
23651W        W39120   7.579  10.949  12.009 -0.2391 -0.1965 -0.1373
23652W        W39121  14.051  11.484  13.317 -0.0554 -0.1678 -0.1266
23653W        W39122   1.810  13.908  15.776  0.1745 -0.0906 -0.2257
23654W        W39123   3.671   5.997  13.158 -0.0430  0.2252 -0.0107
23655W        W39124   2.583   2.357  14.829  0.0516  0.0974 -0.0030
23656W        W39125   7.817  16.266   1.792  0.0411 -0.1902  0.1583
23657W        W39126   7.679   0.530  12.889 -0.2284 -0.2560  0.0664
23658W        W39127   1.361   5.852   5.396  0.0817  0.4984 -0.0208
23659W        W39128   1.230  13.270   0.889  0.0321 -0.2232  0.1442
23660W        W39129  17.310  11.573  13.128  0.0872  0.0519 -0.0106
23661W        W39130   2.039   4.111   4.937 -0.2501  0.1238 -0.0312
23662W        W39131  11.700  14.001  11.214  0.2153  0.1084  0.2847
23663W        W39132   1.869  11.779   5.826  0.0191  0.3128  0.0191
23664W        W39133  11.906   5.862   0.934 -0.2594 -0.1238 -0.0132
23665W        W39134   4.282  15.006   1.937 -0.1368  0.1420  0.1752
23666W        W39135   8.471  13.470   3.701 -0.1529  0.2580 -0.0079
23667W        W39136  17.653  17.649  10.692  0.0371  0.3218 -0.0670
23668W        W39137  10.144  17.310   5.748  0.2701 -0.0565 -0.1619
23669W        W39138  17.247  14.966  11.550  0.1476  0.2708  0.2206
23670W        W39139   4.465  17.731  13.396 -0.1897  0.3040  0.0652
23671W        W39140   6.390   7.753   3.378 -0.0642 -0.1387  0.1095
23672W        W39141   4.660   4.447  12.191  0.1614  0.0988  0.1026
23673W        W39142   3.888   4.015   2.108  0.2848  0.0520  0.0789
23674W        W39143   3.771   5.420   4.075 -0.0906 -0.2441 -0.1013
23675W        W39144   0.148  13.957   5.140 -0.0074 -0.0746  0.2810
23676W        W39145   8.685   4.937  15.863  0.1595  0.0342 -0.2842
23677W        W39146  16.676  16.763  11.829  0.2631 -0.1943  0.0427
23678W        W39147   4.422   3.516  12.116  0.0179 -0.1361 -0.1198
23679W        W39148   0.149   5.607  13.688  0.3067  0.3394 -0.0497
23680W        W39149   8.374  10.014  11.084 -0.3287 -0.1849  0.4065
23681W        W39150  15.769  16.649   2.432 -0.3405  0.3940 -0.1761
23682W        W39151   3.092   1.436   2.371  0.1082  0.0939 -0.4082
23683W        W39152  17.966  14.216  14.798 -0.1213  0.2057  0.0927
23684W        W39153   6.576   5.650   4.771 -0.2007  0.0048  0.1453
23685W        W39154  16.602   3.277  13.329 -0.0295 -0.2272 -0.2323
23686W        W39155   8.047   6.056  15.932  0.2435  0.0483  0.0513
23687W        W39156   5.118   3.733  14.261  0.4192 -0.0575  0.0986
23688W        W39157   0.784  18.264   2.678 -0.1819  0.2547  0.0748
23689W        W39158   3.262  11.089   0.303 -0.2460  0.2210 -0.0628
23690W        W39159   4.533   8.449   3.354 -0.1910  0.0942 -0.0472
23691W        W39160   7.611  17.991  13.170 -0.0551 -0.0915 -0.2343
23692W        W39161   9.764   5.127  11.024 -0.1421 -0.3087  0.1128
23693W        W39162  10.836   2.979  14.616  0.2661 -0.0022  0.0235
23694W        W39163   0.484  17.140  14.491  0.1854  0.0028 -0.1403
23695W        W39164  14.324   2.438  11.427  0.0643  0.2014 -0.2397
23696W        W39165   4.525   0.020   1.422 -0.1750  0.0297  0.2276
23697W        W39166   8.125   4.149  11.192  0.2978  0.3006  0.0586
23698W        W39167   5.450   1.843   4.024  0.3305  0.0231  0.2329
23699W        W39168   2.072   1.646   4.961  0.0194 -0.1378  0.0927
23700W        W39169  14.293   2.204  12.316  0.3752  0.0701 -0.1078
23701W        W39170  11.829  15.673   1.787  0.0801  0.1830  0.0405
23702W        W39171  17.259  17.093  10.296  0.1787  0.1388 -0.1230
23703W        W39172  12.043   4.884   3.066 -0.1761  0.1471  0.1852
23704W        W39173  14.956   6.476   2.067 -0.4285  0.3688 -0.4134
23705W        W39174   7.125  14.619   9.903  0.0491 -0.0115  0.0116
23706W        W39175   1.059   0.674  14.433 -0.0819  0.1586  0.3177
23707W        W39176  16.242  14.263  12.985 -0.0126  0.0278 -0.0851
23708W        W39177   7.095  17.610   3.761  0.0429  0.0282 -0.2630
23709W        W39178   7.681   2.825  14.056 -0.1236  0.0299  0.0638
23710W        W39179   9.096   5.018  14.932 -0.1184 -0.3453 -0.1270
23711W        W39180  12.833   4.846  15.191  0.0480  0.1580  0.0319
23712W        W39181   7.590  17.154  12.624 -0.2181  0.1852  0.0756
23713W        W39182   4.039  16.305   1.758 -0.3069 -0.3806  0.0222
23714W        W39183  12.167  15.003  14.607  0.2376 -0.0744  0.3128
23715W        W39184  13.823  12.719  15.395 -0.2088  0.0536  0.1204
23716W        W39185   9.109   7.684   0.393  0.0611  0.3497 -0.1218
23717W        W39186  13.552  13.879  13.378 -0.1342  0.0775  0.1088
23718W        W39187  15.164   5.239  14.427  0.0565 -0.0172 -0.1579
23719W        W39188   0.958  12.974   4.689  0.2892  0.0571 -0.0480
23720W        W39189   8.695  12.072   0.278 -0.1213  0.1299 -0.2307
23721W        W39190   0.357  12.064   3.589  0.0534 -0.1650  0.1982
23722W        W39191   1.978  10.124   5.421  0.1546  0.0065 -0.1507
23723W        W39192   0.042  13.518   3.800  0.0712 -0.0299  0.1599
23724W        W39193  10.809   3.202   1.471  0.1565 -0.0630 -0.1242
23725W        W39194   0.237   0.655  11.383 -0.0185  0.0631  0.1092
23726W        W39195   1.158  12.528   2.578  0.1750 -0.3681  0.0517
23727W        W39196  14.757   1.937  11.788  0.1606 -0.1252 -0.0537
23728W        W39197   2.937  17.532  12.236 -0.1579  0.2641 -0.0686
23729W        W39198   8.254   0.206   3.117 -0.0601 -0.2401  0.2304
23730W        W39199  16.718  14.307   4.244  0.1264  0.0358  0.1216
23731W        W39200  15.865  13.543  15.803  0.0509  0.1575  0.0333
23732W        W39201   9.065   9.213  15.836  0.0200  0.1746 -0.1468
23733W        W39202  17.334   2.099   3.174 -0.2965 -0.0207 -0.1786
23734W        W39203   1.095  10.273   1.207 -0.2156 -0.2276  0.0185
23735W        W39204   0.555  14.000   2.546 -0.1916 -0.1724 -0.0039
23736W        W39205   4.891   1.495  13.917 -0.1455  0.3442  0.3169
23737W        W39206   8.493  14.111   2.202 -0.0583 -0.1620  0.0471
23738W        W39207  15.115   7.311  12.012  0.0954 -0.1971 -0.5704
23739W        W39208  13.257   0.874  10.512 -0.1158 -0.1384  0.1485
23740W        W39209   1.296   3.519  14.940 -0.0622 -0.2021  0.1940
23741W        W39210   0.713   5.551  13.921  0.0826 -0.1440  0.0790
23742W        W39211   8.992   4.639  11.689  0.0225  0.3326  0.1876
23743W        W39212  16.527  13.353  11.800 -0.0466 -0.2062 -0.0162
23744W        W39213   3.203  14.680  14.138 -0.0985  0.0660  0.2368
23745W        W39214  11.278   8.476   5.316  0.1967 -0.0358  0.2337
23746W        W39215   4.984   4.513  13.028 -0.3275 -0.1990 -0.1358
23747W        W39216  11.030  10.332   5.489 -0.0146  0.1011 -0.2761
23748W        W39217   5.122   9.599   3.393 -0.1306  0.3398  0.1011
23749W        W39218   4.961  13.756  15.962 -0.0515  0.2858  0.1562
23750W        W39219   5.464  13.505   0.447  0.2256  0.1668 -0.3108
23751W        W39220  15.515  16.221   2.302 -0.1045 -0.0886 -0.0394
23752W        W39221  14.349  10.025   3.055  0.0559 -0.1901  0.1296
23753W        W39222   7.247   8.296   4.337 -0.1140  0.1503  0.1415
23754W        W39223   1.711   2.235   5.036 -0.1585  0.2203 -0.3333
23755W        W39224   7.794   5.824   0.578  0.2737 -0.1678  0.3878
23756W        W39225   1.881   4.670  12.658 -0.1236  0.0759 -0.3236
23757W        W39226  14.368   3.158   2.563  0.0808  0.4696 -0.0793
23758W        W39227  12.849   0.352  11.982  0.1059  0.0538 -0.1956
23759W        W39228   3.603  12.304   0.503  0.1087 -0.0713 -0.1815
23760W        W39229  13.109   5.551   2.342  0.0628 -0.4628 -0.0471
23761W        W39230   1.397  17.401   4.376  0.2918 -0.1294 -0.2170
23762W        W39231   2.206   3.372   2.335  0.0607  0.3559 -0.3966
23763W        W39232  16.765  15.033  13.182  0.0694  0.4133 -0.2362
23764W        W39233  15.513   4.317   0.025  0.1863  0.4441  0.2309
23765W        W39234   2.333  17.807   0.972  0.2644 -0.2840 -0.0716
23766W        W39235  10.991   8.066  11.780  0.0321 -0.0981  0.0112
23767W        W39236   6.443   9.681   0.206 -0.0643 -0.1421 -0.1229
23768W        W39237  14.567  15.805  12.332 -0.0629  0.0005 -0.2829
23769W        W39238  14.936  12.625   1.278  0.0314  0.0707 -0.0367
23770W        W39239   5.272   0.311  11.706 -0.2020  0.0947  0.1675
23771W        W39240  16.992   9.831   0.600 -0.3349  0.3613 -0.1064
23772W        W39241   7.458   6.474   4.637  0.1129 -0.1265  0.1940
23773W        W39242  10.709  12.463  14.107 -0.0400  0.1436  0.1404
23774W        W39243   4.463   0.346  15.174 -0.1193 -0.2515  0.1692
23775W        W39244   6.304   8.653   1.143  0.0059  0.0387  0.0004
23776W        W39245  16.090   2.631  13.948  0.0422 -0.1401 -0.1072
23777W        W39246   4.732   3.614   2.953  0.0800  0.0185 -0.0319
23778W        W39247  15.381  14.762   3.033 -0.0732 -0.2276 -0.4610
23779W        W39248   0.805   5.337  10.964 -0.0473 -0.0052  0.2218
23780W        W39249   0.011   4.428   1.776 -0.1824  0.1004 -0.1643
23781W        W39250  15.705  10.972  14.488 -0.1202  0.0666  0.1854
23782W        W39251   3.476   6.989   3.331 -0.0176 -0.1950  0.2828
23783W        W39252   8.923   1.849   3.097 -0.3378  0.0084  0.2576
23784W        W39253   8.698   1.658  12.417 -0.1054 -0.1689 -0.0614
23785W        W39254  17.078   1.009   5.494 -0.0916 -0.1847  0.0464
23786W        W39255   7.513   9.590   1.201 -0.2550 -0.0336  0.1337
23787W        W39256   5.636  14.337   3.362 -0.0798 -0.1045  0.0223
23788W        W39257  11.258  16.200  11.235  0.0642 -0.1145  0.0191
23789W        W39258   9.541  10.076  12.289 -0.3859 -0.2403  0.1792
23790W        W39259   9.347   0.441  13.317 -0.2040  0.0672  0.0086
23791W        W39260   9.037   4.112   0.513  0.0105  0.2717 -0.1246
23792W        W39261   1.382  15.034   4.596  0.2180  0.2629 -0.2697
23793W        W39262   4.676   3.703  14.452 -0.1335 -0.2302  0.0572
23794W        W39263   8.329  14.425   1.715 -0.0812 -0.1527 -0.1823
23795W        W39264   8.444   8.109  13.198 -0.0841  0.0441  0.2990
23796W        W39265  13.290  14.335   3.347 -0.1488  0.2243  0.1157
23797W        W39266  10.491   7.329   3.259  0.0825  0.0872  0.0007
23798W        W39267   6.204   8.288  11.246 -0.0052 -0.1631 -0.0675
23799W        W39268  12.332  11.983  15.670  0.0183  0.1355 -0.2164
23800W        W39269   9.517   7.534   2.611 -0.1590  0.0891  0.2154
23801W        W39270  16.606   6.916  13.913 -0.0997 -0.2439  0.1628
23802W        W39271  12.754  11.193  14.778 -0.1809 -0.0244  0.0037
23803W        W39272   0.585  17.393   4.644 -0.1951  0.0487 -0.1414
23804W        W39273   2.674   2.024  14.442  0.0036 -0.2585 -0.3574
23805W        W39274   1.880  17.765   4.187 -0.4802  0.2120 -0.2541
23806W        W39275   1.240  11.299   3.901  0.0392  0.1910 -0.0820
23807W        W39276   7.568   7.794  10.944 -0.0261 -0.0797 -0.0404
23808W        W39277   6.488   3.421   4.184  0.1351 -0.0384 -0.3342
23809W        W39278  11.114  12.035   2.213 -0.0094  0.1531  0.2686
23810W        W39279  16.012   8.420  14.954 -0.0774  0.2143 -0.1960
23811W        W39280  14.323   1.233   1.391 -0.2231  0.4166 -0.0642
23812W        W39281  17.106   3.603   3.004  0.2081  0.1009  0.0791
23813W        W39282  10.872  15.000  14.898 -0.0496  0.0173  0.2406
23814W        W39283   5.798  10.611   5.546 -0.0490 -0.3022  0.5029
23815W        W39284  11.055  17.062   3.836 -0.3440 -0.2496 -0.1254
23816W        W39285  16.794   4.355  15.689  0.3019 -0.3885  0.4912
23817W        W39286  11.828   9.054   2.004 -0.1117 -0.0748  0.0469
23818W        W39287   9.896  16.391   5.874  0.0078  0.0855 -0.1528
23819W        W39288   3.682  10.087  14.403 -0.0506  0.3249 -0.0439
23820W        W39289  13.863   5.136   2.219  0.0050  0.1108  0.0818
23821W        W39290  17.844  11.532  11.513 -0.1477 -0.2318 -0.0934
23822W        W39291   2.356  12.490  13.511  0.0805  0.1522  0.1371
23823W        W39292   7.873   9.822   2.589  0.1497  0.0082 -0.1582
23824W        W39293  11.315   0.034  11.288 -0.1136 -0.2442 -0.1890
23825W        W39294   2.382  16.330   1.232 -0.3197 -0.0307 -0.0306
23826W        W39295  12.580  17.492   4.001  0.1733  0.1153 -0.3084
23827W        W39296  13.632  15.681   1.942 -0.2069 -0.0047  0.2213
23828W        W39297   1.653   4.741  11.538 -0.0674 -0.1637  0.3807
23829W        W39298   5.055   6.752   1.968 -0.2635 -0.4084  0.0241
23830W        W39299  16.183   6.046   4.021 -0.2773 -0.1500  0.1280
23831W        W39300   1.792   6.889   1.614 -0.0195 -0.0101 -0.0461
23832W        W39301   9.401   2.588   3.092  0.1969 -0.2551 -0.2001
23833W        W39302   2.452   7.035  14.542 -0.2407  0.2173  0.1935
23834W        W39303   6.958  14.684  14.376  0.1178  0.3309  0.1194
23835W        W39304  13.026   8.530  13.642 -0.1754 -0.0886  0.2596
23836W        W39305  14.714   3.313   4.886 -0.2225  0.1079 -0.0165
23837W        W39306  18.202   6.113  14.911  0.2594 -0.0319 -0.0109
23838W        W39307  12.241   9.194  10.506  0.1130 -0.0090  0.1405
23839W        W39308   1.090   0.259   0.411  0.0929  0.0585  0.1225
23840W        W39309   3.626   8.460   3.613 -0.0912  0.2408 -0.1312
23841W        W39310   9.878  11.810  11.003 -0.5490  0.0767  0.5336
23842W        W39311  14.456  11.441  14.722 -0.2891  0.4180 -0.0703
23843W        W39312   2.100  17.192  13.405 -0.1476 -0.3193  0.1168
23844W        W39313  12.628   5.729  10.800  0.2449 -0.0775  0.0120
23845W        W39314  12.193  14.539   0.599  0.1747 -0.0278  0.0164
23846W        W39315   4.670  10.852  12.731 -0.0668 -0.2278 -0.0619
23847W        W39316  16.225   3.469   1.106  0.0008 -0.4402 -0.2143
23848W        W39317  11.521   5.006   5.159 -0.0578  0.1957  0.1189
23849W        W39318   8.442   2.736  11.736 -0.1171 -0.1159 -0.0967
23850W        W39319   5.513   6.193   3.667  0.2260 -0.5636 -0.0735
23851W        W39320  18.058  17.999  11.418  0.2678 -0.1361  0.0570
23852W        W39321   6.911   5.848  15.384 -0.0237  0.0937  0.1388
23853W        W39322  12.901  13.441  12.929 -0.0067 -0.2178  0.1221
23854W        W39323  11.217  17.568   3.587  0.1598  0.2216  0.2647
23855W        W39324  14.042  16.314   0.456 -0.2918 -0.1483 -0.0176
23856W        W39325   9.411   2.840  13.915 -0.0303  0.1882  0.0787
23857W        W39326  16.877   0.124  13.081  0.0067 -0.0692  0.2485
23858W        W39327   2.871   7.175   0.303  0.0516  0.1762 -0.2657
23859W        W39328  17.284   9.002   0.328 -0.2918  0.0377  0.2843
23860W        W39329  15.177  10.440   2.320  0.3057 -0.1549 -0.1470
23861W        W39330  15.557  14.850  11.788  0.0116  0.0275  0.1182
23862W        W39331  13.418   0.339   2.329 -0.3313  0.0937 -0.0430
23863W        W39332   3.482   1.113  11.652 -0.0869 -0.0317  0.1645
23864W        W39333   0.871   0.751  13.665 -0.1689  0.0743  0.1003
23865W        W39334   9.885   6.829   0.554  0.1657 -0.0375  0.4116
23866W        W39335   4.225   8.715   2.528  0.2069 -0.0327  0.4795
23867W        W39336   6.865  13.938   4.255  0.1361  0.0903  0.2827
23868W        W39337  12.653  13.538   5.086 -0.2125 -0.0565  0.0453
23869W        W39338   3.915   3.910   4.409 -0.2053 -0.1027  0.1895
23870W        W39339  11.908   6.303  14.868 -0.0485 -0.0434 -0.1425
23871W        W39340  13.951   2.795   1.109  0.3120  0.1169  0.0071
23872W        W39341   9.470   7.733   0.730  0.0667  0.1658  0.0036
23873W        W39342  13.236   0.425   1.047 -0.0940  0.0612  0.2989
23874W        W39343  16.546   6.559   4.278  0.0768  0.0250 -0.1132
23875W        W39344   4.580   3.702   4.397 -0.4514  0.0285  0.0455
23876W        W39345   0.549   9.945  11.011 -0.2041  0.1827 -0.1455
23877W        W39346  10.986   6.972   0.442 -0.2278 -0.0101  0.2015
23878W        W39347   1.223   9.088   1.359  0.0960 -0.0618  0.1371
23879W        W39348  17.481  13.679   0.213  0.2022 -0.2678  0.1426
23880W        W39349   9.169   4.502  14.380  0.2812  0.1114  0.1742
23881W        W39350   2.231  18.041   3.348 -0.2454 -0.1132 -0.1176
23882W        W39351  10.302   8.138   3.928  0.2159 -0.1168 -0.1383
23883W        W39352   4.948   7.650   0.903 -0.2161  0.2163 -0.0222
23884W        W39353  12.743  12.274  15.716  0.1144 -0.2955  0.0755
23885W        W39354  10.104  12.582  12.255 -0.3190 -0.1431 -0.2117
23886W        W39355   4.294   0.861   2.743  0.0672  0.1571  0.0538
23887W        W39356  12.296  17.858   0.498 -0.1779 -0.4375 -0.2621
23888W        W39357   9.268   5.471   2.127  0.1016  0.1148  0.3096
23889W        W39358   0.239   6.669  13.234  0.0235  0.2011 -0.2833
23890W        W39359   1.978  15.431   5.501 -0.4339 -0.1439 -0.1069
23891W        W39360  10.405  11.530   0.761 -0.1286  0.0886  0.0810
23892W        W39361  12.163  14.398   1.490 -0.0305 -0.3030  0.0653
23893W        W39362  11.454   1.368   4.360 -0.3240  0.1385  0.0104
23894W        W39363   6.468  16.487  11.843 -0.2645  0.0766  0.1221
23895W        W39364  16.886   2.580   1.241 -0.0062  0.1306  0.2792
23896W        W39365  11.311   5.635  13.062  0.3951  0.0394  0.1465
23897W        W39366   2.138   9.578  12.358 -0.2652  0.1596  0.0452
23898W        W39367  10.726  16.151   1.565 -0.0698 -0.2396 -0.1127
23899W        W39368  18.167  15.324  15.383 -0.1436 -0.0552 -0.0607
23900W        W39369  10.409   6.655  13.408  0.1389 -0.2644  0.1551
23901W        W39370  11.348  14.457   3.309 -0.1868 -0.2238 -0.1495
23902W        W39371  14.717   0.810  15.471  0.0873  0.2874 -0.1114
23903W        W39372  17.975  12.009  11.695 -0.1348 -0.0937  0.4511
23904W        W39373   5.452   7.275   1.435  0.0076  0.0201 -0.4167
23905W        W39374   0.641   8.785   2.149  0.0389  0.2119 -0.1533
23906W        W39375   0.437   1.295   2.358  0.0403  0.3247  0.0108
23907W        W39376  15.083  14.028  13.231  0.0223  0.1579 -0.3619
23908W        W39377   5.485  11.104  12.178  0.0865 -0.0485 -0.1278
23909W        W39378  17.276   4.860   2.316  0.1925 -0.1388 -0.0897
23910W        W39379  11.671   6.881   5.450 -0.3621  0.0404 -0.0247
23911W        W39380   5.793   8.164   2.469 -0.1513  0.3206 -0.0517
23912W        W39381   0.228  17.285  12.003  0.2082 -0.2052  0.0302
23913W        W39382   6.090   7.837  13.826  0.2893  0.2839 -0.1079
23914W        W39383   1.879   0.971   4.578  0.1869 -0.3080 -0.3404
23915W        W39384  16.276  11.413   4.452 -0.0968 -0.0695  0.0560
23916W        W39385   7.958  12.774   0.111  0.3918  0.1368 -0.2103
23917W        W39386   6.729   7.889   4.927  0.3751 -0.0456  0.1686
23918W        W39387   7.012  15.986   4.420 -0.4402  0.0494 -0.1868
23919W        W39388   3.477  13.124  14.894 -0.0630 -0.0254 -0.2763
23920W        W39389  10.727   7.434  16.016  0.2108  0.1902 -0.0031
23921W        W39390  17.022   6.197   1.961  0.1978  0.1479 -0.1219
23922W        W39391   2.005  17.622  11.889  0.2501 -0.1951  0.4285
23923W        W39392   1.684   2.886   1.529  0.2674 -0.1801 -0.1561
23924W        W39393   0.776  16.062  14.288 -0.1142  0.2248  0.2013
23925W        W39394   8.919  12.017  11.250  0.0654 -0.2261 -0.1351
23926W        W39395   0.669  14.023   3.758 -0.2099 -0.1495 -0.1079
23927W        W39396  10.398   7.709   0.741 -0.0200  0.0094  0.0870
23928W        W39397   1.467   7.013  13.269  0.3398  0.0312 -0.1893
23929W        W39398   2.747   0.870   5.039  0.0795 -0.1771  0.3128
23930W        W39399   4.062   4.632  12.881 -0.1220 -0.1933  0.0021
23931W        W39400   8.292  16.476  14.850  0.3909 -0.0043  0.3033
23932W        W39401   1.488  12.398  15.653  0.1955 -0.1885 -0.2802
23933W        W39402  15.567   6.563  15.011 -0.0116 -0.3070  0.0874
23934W        W39403  14.174   3.798   1.771 -0.0860 -0.2017  0.4188
23935W        W39404  17.811  15.934   2.610  0.2281  0.3710  0.1879
23936W        W39405   1.983   6.378   3.807  0.3542 -0.1678  0.0814
23937W        W39406  10.808  17.142   5.181 -0.3051 -0.0118  0.3362
23938W        W39407   5.426  15.696   1.668  0.1258 -0.0597 -0.3012
23939W        W39408   9.527  16.869   4.528 -0.0917 -0.0824 -0.0048
23940W        W39409  14.481   7.241   0.974  0.3309  0.3789 -0.3003
23941W        W39410   9.407  10.123  15.302 -0.0937 -0.3227 -0.0227
23942W        W39411   2.093  13.656  11.962  0.2491  0.2475 -0.1358
23943W        W39412  10.376  11.533   5.455  0.0473  0.0915 -0.1467
23944W        W39413  14.843  12.546  15.459  0.2660 -0.3741  0.2401
23945W        W39414  13.496   4.823   2.498 -0.0934 -0.1517 -0.0422
23946W        W39415  18.007   9.067  11.475  0.0659  0.1575 -0.0945
23947W        W39416   1.782   0.778   3.800  0.0432 -0.0696 -0.3392
23948W        W39417  16.156   6.412  12.108 -0.2008  0.3506 -0.0714
23949W        W39418  16.963  14.620  11.843 -0.3435 -0.0410  0.2953
23950W        W39419  13.083  17.345   4.083  0.0043  0.0139 -0.0540
23951W        W39420   8.611  17.519   4.320  0.0079 -0.1310 -0.2645
23952W        W39421  13.420   7.202  12.294 -0.1769  0.1141 -0.1687
23953W        W39422   1.978   6.902  15.593  0.0542 -0.2348  0.0296
23954W        W39423   7.614  16.168  15.523 -0.1902 -0.1636 -0.0073
23955W        W39424  16.527  10.587  14.849  0.2502  0.0944  0.3174
23956W        W39425   8.735   9.186  13.567  0.0677 -0.2587  0.3121
23957W        W39426  17.062   8.848  11.735 -0.0508 -0.0338  0.0222
23958W        W39427  17.705  14.593  14.565 -0.0993  0.0474 -0.1169
23959W        W39428  12.150   6.235  11.065 -0.0102  0.0723 -0.1142
23960W        W39429   6.572   4.822   2.255 -0.0694  0.3251  0.0473
23961W        W39430   6.193   0.201   4.318  0.0861 -0.2486 -0.2025
23962W        W39431   0.478   3.202   1.989  0.3196  0.1353 -0.0483
23963W        W39432   7.873  13.967  15.835  0.0742 -0.0145 -0.0966
23964W        W39433   7.331   6.815   3.939 -0.0809 -0.0355 -0.2077
23965W        W39434   9.285  10.550  14.156 -0.1928  0.1354 -0.0167
23966W        W39435   9.661   2.096  13.616  0.3404 -0.0073  0.1811
23967W        W39436  16.980   4.944   2.918  0.2760 -0.1513  0.1114
23968W        W39437   6.926  17.756  15.234  0.1240 -0.3131  0.0995
23969W        W39438  17.705  17.260   2.826 -0.2545  0.0868  0.0721
23970W        W39439  17.988   9.992  13.731  0.1476 -0.0647 -0.3379
23971W        W39440   2.902   0.228  12.537 -0.3359 -0.1904  0.2193
23972W        W39441  10.904  16.830  13.945  0.1442  0.1027 -0.1618
23973W        W39442   8.780  15.951  13.429  0.3483 -0.2576  0.0935
23974W        W39443   8.170  17.280   3.418 -0.2019 -0.0399  0.2172
23975W        W39444   4.904   1.083  14.826 -0.0397  0.0554  0.0674
23976W        W39445   6.877  10.660  14.280 -0.1251  0.1696  0.3109
23977W        W39446  11.654   1.051  10.205 -0.2445 -0.0886 -0.1842
23978W        W39447   7.421  16.073   0.423  0.2584  0.1011 -0.0290
23979W        W39448  14.612   3.444  15.466 -0.2409  0.0626  0.1557
23980W        W39449   2.062   7.069   2.668 -0.0472 -0.1931 -0.0787
23981W        W39450  12.771   3.486   1.195  0.1022  0.1361 -0.0836
23982W        W39451  12.930   9.196   1.291 -0.0203  0.2999 -0.0521
23983W        W39452   6.324  14.822   2.751  0.1087  0.3095  0.0867
23984W        W39453   4.086   9.454   1.549  0.0297 -0.1475 -0.0059
23985W        W39454   4.034  13.071   5.216  0.0377 -0.0633 -0.1519
23986W        W39455  13.777  10.558  13.328 -0.1797 -0.1162  0.1997
23987W        W39456  16.162   6.997  15.579 -0.1197 -0.1518  0.0040
23988W        W39457  11.302  16.426   2.456 -0.1696 -0.0195  0.2096
23989W        W39458  12.052  11.242   1.807 -0.1902  0.1483  0.0671
23990W        W39459  12.497   2.817   1.402  0.0393  0.1967  0.1146
23991W        W39460  15.283   8.971  15.250 -0.1402  0.0615  0.1055
23992W        W39461   5.736   7.609  11.063  0.1349 -0.1659  0.1393
23993W        W39462   2.095  11.665  14.282 -0.0520 -0.0416  0.3575
23994W        W39463  14.863  12.949   0.780  0.2010 -0.3644 -0.1061
23995W        W39464  15.553   7.646   2.306 -0.0050  0.4178 -0.1739
23996W        W39465  10.417  10.864   2.553 -0.1159 -0.0125 -0.1102
23997W        W39466  13.423  17.144  13.549 -0.4193 -0.3885 -0.0898
23998W        W39467   6.710   9.739  15.283 -0.0067  0.1564 -0.4229
23999W        W39468   7.366   5.987   4.318 -0.0824 -0.1146 -0.3405
24000W        W39469   5.198  12.634   3.886  0.1850  0.0755 -0.1697
24001W        W39470  15.472   7.755  14.215 -0.0449  0.0116 -0.1896
24002W        W39471   2.857   2.887   1.284  0.0612  0.2329 -0.0671
24003W        W39472   5.847  17.714  15.090 -0.0455 -0.0684  0.2177
24004W        W39473   6.196   7.804  11.350  0.5340 -0.2000  0.1325
24005W        W39474   9.070  13.931  14.534 -0.0328  0.0875  0.2193
24006W        W39475   7.501  16.876  15.402 -0.0106  0.0229 -0.0574
24007W        W39476  15.936   0.392   0.144 -0.1696 -0.4753  0.1438
24008W        W39477   8.013  15.794  15.855  0.2856  0.1848  0.0592
24009W        W39478  14.374   8.696   2.538  0.1174 -0.0633  0.1661
24010W        W39479  15.004  12.123   3.706 -0.1404 -0.1087 -0.1422
24011W        W39480   3.016   2.109   5.554 -0.1671 -0.3131  0.1272
24012W        W39481  12.320   7.280  13.797 -0.0150 -0.1177  0.1762
24013W        W39482  16.459  12.344   0.263  0.4041  0.0401 -0.0248
24014W        W39483   2.342   2.112   0.771  0.0255  0.0817  0.2197
24015W        W39484   0.584   9.701  15.164  0.1058 -0.1896 -0.3940
24016W        W39485  10.185  13.284  10.288  0.0409 -0.0597 -0.0459
24017W        W39486   0.168  13.890   1.742  0.1187  0.2467  0.0896
24018W        W39487  14.230  16.741  10.311 -0.0527  0.1875  0.1876
24019W        W39488  16.647  10.648  14.358 -0.0866  0.2195  0.1351
24020W        W39489  17.785   7.326  10.174 -0.3807  0.0505  0.0014
24021W        W39490  12.588  12.338   2.038 -0.1582  0.4814  0.2193
24022W        W39491   0.771  16.505   1.962 -0.2358 -0.2794  0.0983
24023W        W39492   9.303   7.839  14.224  0.1180 -0.2050  0.3155
24024W        W39493  13.530   2.473   1.738 -0.1778  0.2361  0.2745
24025W        W39494  16.684  16.061   3.328  0.0353  0.0709 -0.2002
24026W        W39495  16.444   7.130  15.161  0.1031  0.0762  0.0404
24027W        W39496   9.294   3.870   3.653  0.0653 -0.0805  0.1554
24028W        W39497  17.231  11.309  14.572 -0.2620  0.1015  0.0688
24029W        W39498  12.247   6.732  15.803  0.0630 -0.0471 -0.0241
24030W        W39499  14.148   6.148   5.300  0.1406  0.1092 -0.1148
24031W        W39500  12.951  18.131   3.040  0.0737  0.0612  0.0085
24032W        W39501  17.967  13.780  11.308  0.1465  0.1694 -0.1182
24033W        W39502  10.227  13.433  15.173 -0.3399 -0.2246  0.1090
24034W        W39503   1.255  13.930  12.945  0.0312 -0.1399 -0.0729
24035W        W39504   9.632   5.475   2.549 -0.3563  0.1870  0.0837
24036W        W39505   0.498   4.732  11.625  0.1345 -0.0379 -0.1232
24037W        W39506  15.091   5.497   4.376 -0.1954  0.1166 -0.1253
24038W        W39507   5.016  10.549   3.302 -0.1918 -0.3002  0.0600
24039W        W39508   7.880   0.359  12.270  0.2353  0.0139 -0.0703
24040W        W39509   5.245  15.168  13.536 -0.1340 -0.1627  0.0011
24041W        W39510  16.605  13.052   4.049  0.2172  0.2147 -0.0174
24042W        W39511   1.654  11.020  12.438 -0.1356 -0.2499  0.1114
24043W        W39512  10.528  12.468  11.300 -0.0932  0.0227  0.0877
24044W        W39513  11.834  17.478   2.427  0.1499  0.1515 -0.4124
24045W        W39514   3.178  11.494   1.752 -0.1351  0.1222  0.0489
24046W        W39515   2.064   5.151  14.119  0.0025  0.3406  0.1108
24047W        W39516  14.194   0.584   0.001 -0.1457  0.0926  0.0318
24048W        W39517   0.318  17.630  13.821 -0.0025  0.1391  0.4948
24049W        W39518  11.923   1.193   1.020  0.0099  0.0883 -0.0576
24050W        W39519   7.038  16.470   2.258 -0.0144 -0.2627 -0.0691
24051W        W39520   0.542   9.971  13.796 -0.2279 -0.1571 -0.2603
24052W        W39521   3.906   3.046   5.326 -0.0817 -0.0925  0.1223
24053W        W39522   2.586   5.462  11.734 -0.0055  0.2325  0.0464
24054W        W39523  18.068  17.481  13.738 -0.1180 -0.0863  0.0405
24055W        W39524  12.241   7.314  14.620 -0.0673  0.2212 -0.1460
24056W        W39525  15.925   9.931  15.922  0.0744  0.0025 -0.2597
24057W        W39526   4.244  13.963  15.290 -0.4021 -0.1071 -0.0554
24058W        W39527   1.779  12.534   1.996  0.0753  0.0209 -0.0981
24059W        W39528   1.014  14.827   2.803 -0.2948  0.3717  0.2310
24060W        W39529  13.374  10.964  13.344  0.1259 -0.0762  0.0589
24061W        W39530  13.138   3.175   0.163  0.1596 -0.1583  0.2653
24062W        W39531   4.078   7.812  14.320 -0.2367  0.1275  0.1597
24063W        W39532  16.869  16.235  15.393  0.0336 -0.1387 -0.4989
24064W        W39533   1.750  13.422   2.573  0.0346 -0.0495  0.0046
24065W        W39534  13.427   2.168  15.962 -0.1417 -0.0574 -0.0968
24066W        W39535   5.824   6.884  12.146 -0.2870  0.0249 -0.0376
24067W        W39536   2.568   7.557  12.484 -0.0358 -0.0613  0.0992
24068W        W39537  15.590   8.425  16.124 -0.0499  0.1816  0.0713
24069W        W39538   1.527  14.610   1.433 -0.2964  0.1402 -0.0126
24070W        W39539   8.372   9.756  13.786  0.1064  0.2730  0.0571
24071W        W39540   3.487   1.078   5.474 -0.1365 -0.2809 -0.1034
24072W        W39541  10.416  11.910  13.156  0.1399 -0.0257  0.0224
24073W        W39542   2.793   0.358  15.872 -0.1418  0.1591  0.0091
24074W        W39543  12.118   2.610  13.633  0.0784 -0.3917  0.0664
24075W        W39544  13.805   3.156  12.661 -0.0333 -0.0322 -0.0268
24076W        W39545   2.736  15.567   3.794 -0.0919  0.4467 -0.1347
24077W        W39546   0.156  14.975   1.163 -0.2312 -0.0586 -0.2997
24078W        W39547   9.094   7.337   5.954 -0.0168  0.3098  0.3355
24079W        W39548   1.897  14.296  13.834 -0.0788 -0.0186  0.0312
24080W        W39549   6.695  13.923   2.567  0.0016  0.0861 -0.1618
24081W        W39550   9.573  11.112   4.866  0.2437  0.1014  0.0520
24082W        W39551  18.219  13.741   1.282 -0.1039 -0.4355 -0.0054
24083W        W39552   7.744  13.427   1.243 -0.4528 -0.0982 -0.0585
24084W        W39553   8.103  16.724  12.413 -0.0818  0.0924  0.0318
24085W        W39554   4.358  13.863   3.719 -0.0282  0.0189  0.2933
24086W        W39555  17.004   9.630   4.585 -0.2532 -0.0926  0.3523
24087W        W39556   3.721  12.282  13.292 -0.0659 -0.3253 -0.1162
24088W        W39557  11.251  14.874  13.251 -0.1561 -0.2613  0.3184
24089W        W39558   1.929  16.709  12.324 -0.1735 -0.2956 -0.0792
24090W        W39559  12.016  13.409  12.946  0.0347  0.2780 -0.1160
24091W        W39560  17.280  13.040   2.810 -0.2937 -0.1150  0.2173
24092W        W39561   7.982   6.589  16.151  0.0343 -0.0507  0.2000
24093W        W39562   6.790  15.387   4.452 -0.0598 -0.0337  0.1702
24094W        W39563  16.379  15.178   1.695  0.1736 -0.1724 -0.1353
24095W        W39564   9.937  10.528  15.239 -0.1074  0.1311 -0.4447
24096W        W39565  11.740   5.408   3.603 -0.1875 -0.0122 -0.4754
24097W        W39566   1.962   8.689   4.455  0.0755  0.1078 -0.5020
24098W        W39567   0.756   9.908   1.514 -0.1328 -0.2594 -0.2371
24099W        W39568  16.290   1.463  14.866  0.1427  0.0952  0.0340
24100W        W39569   9.098   9.221  14.124  0.2234 -0.2051  0.0997
24101W        W39570  15.523   3.749   0.896  0.0186  0.2468 -0.0169
24102W        W39571  15.550  15.802   3.360  0.0488  0.0104  0.0780
24103W        W39572   7.189   2.958   4.584  0.3077  0.0569  0.1960
24104W        W39573   9.894   1.555  15.043  0.1777  0.0582  0.2908
24105W        W39574  14.849   5.528   2.793 -0.2713  0.0476 -0.0448
24106W        W39575   7.426   5.636  11.811  0.2944 -0.0198  0.1519
24107W        W39576   9.320   7.171   3.982 -0.1439  0.0087 -0.1288
24108W        W39577   8.604  14.595   2.097 -0.0261 -0.0239  0.0207
24109W        W39578   9.176   6.015   2.166  0.1097  0.0515 -0.1633
24110W        W39579  11.524  13.297  13.861 -0.1297 -0.0602  0.3117
24111W        W39580   0.407   6.181   3.926 -0.0557  0.0101  0.1276
24112W        W39581   6.712   0.804  12.851 -0.0605  0.1438  0.1609
24113W        W39582  11.373   0.461   3.704  0.0483 -0.0588  0.1663
24114W        W39583   2.424   2.389  13.740 -0.0593 -0.0215  0.0304
24115W        W39584  14.816   8.266   2.720 -0.0660 -0.2716  0.3056
24116W        W39585   2.613  13.794   2.471 -0.2077 -0.1678  0.0036
24117W        W39586  18.129   8.330   2.666 -0.1645 -0.2457  0.0850
24118W        W39587   3.159  12.231  13.620 -0.1293  0.1220 -0.1496
24119W        W39588   3.910   8.671   0.226 -0.2194 -0.1203 -0.1128
24120W        W39589   1.691   5.940  14.125  0.0887 -0.0379  0.0542
24121W        W39590  10.096   4.012  14.439 -0.4989  0.0225 -0.0288
24122W        W39591   3.776   6.703   4.553 -0.0191 -0.1534  0.0385
24123W        W39592  11.988   2.738   1.335  0.1989  0.0432  0.2268
24124W        W39593   6.139  15.277  12.924 -0.0869  0.0056 -0.3215
24125W        W39594   6.408   9.702   3.154 -0.0610 -0.0041 -0.1315
24126W        W39595  11.269  18.254   4.023  0.0016 -0.0263 -0.0222
24127W        W39596  12.130   6.047   0.489 -0.2706 -0.2587  0.2733
24128W        W39597   2.766   0.801  11.203 -0.2304 -0.2862 -0.3166
24129W        W39598  16.231  11.676  15.793  0.2816  0.0283  0.2672
24130W        W39599   8.554  11.079   4.078  0.3608  0.0011 -0.0800
24131W        W39600   8.420   5.624   2.620 -0.0872  0.1437  0.2495
24132W        W39601   3.881  14.398  14.919 -0.1744  0.0273  0.1700
24133W        W39602   4.437  12.868  11.223  0.1897 -0.0399 -0.4104
24134W        W39603  15.028   5.725  14.249 -0.0742  0.0021 -0.0787
24135W        W39604   0.548  13.230   4.564 -0.0095 -0.4307 -0.0228
24136W        W39605  17.453   6.759   4.119 -0.2397 -0.0825  0.1413
24137W        W39606  14.263   4.615  15.525  0.1520 -0.3160 -0.2965
24138W        W39607   1.816   2.378   1.535  0.3157 -0.0264 -0.1870
24139W        W39608   8.704  16.851  10.053 -0.0012  0.1383  0.0857
24140W        W39609  10.997   0.581   0.293 -0.1235  0.0553  0.2065
24141W        W39610  16.292  10.005  12.520  0.2559  0.0606 -0.2767
24142W        W39611  10.493  12.900   0.145 -0.0781  0.0170 -0.1523
24143W        W39612  10.275  11.308   5.937 -0.0700  0.1866 -0.0232
24144W        W39613   1.639   1.248  11.846 -0.0422  0.0917 -0.1531
24145W        W39614  17.321  14.216   1.293  0.0412  0.2507 -0.3390
24146W        W39615  16.262  17.223   4.359 -0.0553  0.0345  0.1392
24147W        W39616  10.790  16.326   5.443  0.1642 -0.1858  0.1396
24148W        W39617   3.069   6.454  13.641  0.0011  0.0147  0.0295
24149W        W39618   9.631   3.910   1.671 -0.1188 -0.2472  0.0951
24150W        W39619  12.758  10.317   3.079 -0.2256 -0.2060  0.2771
24151W        W39620   1.233  16.882   5.110 -0.3047  0.0715  0.2740
24152W        W39621  17.937   6.423  14.577  0.0068 -0.0395  0.1785
24153W        W39622  17.506   7.733  12.957  0.2472 -0.1050 -0.0200
24154W        W39623  12.377   3.767   2.037 -0.0793  0.5012 -0.0230
24155W        W39624  10.054  15.145   0.682  0.1576 -0.0678  0.0690
24156W        W39625  17.341   8.196   2.769  0.1384  0.1124  0.1079
24157W        W39626   2.794  16.377   2.358 -0.0929  0.0447 -0.1889
24158W        W39627  18.235   6.285   0.610 -0.2997  0.4383 -0.1278
24159W        W39628  11.282   2.707   3.936  0.0523 -0.1737 -0.2400
24160W        W39629   7.859   5.047  13.249  0.3071  0.0896  0.2086
24161W        W39630   8.388   7.200   4.020  0.0479 -0.1170  0.3277
24162W        W39631   7.474   0.620   2.459 -0.1825 -0.0077 -0.1545
24163W        W39632   7.747   6.801  14.307 -0.0427  0.1777  0.1900
24164W        W39633  15.715  10.782   5.725 -0.1517  0.1148  0.1908
24165W        W39634   2.121  13.125  12.020 -0.4047  0.0387  0.3237
24166W        W39635   1.403   5.963   0.583 -0.0604  0.2001  0.1869
24167W        W39636   3.154   7.082  14.831 -0.0080 -0.1492 -0.1894
24168W        W39637   0.476   9.277   1.864 -0.0143 -0.0951 -0.1321
24169W        W39638  15.559   3.857  15.243 -0.0672 -0.0112  0.4149
24170W        W39639   8.878  16.581  15.015 -0.1077  0.1219  0.0874
24171W        W39640  18.147  14.451  13.793  0.2354  0.0280  0.1296
24172W        W39641   1.500   8.809  11.601 -0.2550  0.0121 -0.3678
24173W        W39642  10.453  16.588   1.579 -0.0356 -0.0227  0.0920
24174W        W39643  10.404   7.455   1.145  0.0675  0.3691 -0.1271
24175W        W39644   1.948   2.440  13.999 -0.2220  0.1455 -0.0319
24176W        W39645  12.739  13.244  11.424 -0.0892 -0.3222 -0.0950
24177W        W39646   5.676   7.811   5.309  0.1006 -0.1094 -0.2526
24178W        W39647   3.811   2.180  15.699  0.1565 -0.1526  0.1581
24179W        W39648   9.734   2.520   2.695 -0.0716 -0.3153  0.0747
24180W        W39649  17.684   5.096  15.678 -0.2045 -0.0203 -0.0575
24181W        W39650   4.499   1.992  12.778  0.0198  0.0284  0.0488
24182W        W39651  12.079   0.769  12.314 -0.1680 -0.2051  0.1735
24183W        W39652   0.962   7.829  13.132  0.4032 -0.3322 -0.1313
24184W        W39653  16.680   6.516   2.738  0.1449 -0.3130 -0.0960
24185W        W39654   1.926   4.625   4.976  0.2885 -0.1742  0.0914
24186W        W39655   7.737  14.995   1.138 -0.1481  0.0922  0.2834
24187W        W39656  12.789   5.494   6.316  0.1141 -0.0289  0.1949
24188W        W39657  14.763   5.114  13.592 -0.0198  0.0003 -0.2090
24189W        W39658  15.699  10.272  14.762  0.1533  0.0891 -0.0670
24190W        W39659   8.851   1.159   5.228  0.1214  0.1358 -0.1270
24191W        W39660  11.160  13.915  12.536  0.2316  0.1747 -0.0466
24192W        W39661  18.165   7.266  11.753 -0.1128  0.1175 -0.1254
24193W        W39662   3.528   0.996   0.753  0.0291  0.1388 -0.1257
24194W        W39663  14.665  16.562  12.687 -0.0865 -0.1583  0.2203
24195W        W39664   7.561  17.237  11.145  0.0467 -0.1454  0.0090
24196W        W39665  13.059  11.876  14.323 -0.2482 -0.1403  0.1048
24197W        W39666  12.235  13.138   0.055  0.0438  0.1857 -0.1379
24198W        W39667   3.782  13.262   0.629 -0.0909  0.1628 -0.3421
24199W        W39668  10.747  14.262   3.910  0.0673 -0.0412 -0.2791
24200W        W39669  11.189   8.299   0.556 -0.3506 -0.2066 -0.2380
24201W        W39670  12.179   7.914  15.822  0.1467  0.0471  0.0213
24202W        W39671   0.710  15.719  14.683 -0.2761  0.1108  0.3855
24203W        W39672  12.319  11.208   1.352  0.1543  0.0708  0.1675
24204W        W39673   1.043  16.511   0.753  0.1182  0.0831  0.2260
24205W        W39674  16.222  11.417  13.755 -0.2570 -0.1437  0.0811
24206W        W39675  13.831  13.571   0.219  0.0843 -0.0341  0.2388
24207W        W39676   7.576   0.616  15.834 -0.1391 -0.0561  0.0833
24208W        W39677  12.335   5.573   4.610  0.0263 -0.0177 -0.1529
24209W        W39678   5.867  16.281   2.274  0.0030 -0.0587  0.0452
24210W        W39679   2.225  15.744  12.705 -0.1439  0.0878 -0.0151
24211W        W39680  10.099  13.490   1.267 -0.0860  0.3599  0.1113
24212W        W39681   8.172  14.392  10.644 -0.0903 -0.0007 -0.1312
24213W        W39682   7.826   4.918   3.793 -0.1355  0.1636 -0.2271
24214W        W39683   2.238   0.180  12.417 -0.1070  0.0191  0.0434
24215W        W39684  17.799   1.415   1.206  0.0739 -0.2890  0.6216
24216W        W39685  11.530  14.203   5.977  0.0791 -0.1887  0.2559
24217W        W39686   4.593   8.793   0.971  0.1044  0.1362  0.3606
24218W        W39687  10.429  15.893  14.459 -0.0301  0.2114  0.2953
24219W        W39688   5.119   7.049  13.499 -0.0172 -0.1633 -0.2226
24220W        W39689  15.314  15.423  14.225 -0.0920  0.3137 -0.2452
24221W        W39690   1.241   7.395  11.844 -0.0649 -0.0752 -0.1252
24222W        W39691  11.067  11.206  12.581 -0.0802 -0.3566  0.0614
24223W        W39692   6.977  10.740  10.700 -0.4169  0.1709  0.2059
24224W        W39693  16.812  15.762   2.448  0.4213 -0.0119  0.1418
24225W        W39694   7.120  13.699  14.076  0.1355  0.0374  0.1152
24226W        W39695   0.031   5.615   2.244  0.0815 -0.2665  0.3413
24227W        W39696  11.737   9.532  16.096  0.0115 -0.1094 -0.1015
24228W        W39697  13.956  11.982  14.566  0.0431  0.3243 -0.1514
24229W        W39698   4.908   5.561   2.502  0.2290 -0.0630 -0.2606
24230W        W39699   0.481   1.614   3.821 -0.1322  0.4119 -0.1198
24231W        W39700   5.804   3.459   1.509  0.1243  0.0476 -0.1793
24232W        W39701  12.869  12.990   4.628  0.0313 -0.0250  0.0717
24233W        W39702   3.794   6.867   1.624 -0.1236 -0.0691 -0.1851
24234W        W39703   6.656   0.097  11.699 -0.1980 -0.0620 -0.2313
24235W        W39704   3.862  17.521   2.456  0.0433 -0.1275  0.2261
24236W        W39705   4.358  11.060   4.091 -0.2445 -0.0330 -0.0710
24237W        W39706  14.963  16.443  14.763 -0.2194  0.0854  0.0706
24238W        W39707  13.798   4.621  11.074  0.0325 -0.3535 -0.0644
24239W        W39708  18.301   2.216  12.054 -0.0226  0.0348  0.1406
24240W        W39709  18.032  12.846  11.776  0.3189  0.2167 -0.1210
24241W        W39710   0.219   2.452   0.980 -0.0385  0.0174  0.0237
24242W        W39711  15.994   1.976   4.210  0.1183  0.1052  0.1258
24243W        W39712   1.277   1.166   5.063  0.1330  0.3414  0.0032
24244W        W39713   3.912  15.773  15.718 -0.0013  0.3661  0.0345
24245W        W39714  12.789   9.059  15.276 -0.2168 -0.3712  0.3201
24246W        W39715   0.660  13.435   3.720  0.0377 -0.3183 -0.0212
24247W        W39716  17.462   4.894   2.804 -0.0903  0.1337 -0.0664
24248W        W39717   4.656  10.300   4.531 -0.5309  0.1732  0.1193
24249W        W39718  10.772  16.469   1.188 -0.0737  0.1906  0.0237
24250W        W39719   3.573  17.496   1.784 -0.0268  0.1133  0.3948
24251W        W39720   3.417   9.053   0.669  0.1805 -0.1442  0.0369
24252W        W39721  12.193   3.357   4.978  0.2107 -0.1475  0.1345
24253W        W39722  15.792   6.561   5.173  0.2297  0.0813  0.1197
24254W        W39723   4.937  13.515   4.957 -0.1793  0.1272 -0.1634
24255W        W39724   8.057   1.071   0.864 -0.2067  0.0019 -0.1507
24256W        W39725   8.711   2.439   5.561 -0.0711 -0.3105  0.0655
24257W        W39726  14.159   8.635  12.502 -0.0418  0.1851  0.0750
24258W        W39727  12.814   5.832  15.722  0.4792 -0.0657  0.1075
24259W        W39728   2.198   8.178   3.621  0.1179 -0.0212 -0.0841
24260W        W39729   5.118   3.246  11.741  0.0028 -0.0553  0.2648
24261W        W39730  11.458   7.470  13.091  0.1119  0.0966 -0.2013
24262W        W39731   3.859   0.431  13.999 -0.2686  0.1983 -0.1141
24263W        W39732   2.428   0.757   2.459  0.3880  0.2605 -0.3088
24264W        W39733   7.814  11.654  12.724 -0.1248 -0.0652  0.1731
24265W        W39734   6.811   2.329   5.321 -0.0873 -0.1978 -0.0742
24266W        W39735  12.512   7.002  11.135  0.0514 -0.2292 -0.1103
24267W        W39736  13.302  14.041   6.054  0.1704 -0.0202 -0.0238
24268W        W39737   1.211  10.705  13.024 -0.1823  0.1944  0.3984
24269W        W39738   3.690   1.223   2.094 -0.0399 -0.2281 -0.2452
24270W        W39739   3.889  17.377   2.897  0.2321 -0.2323  0.1154
24271W        W39740  15.172  14.125   2.093 -0.0854 -0.2238 -0.0205
24272W        W39741   9.904   0.302  13.170  0.0075  0.0402  0.2281
24273W        W39742   0.278   5.361  15.968  0.1645  0.1644 -0.0173
24274W        W39743   3.102  18.032  13.019 -0.0130  0.0471 -0.2185
24275W        W39744   9.512  12.185  12.797 -0.3057 -0.1666 -0.2526
24276W        W39745   9.188  13.360   3.530  0.1007 -0.1765 -0.3204
24277W        W39746   9.656   4.626   5.386 -0.1398  0.2649 -0.2013
24278W        W39747   5.834  15.670   1.034 -0.1871  0.4354  0.0675
24279W        W39748   8.820   3.107  11.676  0.0832  0.1624 -0.4368
24280W        W39749  12.353  12.602   3.888 -0.0554 -0.1367 -0.3124
24281W        W39750  17.845   3.745  13.341  0.1813 -0.0355 -0.1752
24282W        W39751   8.126   4.399  11.969  0.1778 -0.1051  0.0427
24283W        W39752   6.909   6.787  15.019 -0.1117 -0.2134 -0.1546
24284W        W39753   9.655   5.454  12.832 -0.4875 -0.0183  0.0556
24285W        W39754  12.321  10.324   0.637 -0.0612  0.3255 -0.1415
24286W        W39755  13.126   0.559   5.675 -0.2180  0.0214  0.1476
24287W        W39756   4.724   5.546   0.929  0.3691 -0.0516  0.2063
24288W        W39757   7.854  13.172   3.561 -0.0866  0.0650  0.3031
24289W        W39758  16.008  16.394   4.595 -0.1151  0.0885 -0.0522
24290W        W39759   0.076   8.275   1.177  0.0291  0.1791  0.0473
24291W        W39760  15.686   9.148  15.498 -0.0980  0.3638 -0.0548
24292W        W39761   0.911   4.689  10.724  0.1486 -0.2724 -0.0775
24293W        W39762  12.022  16.023  10.851  0.2489 -0.2104  0.3675
24294W        W39763   1.014  10.689  11.717  0.1300  0.0093 -0.0889
24295W        W39764   1.378  15.120  10.549 -0.4186 -0.0815 -0.2273
24296W        W39765  12.881  14.573  11.051  0.1462  0.1240  0.1102
24297W        W39766  17.570  17.217  10.988  0.0694  0.0595  0.1269
24298W        W39767  12.223  10.410  11.391  0.0617 -0.0469  0.1541
24299W        W39768  18.108   6.531   3.022 -0.0191 -0.0512  0.0622
24300W        W39769  12.005   7.973  13.587  0.0026 -0.0329  0.2596
24301W        W39770  16.757   9.613  15.963  0.1052 -0.1348  0.2332
24302W        W39771   9.228  14.085   0.787  0.0073  0.2146  0.2870
24303W        W39772   0.479   0.156   4.142  0.2612  0.2886 -0.1874
24304W        W39773  13.669  13.229   1.102 -0.2077 -0.2592  0.0535
24305W        W39774   6.635  14.861   0.342  0.0391  0.2122  0.0082
24306W        W39775  12.527   8.040   6.044 -0.1781 -0.3031  0.0262
24307W        W39776   9.907   3.999  11.254 -0.1072 -0.3241 -0.2643
24308W        W39777   6.935   6.120   1.020  0.0759 -0.0238 -0.1346
24309W        W39778   3.917  17.554  12.129  0.1337 -0.1097  0.0212
24310W        W39779  16.287  17.728   4.682  0.4437  0.0778  0.1126
24311W        W39780  11.655  17.580  12.702  0.2482 -0.1726 -0.0368
24312W        W39781  17.956  11.605  12.142  0.0984  0.0321 -0.0032
24313W        W39782   2.876   6.766   1.403  0.3936 -0.2472  0.2655
24314W        W39783  10.396   0.999  12.061  0.2299  0.0313  0.2283
24315W        W39784  12.277   4.202   3.756  0.2210  0.3766 -0.1457
24316W        W39785  11.457   7.770  11.371 -0.1341 -0.2363  0.0881
24317W        W39786   6.422   9.280  14.319  0.1094 -0.1541 -0.0598
24318W        W39787  17.220   9.651  12.238 -0.1503  0.2632  0.0404
24319W        W39788   5.177   6.487  14.748 -0.2004  0.0527 -0.2951
24320W        W39789   9.413   2.445   5.424 -0.3120 -0.0652  0.0787
24321W        W39790   1.735   3.538   2.752 -0.0433  0.0557 -0.0007
24322W        W39791   0.182  14.734   2.063  0.2489 -0.0723  0.0168
24323W        W39792  16.504   4.293   3.649  0.0117  0.2080  0.3996
24324W        W39793  15.289   5.805  14.729  0.0847  0.2894  0.0048
24325W        W39794  11.140  15.321  10.877 -0.1960  0.1596  0.1977
24326W        W39795   7.472   7.235   5.073  0.2669  0.3225 -0.1071
24327W        W39796  13.308   0.055   5.019  0.1564 -0.0266 -0.4281
24328W        W39797  14.473  12.680  14.237 -0.2286 -0.2197  0.3253
24329W        W39798  12.035  14.948   3.205 -0.0217 -0.1570  0.0086
24330W        W39799   4.994  10.990   2.264  0.1175  0.0016 -0.0625
24331W        W39800   9.524   5.264   3.979 -0.3236 -0.2935  0.1223
24332W        W39801   4.240   4.278   2.369  0.3063 -0.0144 -0.0186
24333W        W39802   1.441   2.278   4.248  0.2336  0.2835 -0.1521
24334W        W39803   5.266  17.501   3.838 -0.1111  0.1784 -0.0461
24335W        W39804  10.427  18.262  15.956 -0.1217 -0.2367 -0.0764
24336W        W39805  11.186  17.765  13.962 -0.0012  0.0060  0.0363
24337W        W39806  17.130  11.464   1.056 -0.0680  0.5352  0.2665
24338W        W39807  13.802   9.989   3.801 -0.0224 -0.0951  0.1183
24339W        W39808   0.345  16.963   2.875  0.1256  0.1458 -0.0025
24340W        W39809  16.037   7.022   4.242 -0.2003  0.3083  0.1069
24341W        W39810  16.595  11.145  14.559  0.1943 -0.0237 -0.4189
24342W        W39811  11.604  18.054  14.948 -0.1271 -0.1050  0.3801
24343W        W39812  10.063  13.966   1.013 -0.0076 -0.1973  0.0929
24344W        W39813   7.254   3.458  12.041  0.2067 -0.1087  0.0266
24345W        W39814   2.962   2.569   5.189  0.0529 -0.1973  0.0980
24346W        W39815   5.794   3.691  13.476 -0.0642  0.2518  0.0723
24347W        W39816  16.492   8.196  15.091  0.0859  0.2290  0.3422
24348W        W39817   2.230  13.404  13.773  0.1536  0.0177  0.3897
24349W        W39818  13.365   5.234   1.191 -0.1229 -0.3073  0.1169
24350W        W39819  13.450   6.766  12.763  0.2434 -0.1451 -0.2477
24351W        W39820   9.486  17.897  13.600 -0.0576  0.0651 -0.2061
24352W        W39821   9.606  12.460   0.766  0.0055  0.2939  0.0826
24353W        W39822   6.275   3.230   1.447  0.0808 -0.0958 -0.2100
24354W        W39823  16.515  11.885  16.167 -0.0485 -0.2174  0.0590
24355W        W39824  17.078   8.929  14.883  0.2153  0.2819  0.1014
24356W        W39825   8.420  11.628   3.636  0.0748  0.1267 -0.0098
24357W        W39826   6.921   2.996   4.153  0.1870 -0.1061  0.1503
24358W        W39827   5.135   3.627   4.189 -0.2363  0.1678  0.1388
24359W        W39828   4.746   8.804   1.871  0.2882  0.1649  0.2240
24360W        W39829  13.099   8.370   0.392 -0.3643  0.1962  0.0689
24361W        W39830  12.705  14.812  12.653 -0.0408  0.2512 -0.1093
24362W        W39831  13.683   2.664  14.777 -0.0804  0.1412 -0.2491
24363W        W39832  11.642   3.085   3.683 -0.0347 -0.1924  0.3838
24364W        W39833   9.118   9.735  12.865  0.5329 -0.0039 -0.1442
24365W        W39834   8.275  11.892   3.239 -0.0587  0.0855 -0.0059
24366W        W39835  15.488  13.296  13.820 -0.1122 -0.0184  0.0239
24367W        W39836   7.133   2.420   0.547 -0.0034  0.1135  0.1512
24368W        W39837   2.273   0.760   3.560 -0.4494  0.0490  0.0764
24369W        W39838   4.356   9.592  11.510  0.1872 -0.1013 -0.1507
24370W        W39839   9.150  17.344  12.875  0.0042 -0.0118  0.3294
24371W        W39840   2.715   0.470  11.641 -0.0624 -0.0270  0.0700
24372W        W39841   5.781  13.972   2.261 -0.0149  0.2087 -0.2870
24373W        W39842   3.399  14.787  10.734  0.0023 -0.1815  0.1130
24374W        W39843  11.315   1.501   5.914  0.1647 -0.0059 -0.0533
24375W        W39844  11.245  11.358   2.115  0.2268  0.4330  0.0133
24376W        W39845  17.364   1.875  13.407  0.0483 -0.1667  0.1413
24377W        W39846   7.664  15.719   5.748  0.1014  0.0176 -0.0679
24378W        W39847   1.419   5.619   3.354 -0.0361  0.1234  0.0478
24379W        W39848  17.580   5.516  12.353  0.0571 -0.0979 -0.4499
24380W        W39849   0.101   5.523   5.927 -0.1217  0.2743 -0.0967
24381W        W39850   6.590   7.153  15.158 -0.1042 -0.3494 -0.1207
24382W        W39851   6.215  12.509   2.482  0.0404  0.1874 -0.2455
24383W        W39852   4.143  16.278   2.285  0.1876 -0.0451 -0.0177
24384W        W39853   0.273   9.988   1.512 -0.0503  0.2000 -0.0620
24385W        W39854   2.285  16.751   1.885 -0.0022 -0.0459  0.0989
24386W        W39855   2.863   5.492   2.365  0.2394  0.3338 -0.2931
24387W        W39856  10.674   4.972  15.995 -0.2541 -0.0081 -0.2356
24388W        W39857   2.932   9.693   4.749 -0.0363 -0.0119 -0.0012
24389W        W39858   4.640   4.971  11.854  0.1191 -0.0926  0.0780
24390W        W39859  13.245   9.093   2.332  0.1090  0.1014  0.3435
24391W        W39860   0.108   1.340  11.991  0.2566 -0.0223 -0.1575
24392W        W39861   3.292   0.829   3.150  0.0658 -0.0741 -0.1138
24393W        W39862   2.346   9.495  11.866 -0.0619 -0.0587 -0.0777
24394W        W39863  14.898  14.374   0.319 -0.2179 -0.3571  0.0267
24395W        W39864   8.662   9.461   1.916  0.1907 -0.0618  0.3219
24396W        W39865   7.880   8.168   5.293 -0.1123 -0.2398 -0.1076
24397W        W39866   3.062   4.222  11.817 -0.0402  0.0503  0.2058
24398W        W39867   9.767  13.612  15.286  0.0285 -0.0854 -0.2204
24399W        W39868  12.810   4.423  11.010 -0.2938 -0.1325  0.1625
24400W        W39869  12.751   1.548   3.878  0.0107  0.1220 -0.2207
24401W        W39870   0.382   1.425   6.091  0.2249  0.3810 -0.0698
24402W        W39871   3.248  13.549  13.242  0.0317  0.3174 -0.3368
24403W        W39872  14.199  17.838  16.142 -0.2236 -0.1673  0.0581
24404W        W39873   0.655  10.614   4.078 -0.0355  0.0711  0.1780
24405W        W39874  11.430  16.398   1.903 -0.0573 -0.2644 -0.1359
24406W        W39875  12.186   1.864  11.362  0.0682 -0.1438 -0.0207
24407W        W39876   0.432   4.404  15.362  0.2586  0.0082 -0.1880
24408W        W39877   5.392   8.740  10.210  0.3405 -0.0830  0.1950
24409W        W39878  15.510  15.481  13.591 -0.1598  0.2381 -0.0363
24410W        W39879   3.949   2.743   3.155 -0.1286 -0.1362 -0.1791
24411W        W39880  16.351  14.896  13.460  0.0890 -0.5180 -0.3966
24412W        W39881   1.471   2.902  10.121 -0.3529 -0.1923  0.5322
24413W        W39882   0.066   3.644  14.772  0.3073  0.0946 -0.0280
24414W        W39883   1.571  14.716  10.316 -0.1483 -0.1259 -0.1665
24415W        W39884  15.809   7.492   0.699 -0.1470 -0.3482  0.2181
24416W        W39885   8.970  15.164   4.850  0.4247 -0.1691 -0.2542
24417W        W39886   1.318  12.947  14.767  0.1517 -0.0149  0.1351
24418W        W39887   5.302   4.289   1.325 -0.1247  0.0915  0.0421
24419W        W39888  15.395   4.583   1.178  0.3560 -0.0940  0.1811
24420W        W39889  10.916   7.440   1.235  0.0217 -0.2018  0.1331
24421W        W39890   3.605   7.363   1.380  0.1898  0.3941  0.2212
24422W        W39891   1.918   5.217   1.777 -0.3567 -0.0801 -0.2136
24423W        W39892   0.680  17.687   3.541  0.1603 -0.3051 -0.1414
24424W        W39893   6.572   7.197   5.455  0.0776  0.2679  0.1827
24425W        W39894   3.309   0.380   1.357  0.0137 -0.3786 -0.2957
24426W        W39895   2.129   5.997   4.896  0.0237  0.1689 -0.1583
24427W        W39896   5.183  13.517   4.509 -0.0276 -0.3448 -0.1754
24428W        W39897  16.663   5.267   2.644  0.1591  0.1565  0.1032
24429W        W39898  16.352  10.702  10.919  0.0649  0.1826  0.4301
24430W        W39899   1.493   1.670  13.569 -0.0686  0.1577 -0.1393
24431W        W39900  13.559   8.287   0.637 -0.0814  0.2616  0.1116
24432W        W39901   7.428   3.311   0.830 -0.0590  0.3878  0.0096
24433W        W39902  17.079   2.905   0.907  0.1311 -0.0574 -0.0565
24434W        W39903   7.192   0.204  11.466 -0.0114  0.1833  0.2073
24435W        W39904  17.180  15.256  14.805  0.1695 -0.3252 -0.2815
24436W        W39905  10.215   3.847   2.332 -0.1101  0.2631 -0.0558
24437W        W39906  14.134   9.913   5.099 -0.1999 -0.0178  0.0396
24438W        W39907  14.302  12.271   0.607  0.0627  0.1850 -0.5911
24439W        W39908  10.082   3.396  15.361 -0.4120  0.2206  0.1118
24440W        W39909   4.881  12.817  13.316  0.2041  0.0810 -0.0423
24441W        W39910   6.051   5.829   1.739 -0.1437 -0.1139  0.1014
24442W        W39911   3.495  10.857  15.033  0.0192 -0.0798 -0.2702
24443W        W39912   5.384   4.586   1.767 -0.1671 -0.0427 -0.0792
24444W        W39913   8.571   2.172  11.883  0.0502  0.3181  0.0580
24445W        W39914   4.860  14.575   3.041  0.0268  0.0769 -0.3624
24446W        W39915   0.901  11.357  11.389  0.1108 -0.2339  0.3199
24447W        W39916   5.526   0.612  11.243  0.3078  0.1242  0.0804
24448W        W39917  16.775  17.992  11.848 -0.2907 -0.0142  0.2099
24449W        W39918   2.868  10.819   0.695  0.1980  0.0698 -0.1531
24450W        W39919  11.837   5.738  10.224 -0.2414 -0.0527 -0.0159
24451W        W39920   7.254   6.917   4.735  0.0685 -0.0787  0.0425
24452W        W39921  15.074   8.642   3.506 -0.0258 -0.0992  0.3935
24453W        W39922   1.611   7.849   5.877 -0.1743 -0.0816  0.2069
24454W        W39923   3.903   1.906   3.462  0.1646 -0.0337  0.0098
24455W        W39924  16.444  17.570  10.513  0.0962  0.1415  0.0422
24456W        W39925  13.131  14.258   4.544  0.1887  0.3509 -0.3282
24457W        W39926   7.814  17.698  14.237  0.1317  0.0772 -0.2491
24458W        W39927   2.967  18.020  14.764  0.2155  0.2916  0.1122
24459W        W39928  15.607  17.816   2.762  0.0700 -0.0419 -0.2146
24460W        W39929  16.719   5.333  12.060  0.0853 -0.0618 -0.0442
24461W        W39930  11.956   2.344   5.011  0.0234  0.0903  0.0259
24462W        W39931  12.500  12.270  15.330  0.0379 -0.0976 -0.0178
24463W        W39932   2.011   8.117  14.752  0.1004  0.2706  0.3075
24464W        W39933   8.636   3.083  10.714 -0.3623 -0.2100  0.2499
24465W        W39934  10.139  12.004  15.227 -0.1734 -0.0655 -0.0173
24466W        W39935  12.664  12.841   5.416  0.2746 -0.0795  0.1505
24467W        W39936  10.167   5.960  14.040 -0.0188 -0.1989  0.2645
24468W        W39937   3.769   1.370  15.722 -0.1016 -0.3121  0.0369
24469W        W39938  11.948  15.977   0.204 -0.3819 -0.0756 -0.0348
24470W        W39939   4.503   9.614   0.109 -0.1063 -0.2254 -0.2223
24471W        W39940   8.078   3.666   2.266 -0.4930  0.0868  0.0008
24472W        W39941  15.072   4.128   0.968  0.0905  0.0175  0.1276
24473W        W39942  13.576   3.618   0.513  0.1286  0.0737  0.0182
24474W        W39943  11.935   6.138   2.499 -0.0944  0.2167 -0.1281
24475W        W39944  13.646   0.104  10.928 -0.1375 -0.2654 -0.0419
24476W        W39945   9.164   1.011   4.882  0.0314  0.0152 -0.1146
24477W        W39946   8.358  17.134   5.207  0.3138 -0.3340 -0.1833
24478W        W39947  11.610  12.066  14.263  0.0933  0.2544 -0.1694
24479W        W39948  10.721   9.825  15.968 -0.2703 -0.0386 -0.5058
24480W        W39949   6.323  16.692  15.073 -0.2893 -0.0060  0.0224
24481W        W39950  11.954   4.673  11.991 -0.0344  0.2648  0.2693
24482W        W39951   4.688   9.408  15.242 -0.0533 -0.0481 -0.0717
24483W        W39952   9.875  12.535  12.769 -0.1266 -0.1414  0.1287
24484W        W39953  16.578  16.673   5.529 -0.0930 -0.2290 -0.0446
24485W        W39954  18.039  11.466   0.114  0.0384 -0.1923 -0.1605
24486W        W39955   2.843   2.313   2.011 -0.0983 -0.0132 -0.0733
24487W        W39956  10.860   2.952  13.643 -0.1561  0.2271  0.1516
24488W        W39957  17.613   7.978   0.611 -0.3513  0.3494 -0.1264
24489W        W39958  16.498  10.408  12.719 -0.3845 -0.1265  0.0516
24490W        W39959   4.808  15.503  11.339  0.1236 -0.1436  0.0798
24491W        W39960   5.793  14.367  13.599  0.2039 -0.2026 -0.3282
24492W        W39961  12.069   3.480   2.469  0.2156  0.0709 -0.0989
24493W        W39962   3.429  12.388   1.726  0.0095  0.0556 -0.1997
24494W        W39963  15.279  16.433  13.388  0.0258 -0.0826 -0.0284
24495W        W39964  14.967   3.871  11.115 -0.3899  0.2876 -0.0923
24496W        W39965   7.599   7.613   5.825  0.0613 -0.0896 -0.1535
24497W        W39966  10.247   5.504  12.063 -0.3101 -0.1390 -0.2778
24498W        W39967  16.540  16.106  12.585 -0.1288 -0.0810 -0.0270
24499W        W39968   8.296   0.616  14.544  0.1742  0.0153  0.0366
24500W        W39969   7.577  13.357   4.339  0.0821  0.1005  0.3053
24501W        W39970  11.183  15.172  11.407 -0.1664 -0.4230  0.0932
24502W        W39971   0.884  10.256  11.453  0.0162 -0.2150 -0.2452
24503W        W39972  17.222   4.322   0.937  0.1598 -0.2018  0.0016
24504W        W39973   7.768   7.250  14.057  0.1418  0.1934 -0.1689
24505W        W39974   2.919   4.304  15.038  0.3683  0.0007 -0.2070
24506W        W39975  16.267   5.232  10.722 -0.1388 -0.0993 -0.1993
24507W        W39976  12.875  11.805   5.263  0.0273 -0.0969  0.5582
24508W        W39977   3.074   8.614  12.626 -0.1145 -0.0857 -0.2419
24509W        W39978  16.938  12.524  12.245  0.1458 -0.1560  0.1559
24510W        W39979  16.297   2.833  15.518  0.0805 -0.0091  0.0144
24511W        W39980  16.655   2.607   4.513 -0.0843 -0.0491  0.0386
24512W        W39981   9.873  10.702  13.005 -0.0815  0.1088  0.1699
24513W        W39982  16.864   5.150   2.141  0.5439  0.0105  0.0877
24514W        W39983   1.867  12.734  14.698  0.2202  0.2158  0.2870
24515W        W39984   7.791  12.069  13.561 -0.0266  0.2864  0.0305
24516W        W39985  13.149   2.418   1.115 -0.5014  0.2139 -0.0881
24517W        W39986   9.872  15.711   2.129 -0.2199  0.3484 -0.1321
24518W        W39987   8.688   3.662  14.284 -0.3454 -0.1081  0.0087
24519W        W39988  15.386  16.057   1.405 -0.0450  0.0678 -0.3552
24520W        W39989   4.615  17.530   3.422  0.1238 -0.0995 -0.1538
24521W        W39990   2.581   7.009   3.926  0.2143  0.2443 -0.3942
24522W        W39991   8.994   0.092  12.025  0.0872  0.2267 -0.0557
24523W        W39992  12.273   4.033   3.014 -0.2582  0.0491  0.0343
24524W        W39993  12.469   0.101  12.397  0.0117 -0.5060 -0.2867
24525W        W39994  13.895  17.471  13.995  0.0042  0.1236 -0.1757
24526W        W39995  15.692   3.837   2.201  0.3322  0.2642 -0.1712
24527W        W39996  12.674  15.510  15.880 -0.0221 -0.1870  0.4687
24528W        W39997  16.045  10.290  12.963  0.1554 -0.0086 -0.2297
24529W        W39998  11.615  13.939   2.555  0.0664 -0.2554  0.1186
24530W        W39999   1.294   6.086   1.849 -0.3029  0.0090  0.0432
24531W        W40000   3.449  11.354  14.688  0.2668  0.0445 -0.1418
24532W        W40001  13.254  15.126  13.174  0.0388  0.2559  0.1730
24533W        W40002  17.848  11.639  13.069 -0.1863 -0.0327 -0.2719
24534W        W40003  13.875  10.266  14.585 -0.1998  0.0287 -0.0587
24535W        W40004  17.298  14.692   3.756  0.1370 -0.1288 -0.1501
24536W        W40005   5.941   3.755  12.702 -0.0128 -0.0209  0.2244
24537W        W40006   9.890   2.934   2.421 -0.1047  0.0012 -0.1639
24538W        W40007  17.371   8.782  12.240 -0.0957 -0.1846 -0.0649
24539W        W40008   4.794   3.711   0.925  0.3920  0.3203  0.0186
24540W        W40009   9.556   2.819   5.141  0.0712 -0.2264 -0.0616
24541W        W40010  15.579   9.914  12.955 -0.1937 -0.2185 -0.0070
24542W        W40011   5.716  17.030   1.384 -0.1129 -0.0626 -0.0709
24543W        W40012   7.076   6.414   4.316 -0.1592 -0.1184 -0.1184
24544W        W40013   3.771   1.346   1.182  0.5527 -0.6243 -0.0972
24545W        W40014   8.643   1.096  15.189 -0.1671  0.2930  0.0030
24546W        W40015   6.775  14.378   4.006  0.0193 -0.1664 -0.0398
24547W        W40016  12.112   5.294  14.555  0.1603 -0.1168 -0.0446
24548W        W40017  16.384  14.339   3.866  0.0297  0.0308  0.0579
24549W        W40018  13.756   9.390   3.164 -0.0917  0.1128  0.0027
24550W        W40019   2.374   7.331  15.341 -0.0705  0.2077 -0.1891
24551W        W40020   9.451   4.371   4.055  0.0816  0.0079 -0.0801
24552W        W40021  13.370  16.713  15.012  0.1875  0.0082  0.1223
24553W        W40022   5.149  14.287  11.197 -0.0509  0.0847  0.1956
24554W        W40023  13.261  18.098   4.018 -0.2657  0.0111 -0.0570
24555W        W40024  17.028  16.142  12.981  0.4439  0.0683  0.3627
24556W        W40025  17.495  12.754  15.566 -0.0048  0.2391 -0.0239
24557W        W40026   0.472  12.582   3.808 -0.1614 -0.0622  0.2289
24558W        W40027  15.223  14.780   0.270  0.3113  0.1717 -0.0472
24559W        W40028  10.435  17.322  12.818  0.2125  0.2910 -0.1349
24560W        W40029  12.992   4.647   2.811 -0.2685 -0.1047  0.1830
24561W        W40030  16.356   8.601   1.805  0.2336 -0.2241  0.0190
24562W        W40031   6.454  10.760  16.070  0.2639 -0.0700 -0.1342
24563W        W40032  12.025  13.942   4.736  0.1885 -0.1349  0.1121
24564W        W40033   9.119  17.006  15.261  0.0911  0.0234  0.1077
24565W        W40034   1.883  13.481  12.566 -0.1507  0.2266 -0.1719
24566W        W40035  15.748  15.744  15.298 -0.0953 -0.0166 -0.2570
24567W        W40036  16.508   8.036   3.584  0.1025 -0.1613  0.0011
24568W        W40037   6.670  13.141  14.326  0.1642  0.2236  0.1578
24569W        W40038  17.579   4.900   5.740 -0.1174  0.3277  0.2188
24570W        W40039   4.769  14.500   5.108 -0.0968 -0.1056 -0.3596
24571W        W40040  15.037  14.627  11.771  0.0276  0.1053 -0.3323
24572W        W40041   1.857  16.979   5.179  0.2320  0.1096  0.0878
24573W        W40042  11.199  11.397   3.109  0.1942  0.2703  0.1551
24574W        W40043   3.490   9.020   5.274 -0.1239  0.1248  0.1521
24575W        W40044   0.771   9.318   2.254  0.2971 -0.1651  0.0325
24576W        W40045   9.732  16.100  13.836 -0.3139  0.0100 -0.1818
24577W        W40046   8.005   9.422   2.932  0.0515  0.2411 -0.2729
24578W        W40047   7.597   3.896  14.839 -0.2266  0.2915 -0.1286
24579W        W40048   2.583  17.490   3.579  0.0334 -0.3181 -0.2200
24580W        W40049  13.779  17.526   1.575 -0.2357 -0.0127 -0.0554
24581W        W40050   7.026   0.904  12.330 -0.0253  0.2003  0.0730
24582W        W40051  15.091   7.297  15.987  0.1470  0.0189  0.1197
24583W        W40052   2.980   3.236  11.174 -0.3882  0.2126  0.0316
24584W        W40053   8.168   8.536  15.865  0.1487 -0.4745  0.0963
24585W        W40054  14.518  16.084  11.056  0.2065 -0.1422 -0.1849
24586W        W40055   6.386  17.639   5.107 -0.2483 -0.1801  0.1246
24587W        W40056  14.027   3.840   0.032  0.1763 -0.2156 -0.0237
24588W        W40057  10.397   1.094  12.638  0.1530 -0.1683  0.1784
24589W        W40058   6.840   8.373   0.015  0.5124  0.0158 -0.0463
24590W        W40059   7.613  15.542   9.863 -0.0611 -0.1008  0.0531
24591W        W40060  15.070   7.020   2.651  0.1316 -0.4036 -0.1591
24592W        W40061  14.713   0.458   3.352  0.2381  0.0690  0.1306
24593W        W40062   3.197  13.349   3.215 -0.0062  0.0639  0.2864
24594W        W40063   8.449  16.412  12.145 -0.2487  0.2463 -0.3548
24595W        W40064   3.478  11.632  15.613  0.1409 -0.2588  0.0895
24596W        W40065   7.443  10.609   0.275 -0.0881 -0.1733  0.1276
24597W        W40066   2.575  10.219  11.226  0.1604  0.0905  0.2068
24598W        W40067   8.978  16.420  14.533  0.1157 -0.1918  0.4398
24599W        W40068  16.531  17.170  13.484  0.2593  0.1944 -0.1633
24600W        W40069  11.821   4.302   1.806  0.0249  0.0105 -0.2158
24601W        W40070   4.080  17.058  13.887  0.1684  0.2207  0.5197
24602W        W40071   6.097  15.788  11.989 -0.0198 -0.1706 -0.0125
24603W        W40072  11.722  16.613  13.020 -0.1319  0.0741 -0.1804
24604W        W40073   0.548  12.608   3.297  0.1378 -0.0690  0.4878
24605W        W40074  10.513   5.635   4.323 -0.2931 -0.1977 -0.0795
24606W        W40075  10.596   1.550   4.452 -0.2314  0.2753 -0.2596
24607W        W40076   6.691   1.109  15.380  0.1919  0.1489  0.1370
24608W        W40077  13.950  14.677   0.136 -0.1689 -0.2472  0.0436
24609W        W40078  17.772   3.882   3.685 -0.0520 -0.1107 -0.2870
24610W        W40079   7.345  11.734  12.536 -0.1359  0.3364 -0.1117
24611W        W40080   4.584   7.135  14.467 -0.2668  0.0469 -0.0454
24612W        W40081   8.277   9.257  11.370  0.1298  0.2196 -0.1154
24613W        W40082  10.643   0.759   1.709  0.0077 -0.1154 -0.2098
24614W        W40083   4.891   0.068   5.453 -0.2331  0.0159 -0.2045
24615W        W40084  10.415  13.531  14.712  0.3441 -0.1216  0.0333
24616W        W40085   4.721  18.110  15.302  0.0012  0.0331 -0.4778
24617W        W40086  17.830  10.594   2.695  0.1466 -0.1089 -0.1634
24618W        W40087   6.602   1.887   3.178 -0.1387  0.2874 -0.0416
24619W        W40088  14.290  15.020  13.310  0.2563 -0.0329  0.1838
24620W        W40089   2.807  17.942   1.817 -0.0913  0.0327  0.2940
24621W        W40090  14.295   0.151   3.342  0.4719  0.3443  0.2131
24622W        W40091  13.749   9.179   6.091  0.0326 -0.1090  0.2120
24623W        W40092   7.145   2.433  11.529 -0.0698 -0.2024 -0.0722
24624W        W40093   3.614   1.400   2.568 -0.1722 -0.2541  0.0478
24625W        W40094  10.021  13.760   0.483  0.2418 -0.1217  0.0033
24626W        W40095  17.215  14.722  10.900 -0.0812  0.2234 -0.0176
24627W        W40096   3.482   4.441  15.094  0.2271 -0.1978 -0.1485
24628W        W40097  17.102  15.854  13.499 -0.0104 -0.2761 -0.2221
24629W        W40098  15.809  17.633  12.721 -0.2178  0.0987 -0.2727
24630W        W40099   9.522   5.447   5.952 -0.0280 -0.1825 -0.3542
24631W        W40100   0.914   9.729  14.149  0.0317 -0.2330  0.0642
24632W        W40101   4.168  10.174  13.745 -0.0535 -0.2101 -0.2200
24633W        W40102  17.345  11.847  14.479 -0.2162 -0.2665 -0.5383
24634W        W40103  18.000  12.742   2.515 -0.1478 -0.0746 -0.0680
24635W        W40104  14.709   6.287  12.803  0.1414 -0.0410  0.0776
24636W        W40105  16.033  14.812  12.061 -0.0828  0.1685  0.1004
24637W        W40106  16.745  16.090  14.973  0.0061  0.2016  0.1706
24638W        W40107  16.940  16.482   5.239  0.0018  0.1188  0.1257
24639W        W40108   1.247  14.751  13.016  0.0471  0.1720 -0.1123
24640W        W40109  16.594   6.207   1.151  0.0659  0.2092 -0.0291
24641W        W40110   5.535  10.890  15.514  0.1863  0.1117 -0.1384
24642W        W40111   8.207   0.792   3.085  0.0299 -0.1229  0.1025
24643W        W40112  15.087  16.950   3.443 -0.0790  0.2299  0.0801
24644W        W40113   1.522   2.395  11.096 -0.1743 -0.1440 -0.1743
24645W        W40114   6.948   6.909   4.273 -0.0691  0.0330  0.0006
24646W        W40115   9.736  18.173   1.147  0.5014 -0.0278  0.3586
24647W        W40116  14.047   1.234   2.799  0.1964 -0.2611  0.0746
24648W        W40117  15.183  12.887   9.936  0.0553 -0.0610 -0.3113
24649W        W40118  15.369   0.399  13.545  0.2541 -0.0340 -0.1637
24650W        W40119   0.952   7.274  12.600  0.1728 -0.1961 -0.1524
24651W        W40120  17.593   4.491   2.049 -0.1178 -0.3963 -0.1366
24652W        W40121  12.078  14.319  12.455  0.4944  0.0198 -0.0083
24653W        W40122  16.377  15.147  11.866 -0.2466  0.1570 -0.0109
24654W        W40123   7.926  17.195   1.631  0.0244  0.0650  0.0442
24655W        W40124   4.986  13.449  12.733  0.1772 -0.0684 -0.2414
24656W        W40125  14.959   5.389   0.240  0.1636  0.2837  0.3394
24657W        W40126   2.711  17.349  14.531 -0.1190  0.0027  0.3208
24658W        W40127   9.459   1.804  15.442  0.1837  0.0950 -0.0766
24659W        W40128   3.638  11.204  12.865  0.4071 -0.0588 -0.1603
24660W        W40129   4.522  11.283  11.742 -0.3041 -0.1343 -0.0934
24661W        W40130  16.085  12.396   1.789 -0.0632  0.4797 -0.0843
24662W        W40131  16.711  13.794  15.159 -0.1928 -0.1526  0.3028
24663W        W40132   2.568   2.228  11.660 -0.3998 -0.1090  0.0651
24664W        W40133   1.295   9.426  12.461  0.3643  0.0127  0.0477
24665W        W40134  16.185   9.759   4.186 -0.1788 -0.0934 -0.2750
24666W        W40135   9.638  13.433  11.606 -0.0456 -0.1031  0.0957
24667W        W40136   8.080   3.986  11.654  0.0140  0.0945 -0.3580
24668W        W40137  10.323   5.986  11.814  0.0795 -0.2150 -0.0261
24669W        W40138   3.395  15.910  13.283  0.2525  0.0408  0.1742
24670W        W40139   9.241  11.950   5.066  0.3248  0.2208 -0.2367
24671W        W40140   3.368  16.037   5.094  0.1731  0.0266 -0.1009
24672W        W40141   2.754  10.704   5.234 -0.0032  0.1883 -0.0350
24673W        W40142   0.502   2.396   1.352 -0.0417 -0.0027 -0.2345
24674W        W40143  17.384   6.286   1.602 -0.0673 -0.0657 -0.3599
24675W        W40144   9.265  17.609  13.953 -0.1173 -0.2645 -0.2134
24676W        W40145  17.733   8.923  10.514 -0.0096 -0.5413 -0.1284
24677W        W40146   2.167   9.737   3.540  0.0476 -0.3441 -0.4498
24678W        W40147  10.289  10.725   1.087 -0.1688 -0.2553 -0.1065
24679W        W40148  14.971   3.950   1.489 -0.0391  0.0392 -0.3504
24680W        W40149  15.855  17.109  11.841  0.2567  0.1100 -0.1643
24681W        W40150   2.610   5.976  14.253  0.0006 -0.1004 -0.0424
24682W        W40151  10.089  10.447   3.140  0.1806 -0.1917  0.2234
24683W        W40152  12.841   5.600   0.027  0.1574 -0.0284 -0.2676
24684W        W40153  14.206   9.006  14.838  0.0755  0.2458  0.1543
24685W        W40154  13.837  13.065   0.213  0.3717 -0.3680 -0.0500
24686W        W40155   5.977  16.331  15.024 -0.0936 -0.0543 -0.0128
24687W        W40156  15.074  11.852  10.919  0.1051  0.1597  0.1497
24688W        W40157   8.020  15.422   2.904  0.0114 -0.0917  0.2039
24689W        W40158   0.724   3.248   4.791 -0.0160  0.0125 -0.0316
24690W        W40159  17.960   1.883   1.370 -0.1460 -0.0657  0.2881
24691W        W40160   7.700   9.468  16.152 -0.0574 -0.3648  0.1724
24692W        W40161   4.331   8.602   5.402  0.0447  0.0429 -0.1450
24693W        W40162  17.702   4.258   4.623 -0.3432 -0.5597  0.0180
24694W        W40163   8.173  16.791   6.193  0.3533  0.1230  0.1067
24695W        W40164   8.844  10.166   4.514 -0.0412  0.4283 -0.0648
24696W        W40165   2.609   0.249   2.623  0.1095  0.0329 -0.1765
24697W        W40166   4.583  13.814  14.448 -0.1564  0.0570 -0.0957
24698W        W40167   0.415  13.152  11.493  0.0798 -0.1270 -0.1248
24699W        W40168   4.962  14.010   1.250 -0.0272  0.1405  0.0137
24700W        W40169   0.922   5.955   1.257 -0.0140  0.1090  0.1652
24701W        W40170   9.870   0.100  13.603  0.1963 -0.3340 -0.1470
24702W        W40171   2.062  11.651  11.660 -0.1121  0.1222 -0.2464
24703W        W40172   1.615   0.010   1.520  0.0204  0.2945  0.3610
24704W        W40173  15.832   3.598  14.898  0.0449  0.0195  0.0086
24705W        W40174  16.132  11.632   1.004 -0.2405  0.1978  0.0610
24706W        W40175  11.499  11.368   3.509  0.1366 -0.2115  0.2284
24707W        W40176  13.039  14.102   1.124  0.2972 -0.0927 -0.0730
24708W        W40177  17.734  15.435   3.296  0.1365 -0.0608  0.1828
24709W        W40178  17.803   7.560   3.750  0.0129  0.3619 -0.0801
24710W        W40179  15.137  18.030   4.729  0.2516 -0.2923 -0.1109
24711W        W40180   7.742   5.201  15.022  0.1090  0.2369 -0.1038
24712W        W40181   7.588  18.133   2.004  0.0372  0.1187 -0.2335
24713W        W40182   9.593   8.676   4.403  0.1362 -0.1716  0.0540
24714W        W40183  13.542  11.990  11.915  0.1712  0.0194  0.1353
24715W        W40184   0.166   2.920  14.733  0.0299 -0.0656  0.1714
24716W        W40185  14.650   5.626  13.713 -0.0278 -0.0800  0.3217
24717W        W40186   7.680  11.553   1.349 -0.1147  0.1956 -0.0156
24718W        W40187  10.630   1.097   2.076  0.0309 -0.0510  0.0321
24719W        W40188   4.187   8.870  14.000 -0.1719 -0.2241 -0.2347
24720W        W40189   2.536  14.032   2.909  0.2300  0.0347  0.0586
24721W        W40190  13.503   9.688   5.311 -0.0674  0.2023  0.1746
24722W        W40191  10.117  17.864  15.980 -0.1288 -0.2561 -0.1490
24723W        W40192   1.362  10.413   2.340 -0.3527 -0.0621 -0.0467
24724W        W40193  12.144   9.059  16.086 -0.0573  0.1182 -0.1601
24725W        W40194   4.609   0.569  11.117  0.2508 -0.0836 -0.1857
24726W        W40195   1.424   4.604  14.266  0.1868  0.3333  0.2229
24727W        W40196   6.101  14.171  15.512 -0.0363 -0.0424 -0.3000
24728W        W40197   6.243  17.698  14.237  0.1952  0.0353 -0.2570
24729W        W40198   3.194   5.243  11.935 -0.1049  0.1942  0.0521
24730W        W40199  17.365   4.000  13.219 -0.2104 -0.0696 -0.2654
24731W        W40200   1.145   2.546   0.781  0.1029  0.0641  0.2223
24732W        W40201   0.332   4.283  14.440 -0.2323  0.4385  0.1218
24733W        W40202  14.940   3.448  12.096  0.0943 -0.2157 -0.0137
24734W        W40203   0.599   3.865  13.260 -0.0514 -0.0597 -0.0029
24735W        W40204  12.264  15.625   0.514  0.2580  0.2544  0.2148
24736W        W40205   8.395  15.152  14.232  0.0369  0.1444  0.2138
24737W        W40206   1.375  14.196  14.015  0.0048  0.0465  0.0556
24738W        W40207  14.942  18.180   2.462  0.0379 -0.5141  0.1035
24739W        W40208   6.019   7.784   1.141 -0.0453 -0.2525 -0.0940
24740W        W40209   3.544  13.677   2.795 -0.3315  0.0763  0.0123
24741W        W40210   4.898   9.192   0.779 -0.0121 -0.1627  0.0439
24742W        W40211  13.218   9.378  13.888 -0.0763 -0.2047 -0.2692
24743W        W40212   2.440   9.323  12.705 -0.0371 -0.0318 -0.1476
24744W        W40213  11.204  17.815  15.217 -0.1543 -0.1234 -0.0736
24745W        W40214  13.543   3.612  11.737 -0.1592  0.1495 -0.1657
24746W        W40215   0.712   1.615   2.837 -0.2796  0.0432  0.1990
24747W        W40216  12.836  16.299  13.821  0.2140  0.2753 -0.3074
24748W        W40217  10.633   7.542  12.485 -0.2470 -0.1873  0.0114
24749W        W40218   3.338   0.081  15.664 -0.0001 -0.1222 -0.0851
24750W        W40219   5.546   7.483   3.628 -0.1477 -0.0083 -0.0087
24751W        W40220  15.341   4.900  15.822  0.1816  0.0774  0.1519
24752W        W40221   0.033   8.501   4.634  0.0808 -0.2330 -0.1893
24753W        W40222  14.895   3.735  14.130  0.2982 -0.0190 -0.1340
24754W        W40223   1.806   6.266  11.741 -0.2461  0.1478 -0.1933
24755W        W40224  11.034  10.793  13.266  0.0601  0.0738  0.2824
24756W        W40225   2.283   8.186  15.222 -0.1862 -0.0564  0.1343
24757W        W40226  10.725   9.820  11.651  0.0829  0.0321  0.0528
24758W        W40227  13.719  14.377  13.592  0.0008 -0.3101 -0.0354
24759W        W40228   3.681   2.351   3.257 -0.0322  0.0300  0.1602
24760W        W40229  12.449   3.674  15.024 -0.0867 -0.0668  0.2920
24761W        W40230  11.465   1.858   5.543 -0.0627  0.1468 -0.2819
24762W        W40231  11.831  17.184   5.952 -0.2779  0.0588  0.1999
24763W        W40232  17.275   7.879   4.955  0.1152  0.0330  0.1022
24764W        W40233  11.104   4.027  13.286 -0.2734  0.3272  0.1385
24765W        W40234  10.929   3.790  15.456  0.2063 -0.0766  0.1317
24766W        W40235   3.125   1.886  13.071  0.0486  0.0131 -0.0943
24767W        W40236   8.507  15.971  12.595 -0.0621 -0.1261 -0.4602
24768W        W40237  11.049  16.083  15.951  0.2422  0.2351 -0.0894
24769W        W40238   4.963  15.658   2.955 -0.1927  0.0181  0.1813
24770W        W40239   9.001  14.493   0.993 -0.2394 -0.0144 -0.1292
24771W        W40240   9.321   6.671  13.279 -0.1809 -0.1822 -0.0377
24772W        W40241  12.847   7.314  12.925  0.2391 -0.0344  0.0087
24773W        W40242  15.643   3.247   1.028  0.1654 -0.2150 -0.1528
24774W        W40243   0.266  18.114  15.583 -0.1231  0.0546  0.3400
24775W        W40244  10.072   0.756   3.538  0.1941  0.0091 -0.1217
24776W        W40245   1.937   1.713  16.146 -0.3455 -0.0097 -0.2125
24777W        W40246   9.893   1.066  12.799  0.1838 -0.1219 -0.1286
24778W        W40247   1.525  12.480  13.311 -0.0808  0.1617  0.2511
24779W        W40248   2.968   8.944   0.444  0.1153  0.1219 -0.0073
24780W        W40249  14.064  11.961  10.060  0.2006 -0.2677  0.1414
24781W        W40250   7.321  12.311  13.506 -0.1278 -0.1806 -0.0622
24782W        W40251  14.887  14.463  16.020  0.3781  0.1988  0.0022
24783W        W40252   7.569   6.988  15.149  0.3100 -0.0167  0.3228
24784W        W40253  17.796   7.468  14.186 -0.2080  0.1860 -0.3810
24785W        W40254  14.207   2.411  13.400 -0.1654  0.3236 -0.1675
24786W        W40255  15.962  18.104  14.419  0.0147  0.1062  0.2147
24787W        W40256   5.972   6.872   4.257  0.0675 -0.3207 -0.4584
24788W        W40257   4.844  11.048   4.144  0.1306  0.1699 -0.1111
24789W        W40258  17.022   8.853  15.464  0.2462  0.1185  0.1936
24790W        W40259  17.507  15.095   2.768  0.0594  0.2351 -0.0918
24791W        W40260  14.048   6.564  14.599  0.2337  0.0062  0.0632
24792W        W40261  11.405  15.843   4.112 -0.1989  0.0176  0.0238
24793W        W40262   4.274  12.787  12.136  0.2013 -0.1802  0.1110
24794W        W40263  15.973  11.029   0.928 -0.0248 -0.3075 -0.0630
24795W        W40264  13.918  17.748   5.786 -0.0449 -0.0317 -0.1541
24796W        W40265  13.577   3.095  14.418 -0.1193  0.1262 -0.1463
24797W        W40266  10.056  14.788  11.062  0.1178  0.2027  0.2428
24798W        W40267   8.957  10.849  14.973  0.0114  0.3448 -0.2751
24799W        W40268   5.930   2.153   0.394  0.2370  0.1029  0.0935
24800W        W40269   1.218   8.830  14.363  0.0209 -0.2973 -0.0934
24801W        W40270  17.753   9.300   4.371 -0.0162 -0.0601 -0.4291
24802W        W40271   7.704   5.564   3.077 -0.3040  0.2501  0.3449
24803W        W40272   8.667   9.008   1.735 -0.0388 -0.0086  0.3182
24804W        W40273   2.692  13.108   1.343 -0.0221  0.0688  0.0672
24805W        W40274   1.993  14.955   3.686 -0.1500  0.0566 -0.3248
24806W        W40275   6.449  15.644   2.439  0.3026 -0.0185  0.1751
24807W        W40276  16.817  15.560  13.223 -0.0916  0.1037  0.0055
24808W        W40277  13.492   9.208   2.749  0.1244 -0.0583 -0.1816
24809W        W40278  11.987  10.401   4.854 -0.4562 -0.1034  0.2585
24810W        W40279  10.404   7.331   3.970  0.1044 -0.1207  0.3251
24811W        W40280  17.628   9.205   3.059 -0.1485  0.2313  0.2854
24812W        W40281   7.578   1.872   1.099 -0.3286 -0.2927 -0.2055
24813W        W40282   5.281   1.822   3.376 -0.0927  0.1128 -0.1037
24814W        W40283  15.329   4.829   2.287 -0.1259  0.0111  0.1792
24815W        W40284  11.413  18.144  13.275  0.0548 -0.2842  0.0196
24816W        W40285   4.379  16.293   3.354 -0.1181 -0.2975 -0.0131
24817W        W40286  12.853   0.936  14.392 -0.0393  0.4495  0.3283
24818W        W40287   8.455   9.914  14.980  0.0492  0.0538 -0.0045
24819W        W40288   5.159   3.959   3.790 -0.0199  0.0942 -0.0280
24820W        W40289  15.768   3.339   1.594  0.2544  0.3391 -0.4121
24821W        W40290   9.749   1.332   3.429  0.1320 -0.1677  0.2339
24822W        W40291  16.082   1.956  13.157 -0.0501 -0.1723 -0.1717
24823W        W40292   8.196   1.792   4.035 -0.1664 -0.2047  0.0209
24824W        W40293   9.266  15.020   6.042 -0.0589 -0.2694 -0.2490
24825W        W40294   4.881  13.200  10.663 -0.2041  0.0953 -0.1125
24826W        W40295   8.317  14.447   0.306 -0.2613  0.1087  0.0763
24827W        W40296  16.723  17.898   3.099  0.4896 -0.1230 -0.1448
24828W        W40297   6.730   7.998   4.147  0.2483  0.2258 -0.0940
24829W        W40298  13.895  11.241  10.397  0.0386  0.2161 -0.2260
24830W        W40299  17.797  12.038   3.619 -0.1692 -0.0407  0.3113
24831W        W40300  16.140   1.741   2.822  0.0243  0.2924 -0.0521
24832W        W40301  14.470   3.499  11.874  0.1055  0.2025 -0.0953
24833W        W40302  11.828  11.775   3.451 -0.1931 -0.0772  0.1457
24834W        W40303   5.192  11.568  10.830  0.0144 -0.0265 -0.2796
24835W        W40304  14.604   3.236   2.969 -0.1633  0.2522 -0.1386
24836W        W40305   4.851   1.751   5.294  0.0293 -0.1038  0.1364
24837W        W40306   5.840   5.077   2.638  0.1258  0.2968  0.0612
24838W        W40307   1.310  18.284   3.520  0.4436  0.1442  0.2369
24839W        W40308   0.783   7.238   4.767  0.3380  0.0544  0.1226
24840W        W40309   6.179   4.463   2.057  0.0993 -0.2306 -0.0285
24841W        W40310   7.052   0.997  13.897 -0.1819 -0.0075  0.0097
24842W        W40311  15.947   8.060  15.382  0.1056 -0.2073 -0.1376
24843W        W40312  12.329  16.483  14.963  0.1758 -0.0531  0.1291
24844W        W40313  11.895   0.774   0.669 -0.0426 -0.1306  0.0893
24845W        W40314   2.082  13.411  11.053  0.0721 -0.0829  0.2292
24846W        W40315  10.345   7.191  12.670 -0.0761 -0.0257  0.1370
24847W        W40316   4.323  13.636  12.782 -0.4938  0.0615 -0.0203
24848W        W40317  11.488  12.812  11.992  0.3844  0.0050  0.1562
24849W        W40318   8.755  14.885  13.319 -0.2827  0.2469  0.0832
24850W        W40319   1.374   6.151   1.077 -0.1179 -0.3267  0.0288
24851W        W40320   9.069  11.215   1.259 -0.0175 -0.0420 -0.1150
24852W        W40321   7.055   4.886   2.330  0.0809 -0.0711  0.1676
24853W        W40322  18.184   3.513   1.924 -0.0101  0.0709 -0.0855
24854W        W40323   9.080  12.096  15.869  0.0048  0.1826  0.1575
24855W        W40324  16.849   0.076   2.097  0.3132 -0.1525  0.1899
24856W        W40325   8.235  13.626  14.330  0.2351  0.3078  0.0074
24857W        W40326  12.668  17.470   0.462  0.1304 -0.0442 -0.0097
24858W        W40327   8.620   3.335  13.750 -0.3421 -0.0561 -0.0375
24859W        W40328   4.968  16.658   0.503  0.0913  0.1984  0.1244
24860W        W40329   5.356   6.674   3.460 -0.0076  0.0818 -0.1729
24861W        W40330  10.344  14.624   5.000  0.1320  0.0755 -0.2633
24862W        W40331  11.822   4.113   5.188 -0.3463 -0.0623 -0.2088
24863W        W40332   2.642  11.879   3.380  0.3194 -0.0879 -0.0555
24864W        W40333  17.513   3.601   0.536 -0.1383  0.3218 -0.2055
24865W        W40334   5.541  11.728   2.733  0.1012  0.1194  0.1104
24866W        W40335  14.980  15.718   4.935  0.3491 -0.1630 -0.1741
24867W        W40336  12.687   6.943  13.211  0.1908 -0.0846  0.5026
24868W        W40337  16.242   8.528  14.091 -0.0928  0.0677 -0.1035
24869W        W40338   2.893  15.170  13.733  0.3281  0.0016  0.1066
24870W        W40339  18.040  11.410   0.658 -0.3107 -0.3130  0.0930
24871W        W40340  17.988  13.129   4.501  0.1893 -0.0190 -0.2175
24872W        W40341   4.049  17.857  13.760  0.1878 -0.1277  0.2743
24873W        W40342   3.453  12.527   4.322 -0.0192 -0.0638  0.3281
24874W        W40343   5.681  17.482   1.024  0.1067  0.2590 -0.0655
24875W        W40344  10.216   9.654   1.113 -0.0509 -0.0605  0.1444
24876W        W40345   7.647  10.696  14.028  0.0809  0.1633 -0.0720
24877W        W40346   8.191  14.803   3.733  0.0741 -0.0211 -0.1052
24878W        W40347  16.940   3.893  15.838  0.2422  0.2378  0.3097
24879W        W40348   3.013  18.094  10.454  0.1022  0.1088  0.0161
24880W        W40349   0.323   1.929  11.799 -0.0833  0.1080  0.3520
24881W        W40350   2.855   5.923   2.883 -0.1051 -0.2097  0.2458
24882W        W40351   4.294  13.492   2.863 -0.0655  0.4397 -0.0160
24883W        W40352  17.947   3.373   2.505  0.1157 -0.0801 -0.2270
24884W        W40353  15.695   9.430  11.343 -0.0833 -0.1176 -0.1417
24885W        W40354   5.855  14.294   4.288 -0.1772  0.0121  0.0082
24886W        W40355  14.823  15.325   6.361 -0.1961 -0.1167  0.1130
24887W        W40356  12.950   9.832  13.777 -0.0062  0.0200  0.2309
24888W        W40357  15.236   6.211   2.409 -0.1991 -0.0412 -0.2159
24889W        W40358  16.107   9.024  12.122 -0.1233  0.0224  0.1781
24890W        W40359  12.653   7.471  11.306 -0.0908  0.1484 -0.0266
24891W        W40360   3.613   7.323  13.304  0.1958 -0.1468 -0.1251
24892W        W40361  15.542  10.943   2.781 -0.0474 -0.2531  0.1470
24893W        W40362   6.218  13.472   3.775  0.1603  0.4093  0.2653
24894W        W40363   3.026   6.942   2.750  0.1869 -0.3520 -0.1076
24895W        W40364   4.664  10.001  13.097 -0.2434 -0.2125 -0.0635
24896W        W40365   7.898   1.754   4.474  0.0895  0.3091  0.0480
24897W        W40366   2.440  12.357   3.181  0.2667 -0.3297 -0.0383
24898W        W40367   9.534   6.885   4.782  0.0551  0.0783 -0.0692
24899W        W40368  11.843   0.494  15.902 -0.3004  0.3128 -0.4207
24900W        W40369  18.265   0.523   3.292  0.2620 -0.0791 -0.1213
24901W        W40370  17.795   7.326  12.834  0.0173 -0.0865 -0.1083
24902W        W40371   7.811  18.064   0.638 -0.1302 -0.0616  0.2486
24903W        W40372   6.752   8.330  12.412  0.2370  0.1492  0.0546
24904W        W40373   0.407  16.409  14.089  0.0097  0.2012  0.0717
24905W        W40374   6.888  12.765  12.659  0.1452 -0.1544 -0.0842
24906W        W40375  10.543  16.992  11.130  0.1945 -0.0496  0.1096
24907W        W40376  11.368   6.823   0.079 -0.1251 -0.0418  0.0449
24908W        W40377   3.325   6.144  11.606 -0.1916 -0.0795 -0.0690
24909W        W40378   1.937  17.579   0.312  0.0411 -0.1872 -0.1627
24910W        W40379  11.228  14.411  15.871 -0.0797  0.1881  0.3693
24911W        W40380  14.504  12.392  11.200  0.0613  0.2743 -0.0457
24912W        W40381   7.773  14.996  15.853 -0.1195  0.0812  0.1245
24913W        W40382  16.851   6.503  10.844 -0.1430  0.1021 -0.4654
24914W        W40383   1.132   3.671  14.178  0.0213 -0.1348  0.3135
24915W        W40384   5.346  16.897  11.570 -0.3306 -0.1649  0.3258
24916W        W40385   1.969   9.390   1.806 -0.0744  0.0766  0.0443
24917W        W40386  18.155  10.869   2.372  0.3682  0.4153  0.1068
24918W        W40387   9.723  12.672   5.195  0.2404  0.0998 -0.3109
24919W        W40388  17.954   5.391   1.341  0.0983  0.3606 -0.3829
24920W        W40389  13.789   2.813   5.601  0.1743  0.1141 -0.0131
24921W        W40390   7.089   2.499  15.920  0.2147  0.1641 -0.2665
24922W        W40391   6.233   5.837  11.814  0.0676  0.0216 -0.2841
24923W        W40392  15.772  16.607   0.178  0.1778  0.1426 -0.2302
24924W        W40393   9.943  13.586  14.434  0.1823 -0.1986 -0.0424
24925W        W40394   1.089  18.007   1.248 -0.1833 -0.2303  0.1412
24926W        W40395   6.148   2.171  11.960  0.1204  0.0771  0.0331
24927W        W40396   1.235   1.680  10.864  0.1464  0.2614 -0.2394
24928W        W40397  17.864   2.051  14.838  0.1136 -0.1876 -0.2285
24929W        W40398  11.819   7.651  14.434 -0.1639  0.2317 -0.0182
24930W        W40399   0.794  12.589   5.439 -0.0703 -0.0495 -0.1786
24931W        W40400  11.030   9.179   3.067  0.1704 -0.1038 -0.3684
24932W        W40401   0.204  14.675   5.988  0.1332 -0.2144 -0.0650
24933W        W40402  12.936  17.300   0.814  0.0277 -0.0832  0.1078
24934W        W40403   7.896   3.247  14.202 -0.0757  0.1953  0.0854
24935W        W40404   5.216  11.234  15.700 -0.2818  0.0420  0.4210
24936W        W40405  10.110   5.847  14.556 -0.3211 -0.0538  0.2240
24937W        W40406   3.959  11.106   3.096 -0.0433  0.1069  0.1858
24938W        W40407   7.943   9.906  15.157 -0.1527  0.0548 -0.2100
24939W        W40408   9.672   1.135   5.085 -0.0365  0.0452 -0.1463
24940W        W40409   6.664   7.121   4.619  0.0269  0.4044 -0.1871
24941W        W40410  18.124  17.145   4.879  0.1893  0.1629 -0.0478
24942W        W40411  11.661  12.313  13.743  0.1246 -0.2735 -0.0993
24943W        W40412   0.043   9.200   2.727  0.1134  0.1700  0.0344
24944W        W40413   2.727   4.341   4.578 -0.1017  0.2193  0.1590
24945W        W40414  16.328   4.764  10.887 -0.2216  0.1947  0.1582
24946W        W40415  11.277  11.538  15.284  0.0559 -0.2523 -0.0987
24947W        W40416   4.316  17.036   4.222  0.0650 -0.1281  0.1018
24948W        W40417  12.972  11.269  12.374 -0.0156 -0.0237 -0.3217
24949W        W40418  17.254  11.120   4.683 -0.1143  0.0557  0.2369
24950W        W40419   0.279  15.555   5.873  0.3002  0.1782  0.1018
24951W        W40420   7.604   8.933   5.052  0.1856  0.1567  0.0075
24952W        W40421   3.824   9.827  12.561  0.2995  0.0997 -0.0798
24953W        W40422   2.176  11.884   2.513  0.1630 -0.1826 -0.0101
24954W        W40423  17.943   9.271   1.452 -0.0125 -0.0430  0.0737
24955W        W40424   0.343   2.051  15.170 -0.0695 -0.0866  0.2074
24956W        W40425  16.540  15.911  13.819 -0.2914 -0.0459 -0.0622
24957W        W40426  15.105   4.348   4.552  0.3018  0.2478 -0.0178
24958W        W40427   6.119   7.637  12.387  0.0777 -0.1056  0.3209
24959W        W40428   9.393  14.987   1.769  0.1079 -0.0000  0.0962
24960W        W40429  17.773   1.018  15.845 -0.2794  0.2423  0.1413
24961W        W40430  13.731  17.065  15.174  0.0804  0.2456 -0.0412
24962W        W40431  14.965   6.970   0.864  0.0433 -0.3676  0.1682
24963W        W40432   3.296   4.826   2.752  0.1586  0.3011  0.0198
24964W        W40433   0.448   3.478  12.959 -0.0662  0.1024 -0.1442
24965W        W40434   4.445   0.846   0.884 -0.2094  0.0261  0.1404
24966W        W40435  13.947   5.314  16.041 -0.2389 -0.2092 -0.1192
24967W        W40436  11.040  14.286  11.676  0.3254 -0.1116  0.2467
24968W        W40437  15.669   5.375  12.838 -0.2576 -0.0186  0.3339
24969W        W40438   3.418   7.253   0.308  0.1816  0.3485  0.1792
24970W        W40439   9.223  15.065   2.705 -0.1509  0.0092  0.2539
24971W        W40440   0.261  16.829  15.497 -0.1525  0.1161  0.1503
24972W        W40441  13.758   1.639  12.779 -0.0130 -0.1224 -0.1250
24973W        W40442  12.314   2.227   5.413  0.1326  0.0052  0.0258
24974W        W40443   8.580  16.740  14.515  0.0740  0.0519 -0.1045
24975W        W40444   3.840   5.438   0.596  0.1614  0.0145 -0.2899
24976W        W40445   1.482  12.447  14.617  0.0460  0.2641  0.0680
24977W        W40446   8.914  16.810  12.817 -0.2519 -0.0368 -0.0928
24978W        W40447  17.887   0.353  11.317 -0.2444  0.2201  0.0746
24979W        W40448   9.309   8.648  10.123 -0.0633 -0.1917  0.4727
24980W        W40449  13.466   7.244  14.563 -0.1869 -0.0745  0.1482
24981W        W40450  18.292  10.279   3.040  0.2204  0.2755  0.0260
24982W        W40451  13.169   4.572   5.244  0.0878  0.1808  0.2243
24983W        W40452  13.803   1.162  12.850  0.1270 -0.0328  0.1335
24984W        W40453  15.798  14.399   0.728 -0.0632  0.1257 -0.0230
24985W        W40454   7.467  10.905  11.132 -0.3310  0.1418 -0.0732
24986W        W40455   3.710   6.543  12.130  0.0382  0.0121 -0.3487
24987W        W40456  18.144   9.129   5.204 -0.2461  0.3778 -0.0055
24988W        W40457  13.566  15.624  11.925  0.0923  0.0322 -0.1564
24989W        W40458   3.574   9.523   5.983  0.0102 -0.1784 -0.0856
24990W        W40459  15.685  10.700   4.102 -0.1594  0.0165 -0.1152
24991W        W40460   9.499   3.153   0.363 -0.1272  0.2332  0.2916
24992W        W40461  13.905  13.393   1.890  0.1591 -0.1218 -0.0764
24993W        W40462   2.803   7.994  10.993 -0.2815  0.3681  0.1125
24994W        W40463  12.970   8.198   1.860 -0.0491 -0.0668 -0.0459
24995W        W40464   1.928   2.731   3.569  0.2198  0.0670 -0.2594
24996W        W40465   6.575  15.194  15.146 -0.1609 -0.0085  0.2758
24997W        W40466   3.121   0.441   2.014 -0.0425 -0.1149 -0.1128
24998W        W40467   0.036   1.188   0.031  0.0767  0.0953 -0.0007
24999W        W40468  17.573   0.989  12.274 -0.1927  0.1562  0.1302
25000W        W40469   3.735  15.387  11.336 -0.1991 -0.2075 -0.0593
25001W        W40470   3.377   1.845  10.466  0.4916  0.0786 -0.0927
25002W        W40471   2.580  12.763   3.470 -0.2169  0.0070  0.2338
25003W        W40472  10.066  11.141  11.767  0.0009 -0.1381  0.1979
25004W        W40473  15.786   0.289   4.305  0.1479  0.1677 -0.0561
25005W        W40474   0.021  11.077  15.538  0.2313  0.1941  0.0350
25006W        W40475  13.773  17.456  10.833 -0.2354 -0.0026 -0.2619
25007W        W40476  12.806   8.272  12.913 -0.0805  0.2408 -0.2832
25008W        W40477   1.866   1.848   2.652 -0.0096 -0.0344  0.0077
25009W        W40478   1.618   6.375   1.547  0.0171  0.4058 -0.0754
25010W        W40479   0.052  16.588  13.681 -0.1953 -0.0003  0.2685
25011W        W40480   6.337  15.072  13.399  0.3302  0.3371 -0.2786
25012W        W40481   8.043  14.034  12.444 -0.0375  0.0579 -0.2883
25013W        W40482  16.669  16.411  12.169  0.0541  0.2972 -0.0983
25014W        W40483   8.959   6.687  11.146 -0.1586 -0.0556  0.0019
25015W        W40484  13.269   0.252  14.211 -0.0032 -0.3313  0.0337
25016W        W40485  17.657  13.043  13.293  0.2625 -0.1591  0.0665
25017W        W40486  11.177   4.675   0.684 -0.2176  0.1039  0.1060
25018W        W40487   0.855   1.903  13.537 -0.0269  0.1285 -0.0985
25019W        W40488  14.690  16.173  15.363 -0.1966  0.0012 -0.0872
25020W        W40489   2.899   4.525   3.508  0.1445 -0.0826  0.3281
25021W        W40490   9.174  11.066   1.783  0.2150 -0.0897 -0.2417
25022W        W40491  16.640  16.505  14.647  0.0188  0.0861 -0.3435
25023W        W40492   9.757  15.414   5.940  0.1931 -0.1468 -0.2243
25024W        W40493  13.018  17.223  15.709  0.1252 -0.1127 -0.1887
25025W        W40494   8.539  13.513   5.466  0.1302  0.1265  0.0685
25026W        W40495  12.179  16.165  15.349  0.2575  0.2313  0.2580
25027W        W40496  17.372  12.882  13.718 -0.1126 -0.1366  0.2837
25028W        W40497   7.914  16.617  15.439  0.0015 -0.3599  0.4406
25029W        W40498   7.232  15.413   0.299  0.3000  0.1902 -0.0433
25030W        W40499   4.078  16.184   4.177  0.2086  0.0497  0.3028
25031W        W40500   0.949   7.782   2.365 -0.2697  0.0958 -0.0286
25032W        W40501   6.454  15.741   3.787  0.1566 -0.0200  0.1516
25033W        W40502   5.531  10.486  11.331 -0.3101  0.0965  0.0159
25034W        W40503  16.537  15.444   4.687  0.2585 -0.0808 -0.3170
25035W        W40504  14.131  16.805   3.285 -0.0153 -0.0298 -0.0508
25036W        W40505   7.138   0.831   4.968 -0.0786  0.0546  0.1753
25037W        W40506  16.267  16.773  13.692  0.2126 -0.1311  0.0200
25038W        W40507   7.053  13.498   4.106 -0.0431 -0.0196 -0.1017
25039W        W40508   1.442   7.905   0.494  0.1873  0.2077  0.0326
25040W        W40509   2.525  12.212   0.811 -0.0131  0.1265  0.0816
25041W        W40510  15.080   0.545   2.214  0.0713  0.1478  0.1045
25042W        W40511   0.663  16.838   4.744 -0.1617 -0.3198  0.3095
25043W        W40512   5.529   7.963   3.999 -0.0083 -0.0276 -0.0042
25044W        W40513  10.208   1.232   3.537  0.0149  0.0817  0.0952
25045W        W40514  14.890  12.817   4.717  0.1006 -0.1521 -0.1263
25046W        W40515  10.719  13.168   3.883  0.0033  0.1361  0.1074
25047W        W40516  13.325  15.784  15.541 -0.0343 -0.0221  0.0181
25048W        W40517  16.149  13.735  14.491 -0.0355  0.0167  0.0415
25049W        W40518   2.607   0.424   0.454 -0.0134 -0.0547  0.0954
25050W        W40519  15.819  15.655   2.363  0.2087  0.0404 -0.0687
25051W        W40520   7.297   3.685   0.119  0.0026  0.0217 -0.3746
25052W        W40521  13.739   6.637  15.858 -0.2854  0.0067  0.3362
25053W        W40522   6.029  10.215  15.245  0.0154 -0.0053 -0.0901
25054W        W40523  17.659  12.301  12.768 -0.0221  0.3264 -0.0734
25055W        W40524   6.851  10.997  13.021 -0.0530  0.0133  0.2345
25056W        W40525  18.137   4.081  13.727  0.2796 -0.1530  0.1731
25057W        W40526   8.273  17.615   0.743  0.2354 -0.2282 -0.0201
25058W        W40527   6.569   5.724  15.980 -0.0997  0.0182 -0.2900
25059W        W40528   5.706   8.640  12.629  0.0927  0.0857 -0.2618
25060W        W40529   6.269  13.543   4.537  0.0913 -0.2990 -0.3057
25061W        W40530   1.401  16.612   1.211 -0.1399 -0.0536  0.2935
25062W        W40531   1.821   1.339   2.390 -0.0449 -0.0412  0.1350
25063W        W40532  17.244   2.555   3.441  0.1112 -0.0826 -0.1289
25064W        W40533  12.731  13.842   1.950  0.1166 -0.2185 -0.3030
25065W        W40534   0.959   8.591  12.135  0.2927  0.0200  0.1299
25066W        W40535  12.024  16.374  12.368 -0.0749 -0.1582  0.1987
25067W        W40536  12.912  14.652  15.731 -0.3317  0.0434  0.1048
25068W        W40537  11.262  16.609   5.699 -0.1156  0.0908 -0.0864
25069W        W40538   4.245   4.140  15.982 -0.0782 -0.0573  0.4315
25070W        W40539   2.843  18.204  15.609  0.0478 -0.1964 -0.2253
25071W        W40540   5.537  18.074  15.805 -0.2914  0.2142  0.2838
25072W        W40541  17.825  14.719   3.568 -0.1423 -0.1358 -0.1883
25073W        W40542   0.162  18.058  11.103 -0.2767  0.0131 -0.0725
25074W        W40543   1.836  10.994  14.350  0.3674  0.0368 -0.2458
25075W        W40544   3.835  15.361  13.231  0.3106  0.2277  0.0429
25076W        W40545  12.112   0.371  13.341 -0.1390  0.0087 -0.1653
25077W        W40546  15.723   4.614   2.057 -0.0647 -0.0229 -0.0276
25078W        W40547  10.396   1.966   1.792  0.0611  0.1963  0.0708
25079W        W40548  15.520   2.940  15.642 -0.3820 -0.0417  0.2273
25080W        W40549  10.707   1.867  12.100  0.2228  0.2856  0.2105
25081W        W40550   5.383  16.400  16.172 -0.0077 -0.1715 -0.0833
25082W        W40551  11.111  10.450   1.333 -0.1934  0.0892 -0.1340
25083W        W40552   3.206   8.637   0.846 -0.4157 -0.1550  0.0135
25084W        W40553  14.695   2.214  13.486 -0.1471 -0.4125 -0.0312
25085W        W40554   4.573   1.785  15.614 -0.0888  0.2896 -0.2271
25086W        W40555  17.486   5.785   0.436  0.1706 -0.0414  0.2536
25087W        W40556   6.506   0.511  11.054  0.0536 -0.2880  0.1269
25088W        W40557   8.489   1.604   3.114 -0.1581 -0.0741 -0.0234
25089W        W40558   0.110  16.998   0.743 -0.4335  0.1316 -0.0434
25090W        W40559  11.021   2.227  11.882  0.1625 -0.0026 -0.0595
25091W        W40560  15.477  17.721  15.027 -0.2909  0.2346  0.1743
25092W        W40561   7.013   8.833  12.312 -0.0329  0.1464  0.0299
25093W        W40562  10.784  12.172   0.324 -0.2032  0.4083 -0.0164
25094W        W40563   0.986   4.113   4.646  0.0473  0.0516  0.0228
25095W        W40564  11.501  11.304   4.729  0.1693  0.0453 -0.0490
25096W        W40565  16.310   8.431   4.213  0.1924 -0.2973  0.3590
25097W        W40566   9.505  16.911   0.534  0.1081  0.1786  0.1191
25098W        W40567  13.972  16.999   0.005 -0.1274  0.0880  0.0436
25099W        W40568  12.345   6.171  14.332 -0.1333  0.1777 -0.4267
25100W        W40569   7.020   6.641  12.502 -0.2370 -0.0339 -0.1127
25101W        W40570  11.989  17.197  16.064  0.1511  0.0448 -0.1174
25102W        W40571   6.315   3.639   1.726 -0.0174  0.2060 -0.0396
25103W        W40572  10.105  14.499   3.279 -0.4935 -0.2338 -0.3470
25104W        W40573   2.821  14.265   5.157 -0.0216  0.1514 -0.3657
25105W        W40574   4.421  16.410  12.347  0.0749  0.2189 -0.1296
25106W        W40575  11.697  11.367  12.036  0.0525 -0.0785 -0.0977
25107W        W40576  10.080   4.757   2.203  0.1586  0.2672 -0.1361
25108W        W40577   5.625   5.141  11.454 -0.0358 -0.2938 -0.1388
25109W        W40578  11.641  13.092  11.477  0.1589 -0.1913  0.1173
25110W        W40579  16.523   6.436   1.885  0.2003  0.2381  0.2895
25111W        W40580   1.074  17.114  10.940 -0.1208 -0.0145 -0.0036
25112W        W40581   4.727   7.233   0.627  0.0704  0.2724  0.2900
25113W        W40582   6.979  16.629   4.829  0.0380  0.0498 -0.0206
25114W        W40583   5.439  14.725  11.538  0.0563 -0.0623  0.0044
25115W        W40584   2.766   2.901  15.074 -0.1701 -0.0961 -0.1828
25116W        W40585   0.618   2.795  12.412 -0.2326  0.2152  0.0309
25117W        W40586  17.870   2.623   4.218 -0.2745  0.0448 -0.3303
25118W        W40587  11.758  14.244   0.548 -0.3302 -0.0724 -0.3029
25119W        W40588   2.753  12.609  11.007 -0.1699 -0.1282 -0.1434
25120W        W40589   7.635  18.058   1.503  0.0715  0.2069 -0.0012
25121W        W40590  13.541   8.878  11.383 -0.3785 -0.1281  0.2544
25122W        W40591   6.630  18.002  11.369  0.2864 -0.0044 -0.2295
25123W        W40592   0.528   1.597   5.294 -0.2096  0.1357 -0.0241
25124W        W40593  16.635  11.809   0.658 -0.1004  0.1141 -0.0877
25125W        W40594  12.607   4.226  10.116  0.0184 -0.1118 -0.0659
25126W        W40595  15.409   6.477   4.364 -0.0729  0.0475 -0.1518
25127W        W40596  15.469   2.346  15.492  0.2799 -0.0833  0.1895
25128W        W40597  16.265  12.111   5.352 -0.1829  0.2506  0.5343
25129W        W40598  11.045  15.823  12.890 -0.1377 -0.1171 -0.3396
25130W        W40599  14.990   4.055  12.014 -0.4172  0.1632 -0.2126
25131W        W40600   3.358   1.712  14.584 -0.0843  0.0746 -0.0116
25132W        W40601   4.992  14.875  13.864  0.0370 -0.0307 -0.1029
25133W        W40602   9.559  11.898  16.032 -0.1696 -0.1131 -0.1590
25134W        W40603  10.164  11.360   3.391  0.1006 -0.1827 -0.1253
25135W        W40604  15.424   5.971  12.032 -0.1923 -0.1671  0.3073
25136W        W40605  15.865   7.928   0.938  0.0758  0.0707 -0.1304
25137W        W40606   5.068  13.130   4.164  0.0830  0.1122  0.1872
25138W        W40607   3.118   3.966  12.264 -0.0694  0.3354  0.3282
25139W        W40608  10.032   0.758   1.242 -0.0905  0.1195 -0.0005
25140W        W40609  13.322   6.037  13.117 -0.2948 -0.2049 -0.0076
25141W        W40610   7.850   0.202   2.835 -0.0462  0.0082  0.0635
25142W        W40611   6.105   0.268  15.195 -0.1761 -0.1271 -0.3658
25143W        W40612  17.989   2.795  12.962  0.0144  0.2668 -0.0225
25144W        W40613   1.632   4.857  12.047 -0.0462  0.1610  0.1043
25145W        W40614   1.540   4.610   5.397 -0.2459  0.1295  0.1482
25146W        W40615  10.776  18.008   4.862  0.1434 -0.3174 -0.0647
25147W        W40616  14.396  17.049  13.463 -0.1555  0.0103 -0.0684
25148W        W40617  14.642  10.562   5.320  0.3784 -0.0205 -0.2786
25149W        W40618   5.391   9.061  10.882  0.0084  0.0473  0.0728
25150W        W40619   9.552  13.806   2.898  0.0312 -0.0560 -0.0298
25151W        W40620   2.575   2.914  11.121  0.0142  0.1255  0.1382
25152W        W40621   1.248  14.072   1.417 -0.0912  0.1150  0.1481
25153W        W40622   6.163   9.473  11.665  0.3400  0.1966 -0.2774
25154W        W40623  12.268  10.170  12.587 -0.4408  0.1903 -0.0088
25155W        W40624   7.809   6.061   2.709 -0.4991 -0.2039  0.0898
25156W        W40625   5.354  12.227   2.320  0.1013 -0.0927  0.0292
25157W        W40626  17.159   1.428   4.510 -0.0074  0.3353 -0.1038
25158W        W40627   6.744   3.021  10.028  0.1478 -0.1157 -0.1673
25159W        W40628   5.562   0.667   2.981  0.0388  0.3074 -0.0730
25160W        W40629  12.303   2.658   2.895 -0.0061 -0.1932  0.1558
25161W        W40630   5.768  11.310   4.840 -0.0941  0.0919  0.0583
25162W        W40631  17.689   3.891   2.731  0.2823 -0.0091  0.0925
25163W        W40632   2.725   2.614   0.087 -0.1344  0.2294  0.1564
25164W        W40633   2.468   2.204   4.431 -0.0645 -0.2986  0.0813
25165W        W40634   2.907   3.758   0.417 -0.0752  0.3305 -0.0323
25166W        W40635   5.203  10.066   3.288  0.0594  0.2255  0.0976
25167W        W40636  16.966   0.216   1.485 -0.0375  0.1548 -0.1219
25168W        W40637  13.321   4.888  11.743  0.5211 -0.1937 -0.1925
25169W        W40638  12.904   4.693   5.699 -0.4187 -0.0854 -0.4165
25170W        W40639  18.134   7.470   1.644  0.3452 -0.1082  0.2781
25171W        W40640   5.976  12.385   4.304 -0.0880  0.0087  0.0808
25172W        W40641  14.068   3.690  14.217  0.3416 -0.0210 -0.0768
25173W        W40642  11.521  15.859  13.426 -0.1674  0.1487 -0.2889
25174W        W40643   6.838  11.493   3.123  0.2749 -0.0276  0.0465
25175W        W40644  15.424  14.054   4.819 -0.1447  0.0855  0.0084
25176W        W40645  13.243  17.132  13.033 -0.2872 -0.0464  0.0255
25177W        W40646  12.451  17.869  14.142 -0.4029 -0.0835  0.0643
25178W        W40647   1.554  13.314  12.179 -0.3765  0.1564 -0.1060
25179W        W40648  14.518   3.932   0.709 -0.2796  0.2109 -0.0014
25180W        W40649   1.502   8.516  16.169 -0.0308  0.1839  0.0979
25181W        W40650  17.504   8.159  15.410  0.0434 -0.0690  0.0487
25182W        W40651  17.167   5.446   1.416  0.3763  0.1727  0.2566
25183W        W40652  15.689  15.153  13.948  0.0570  0.5135  0.0667
25184W        W40653   5.141   5.925  14.788  0.2460 -0.2606  0.0485
25185W        W40654  17.125  11.997  12.509  0.3652  0.0881 -0.0050
25186W        W40655  17.714  14.622  15.049 -0.1317 -0.1115 -0.3052
25187W        W40656   0.319  13.396   5.153  0.2006 -0.0492 -0.2063
25188W        W40657  15.479  15.557   1.560 -0.2375 -0.1299  0.0963
25189W        W40658  17.464  14.389   3.371  0.3593 -0.1910  0.1296
25190W        W40659   2.338  13.960  15.771  0.3048 -0.0524  0.3220
25191W        W40660   7.794   0.329   2.201 -0.3634 -0.0375 -0.0569
25192W        W40661   0.427   8.649   1.255  0.0633 -0.3514  0.0858
25193W        W40662  13.960   2.938   6.053 -0.0531 -0.0804  0.3085
25194W        W40663  15.901   0.938   1.962 -0.1108 -0.0321  0.2965
25195W        W40664  13.067  10.253  12.765 -0.1471 -0.1398  0.0479
25196W        W40665  16.030   6.060  11.115 -0.2086 -0.2094 -0.1887
25197W        W40666   8.320   4.593  14.068 -0.0814 -0.3606 -0.3945
25198W        W40667  14.589   9.199   2.755 -0.1878  0.2421  0.3844
25199W        W40668   0.362   2.895   1.214  0.0384  0.0854 -0.3581
25200W        W40669   8.804   7.731   5.365  0.0083  0.1584 -0.0786
25201W        W40670  17.673   4.365  13.890 -0.0357  0.0546 -0.2157
25202W        W40671   1.132   3.270  11.326 -0.1057 -0.1159  0.1093
25203W        W40672  16.787   5.979  13.111  0.1248 -0.0617 -0.0923
25204W        W40673   9.919   4.217   1.036 -0.3000 -0.0762 -0.0646
25205W        W40674  12.745   6.699  15.597  0.0627 -0.0652 -0.1901
25206W        W40675  17.822   8.491  12.402  0.2273 -0.1109  0.3723
25207W        W40676  17.687   8.981   2.648 -0.0548 -0.0874  0.1131
25208W        W40677   0.139   3.288   5.392 -0.0818 -0.0100  0.2542
25209W        W40678   3.056  11.516  14.882  0.1807 -0.0231  0.3372
25210W        W40679  12.443  17.213   3.027  0.1226 -0.2305  0.3119
25211W        W40680   5.464   4.105  14.904 -0.1257  0.2658 -0.0586
25212W        W40681   9.029  10.716  15.467  0.0451  0.1154 -0.0908
25213W        W40682   3.174  14.081   4.443 -0.1228 -0.0997 -0.0982
25214W        W40683  17.822  18.235  13.871  0.1002 -0.1907 -0.0584
25215W        W40684   6.951  16.323  11.879  0.0999  0.1070 -0.1198
25216W        W40685   7.299   1.859   1.946 -0.1956 -0.0474  0.1648
25217W        W40686   7.355   8.290   0.279  0.0581  0.3466  0.3920
25218W        W40687   5.403  17.814   2.565  0.0172  0.1943  0.0903
25219W        W40688  10.817   3.876  12.295 -0.3230  0.1011 -0.3735
25220W        W40689  10.055   9.900   3.143  0.0857 -0.0693  0.0360
25221W        W40690  11.374  14.377   4.998 -0.0392  0.2182  0.0075
25222W        W40691   1.759   3.123   2.493  0.0855 -0.1377 -0.2387
25223W        W40692   0.181   6.565  12.723  0.3312  0.0328 -0.0774
25224W        W40693  14.702  12.607   3.567 -0.2853 -0.0096 -0.3332
25225W        W40694   5.666  10.964   0.549  0.0734 -0.3450 -0.1256
25226W        W40695   3.070   3.694   1.870  0.1517  0.0139 -0.0752
25227W        W40696  14.362   5.163  13.098 -0.0642 -0.0307 -0.2828
25228W        W40697  17.839   5.530  10.620  0.2583 -0.2075 -0.0959
25229W        W40698   6.492   4.753  15.818  0.2224  0.3348  0.2604
25230W        W40699  17.249  17.679  14.872 -0.0004  0.1065  0.0251
25231W        W40700  14.654  13.724  12.366  0.0371 -0.0229 -0.0675
25232W        W40701   1.666   7.474   3.433  0.0738 -0.0188  0.1431
25233W        W40702   5.939  15.191   1.646  0.1283  0.1611 -0.2250
25234W        W40703   4.228  11.294  12.127  0.3428 -0.0245  0.0949
25235W        W40704  12.271   9.797  12.117 -0.0460 -0.2779  0.0850
25236W        W40705  11.378  12.567   2.078  0.0152  0.0501 -0.1903
25237W        W40706  17.953  12.033  15.657  0.1292  0.0729 -0.0413
25238W        W40707  11.337  13.286   0.216 -0.0604 -0.0175  0.1166
25239W        W40708  16.733  15.545  14.881 -0.1291  0.0183 -0.2650
25240W        W40709  17.949  11.423   3.249 -0.1708 -0.3147 -0.0094
25241W        W40710  11.627   1.201   4.907 -0.2623  0.0249  0.0403
25242W        W40711  11.864  15.647  15.941  0.1989 -0.0780 -0.1143
25243W        W40712  15.927   5.073   2.170 -0.0938  0.3440  0.0197
25244W        W40713   9.174  12.727   0.870  0.0883 -0.0210 -0.0386
25245W        W40714  16.845   6.993   1.278  0.0798  0.3984 -0.2973
25246W        W40715   6.833   4.224  12.914 -0.0858 -0.0388  0.2558
25247W        W40716   6.173   9.548  11.163 -0.2490  0.2548  0.1023
25248W        W40717  13.847   9.044  12.508 -0.2134  0.2389 -0.0073
25249W        W40718  15.746   0.703  10.576 -0.0037  0.0876 -0.2938
25250W        W40719   1.397   3.671  13.198  0.2052 -0.0819  0.2784
25251W        W40720   0.402  17.059   5.435  0.2508  0.1092  0.0108
25252W        W40721  17.946  11.389  12.557  0.2087 -0.1478 -0.2804
25253W        W40722  13.110   3.561   5.272  0.2573  0.3979 -0.1248
25254W        W40723  17.111   7.629  12.637 -0.0851 -0.2583  0.0791
25255W        W40724   7.427   1.598   2.409  0.0606  0.2263  0.2084
25256W        W40725  11.667   8.776  16.085  0.1601  0.1047 -0.1276
25257W        W40726  12.908   6.021   3.794 -0.1799  0.0563  0.0113
25258W        W40727   7.807  11.140  13.622  0.1810 -0.0627  0.1394
25259W        W40728  13.305  18.011  13.626  0.0545  0.1830  0.2162
25260W        W40729   7.835  17.014   4.735  0.0928 -0.3239  0.1977
25261W        W40730  11.321   3.355   0.050 -0.1737  0.0938  0.2183
25262W        W40731   9.769  16.626  13.239 -0.0072  0.0217  0.0298
25263W        W40732  12.985   0.866  15.627 -0.3135 -0.1522  0.0064
25264W        W40733   6.421  12.098  10.701 -0.0773  0.1171 -0.1161
25265W        W40734  15.554  10.680   5.228 -0.1033 -0.1361  0.2851
25266W        W40735  14.988  16.824   1.315  0.0397  0.1653  0.0030
25267W        W40736  13.653   8.223  12.086 -0.4577 -0.3192  0.0551
25268W        W40737   4.343  17.630  11.899  0.0750  0.0562  0.0334
25269W        W40738   1.073   8.250   2.628 -0.0413 -0.0461  0.2492
25270W        W40739   4.769  10.547   0.032  0.0386  0.2171  0.2044
25271W        W40740  16.092  13.733  13.951 -0.2490 -0.0920  0.3214
25272W        W40741   9.917  17.260  15.793  0.1566 -0.1133  0.1592
25273W        W40742  11.857   8.045  14.739 -0.2618 -0.0747  0.2190
25274W        W40743  17.044   2.180  13.712  0.0417 -0.2654 -0.1609
25275W        W40744   1.595  11.729  15.634 -0.1476  0.1232  0.0576
25276W        W40745  12.043   2.353   2.630 -0.0762 -0.2005  0.2551
25277W        W40746  10.130   5.089  13.514  0.3431  0.0705 -0.1490
25278W        W40747   5.265   0.830  16.171 -0.1956 -0.2827 -0.2347
25279W        W40748   7.658  13.946   3.884 -0.0053 -0.1943 -0.0376
25280W        W40749  11.167   5.539   1.658  0.3019 -0.0743  0.3360
25281W        W40750   1.848   0.299  14.770 -0.0530  0.4682 -0.1232
25282W        W40751  10.182   5.968  10.497 -0.2349  0.1524  0.1146
25283W        W40752   9.911  12.164   2.959  0.0102  0.1303 -0.2254
25284W        W40753   4.900   8.383   1.580 -0.0114 -0.2155 -0.0902
25285W        W40754  15.829   9.524   1.021  0.0723  0.0647  0.1494
25286W        W40755  16.149  12.412   2.771  0.2361  0.1735 -0.2175
25287W        W40756  17.527   7.094   0.202 -0.1135  0.1878 -0.1939
25288W        W40757  14.277  18.226  15.144 -0.0544  0.2282 -0.1372
25289W        W40758  11.801   7.745   0.385  0.2075 -0.0745  0.2709
25290W        W40759   5.461   8.903  15.793 -0.0145  0.1159  0.2199
25291W        W40760   3.081  12.649   1.318  0.0406  0.0033 -0.1660
25292W        W40761  12.877   4.796   3.404  0.0820 -0.0883  0.0173
25293W        W40762  18.271   1.116  11.540  0.1786  0.1017  0.3294
25294W        W40763  15.705   6.804   1.699  0.1653  0.0315 -0.1184
25295W        W40764   6.754   7.194   1.642  0.2554  0.2800  0.3390
25296W        W40765   3.832   9.409   2.908 -0.1672  0.0145 -0.1823
25297W        W40766  10.797   1.347   3.640  0.3666 -0.0585  0.0061
25298W        W40767  11.946  11.837   2.553  0.0693  0.2300  0.1497
25299W        W40768  10.849  15.170   4.280  0.1247  0.0996  0.1386
25300W        W40769  16.319   8.198  11.958  0.0146 -0.0543 -0.1672
25301W        W40770   7.214  18.016   2.470 -0.1374  0.2671  0.1122
25302W        W40771  15.606  12.291   0.607  0.1612 -0.0671 -0.0856
25303W        W40772  15.467  14.610   4.913 -0.1398  0.0083  0.1630
25304W        W40773   5.295   7.986  15.418  0.3879  0.2093  0.1288
25305W        W40774   4.419   1.760  15.163 -0.1407 -0.3277 -0.0500
25306W        W40775  17.835   5.148   0.620  0.0922  0.1467 -0.1513
25307W        W40776   9.165   0.516  15.596 -0.0659  0.0179  0.0506
25308W        W40777   6.109   8.415  12.959 -0.0088 -0.4227 -0.3543
25309W        W40778   6.128   7.373  14.982 -0.0248  0.0636 -0.1140
25310W        W40779   3.871   6.304  16.168 -0.3105 -0.1372  0.2067
25311W        W40780  13.150  15.689   3.549 -0.0398  0.1557 -0.2039
25312W        W40781   3.103   8.629   1.399 -0.0075  0.0990  0.0022
25313W        W40782  16.692  11.910   1.494 -0.0040  0.0815 -0.1609
25314W        W40783   9.513  10.606   4.946 -0.3188 -0.0970 -0.2712
25315W        W40784  14.570  13.358  13.939 -0.3987  0.0908 -0.3324
25316W        W40785   7.930   9.607   0.526 -0.1316 -0.0773 -0.0733
25317W        W40786   3.980  17.357  15.360 -0.0500  0.1094  0.1695
25318W        W40787   9.718  10.118   5.805 -0.3078  0.3217  0.1573
25319W        W40788  10.103   0.076  14.686  0.3574  0.1499  0.0082
25320W        W40789  10.244   0.516  11.975 -0.0328 -0.1964  0.3526
25321W        W40790   4.811  16.203   0.693 -0.2722  0.1221  0.2445
25322W        W40791   6.906   1.860  14.129  0.2047  0.1041 -0.2190
25323W        W40792   8.775  18.127  14.593  0.1555 -0.1285  0.0851
25324W        W40793  17.083   6.362   2.508 -0.0470  0.1514 -0.0161
25325W        W40794  12.117  17.355  14.147  0.1309 -0.2730  0.6006
25326W        W40795   0.779  18.142   3.230  0.2280  0.0990  0.0373
25327W        W40796  13.366   9.062   4.107 -0.1053 -0.0532  0.0742
25328W        W40797   5.494   1.521   0.905  0.0848 -0.1156 -0.2949
25329W        W40798  16.001   2.995  11.291 -0.0185 -0.0375 -0.1261
25330W        W40799   9.866   5.471  15.450 -0.1793  0.1290  0.1731
25331W        W40800   3.665  10.298   4.038  0.0351 -0.1716  0.2430
25332W        W40801   2.167  11.805  14.753 -0.1787  0.2636  0.0023
25333W        W40802  15.609  14.932   1.500  0.0914  0.0920  0.1555
25334W        W40803   2.381  15.725  15.077  0.0868  0.1947 -0.2531
25335W        W40804   3.293  17.514  13.838 -0.1500  0.2818 -0.0192
25336W        W40805   0.995   0.157  11.932  0.2136 -0.0091  0.0824
25337W        W40806  14.308   5.281  12.507  0.2430  0.0343 -0.2521
25338W        W40807   7.095   2.911  13.289  0.0645 -0.1673  0.4242
25339W        W40808   2.885  14.198  12.766 -0.0192  0.3647 -0.0152
25340W        W40809   0.843  16.296   0.298 -0.1149 -0.0234 -0.1465
25341W        W40810   5.279  18.243  14.711  0.1497 -0.0021 -0.1852
25342W        W40811   0.301   4.450  15.886 -0.0159 -0.0319 -0.2818
25343W        W40812   6.618  17.213  15.088 -0.0467 -0.0031  0.0337
25344W        W40813   4.943   1.942   3.755 -0.3178  0.0658  0.1155
25345W        W40814  17.591   8.515  14.594 -0.0524  0.1822 -0.2945
25346W        W40815  11.725  12.854  14.684 -0.1262  0.0015 -0.0378
25347W        W40816   8.711   0.412   4.808  0.0626  0.1043  0.0504
25348W        W40817   2.823  16.125  15.118  0.1347  0.1615  0.2174
25349W        W40818   5.924   9.617   0.228 -0.1493 -0.2877 -0.1639
25350W        W40819  10.538   8.710   4.756  0.0348  0.0371 -0.1250
25351W        W40820   8.162  15.508   1.117 -0.0627 -0.3503 -0.0237
25352W        W40821  13.123   6.570  11.745  0.0218 -0.0359 -0.1522
25353W        W40822  14.206  12.167  14.113 -0.2161 -0.1651 -0.1565
25354W        W40823  10.754   5.282   4.703  0.1072 -0.1354  0.3297
25355W        W40824   1.285   8.801  13.091  0.1461  0.3208 -0.0749
25356W        W40825  10.135   5.669  13.644  0.0519 -0.0762 -0.0223
25357W        W40826  17.633   9.714  12.652 -0.0202 -0.0350 -0.2330
25358W        W40827  15.030   1.158   2.738 -0.0811 -0.1443  0.1718
25359W        W40828   5.254  15.376   4.473 -0.0550 -0.1441 -0.0087
25360W        W40829   7.891   1.411   2.610  0.3372 -0.0678 -0.2417
25361W        W40830   5.309  10.355  14.417  0.0534 -0.0443  0.0993
25362W        W40831   9.719   4.603  12.318 -0.0204 -0.1138  0.0233
25363W        W40832  12.896   5.943  14.053  0.1007  0.1880  0.2483
25364W        W40833  10.968   8.104  13.501  0.4101  0.0965  0.2202
25365W        W40834   1.855   9.507   4.056  0.0320 -0.0291 -0.2683
25366W        W40835  15.861  11.063   5.318 -0.1692 -0.3762 -0.0568
25367W        W40836  17.567  12.851   2.365 -0.2123  0.0602 -0.1514
25368W        W40837  12.168  11.759  15.290 -0.1798  0.3835 -0.0542
25369W        W40838  12.824   1.980   2.227  0.1806  0.0287 -0.0289
25370W        W40839   1.540  12.343  10.933 -0.2537 -0.0626 -0.1267
25371W        W40840   7.095   9.271   3.622 -0.1148 -0.3055 -0.1027
25372W        W40841   1.505   1.532  16.023  0.1292 -0.3756  0.1083
25373W        W40842   9.208   4.306  15.347 -0.1779 -0.0284  0.0026
25374W        W40843   8.929   4.512  13.239 -0.1036 -0.2169  0.0932
25375W        W40844   6.104   9.372  10.597 -0.3455 -0.4018  0.0021
25376W        W40845   9.530  11.474  10.798  0.3257  0.0249  0.0473
25377W        W40846   2.674   2.400   1.515 -0.2959  0.2353  0.1461
25378W        W40847  12.829  14.530  13.411  0.0059  0.3278 -0.1696
25379W        W40848   8.669   9.517  12.654 -0.0872  0.3339  0.2266
25380W        W40849   6.189  14.487   4.683  0.1397 -0.1372  0.2202
25381W        W40850   5.471  15.670  13.616  0.0938 -0.0745 -0.1079
25382W        W40851  12.230  14.416   4.753 -0.0663  0.0592 -0.1271
25383W        W40852   0.362  14.164   2.115  0.0198 -0.0365 -0.2822
25384W        W40853   7.443   8.472   5.229  0.1806  0.0387 -0.1536
25385W        W40854  10.911   9.158   1.662  0.0695 -0.1325 -0.0403
25386W        W40855   0.090   2.604  11.743 -0.0145  0.1546 -0.3724
25387W        W40856  17.129   3.525  14.970  0.1532 -0.0366  0.1649
25388W        W40857  12.820   7.125  13.735 -0.1687 -0.2659 -0.2802
25389W        W40858   1.288  15.623  10.811  0.1899  0.2039  0.0805
25390W        W40859   5.840  14.588  14.091 -0.2049 -0.2582  0.0117
25391W        W40860   5.432   9.406  15.739 -0.1506 -0.1228  0.4377
25392W        W40861  15.876   7.229   1.918 -0.2328  0.4121 -0.2140
25393W        W40862   9.172  15.690  15.057  0.0360 -0.0278 -0.2064
25394W        W40863   0.725  12.684   2.345 -0.1252  0.3210  0.2170
25395W        W40864  10.697  13.131  12.573 -0.0305  0.0930 -0.1325
25396W        W40865   9.688  11.320   3.582  0.3204  0.0394  0.0959
25397W        W40866  14.846  16.939  13.300 -0.1979 -0.1501  0.0845
25398W        W40867   7.352  14.628  14.062 -0.0198 -0.0985  0.0083
25399W        W40868  17.237   9.579   0.961 -0.0754  0.1784 -0.0067
25400W        W40869   4.508  12.478  13.412 -0.2199 -0.2172  0.1334
25401W        W40870  15.645   5.204  12.118 -0.3800  0.0931  0.0703
25402W        W40871  10.296   8.388   1.447 -0.0817  0.2573  0.0658
25403W        W40872   7.964   3.630   4.500 -0.2135 -0.0340  0.0315
25404W        W40873  17.168   8.132   0.648  0.1652  0.1971  0.0877
25405W        W40874   0.048   3.032   4.897  0.0276 -0.0542  0.0891
25406W        W40875  14.336   2.183   1.200 -0.2679 -0.3299  0.2631
25407W        W40876  12.632   6.466  15.102 -0.0049  0.0102 -0.0847
25408W        W40877   8.944   8.862  13.198 -0.2833  0.0265  0.2103
25409W        W40878   9.222  17.940  14.497 -0.3185  0.2417  0.1748
25410W        W40879   5.668  17.430   3.271  0.0187 -0.0976 -0.0886
25411W        W40880  16.311  17.570   2.235 -0.3675  0.2136  0.1704
25412W        W40881   1.016  14.666   3.811 -0.3215  0.1317  0.0780
25413W        W40882  11.260  13.947  11.417 -0.3916  0.0469 -0.0948
25414W        W40883   4.376   6.508  10.901 -0.0200 -0.0890 -0.1022
25415W        W40884  17.819  17.836  16.124 -0.2653  0.0508  0.1317
25416W        W40885  10.054  17.163   6.258  0.1872 -0.0123  0.1769
25417W        W40886  17.442  10.874   5.065  0.1565 -0.2866  0.3863
25418W        W40887   3.467   1.181   3.474  0.1580  0.4120 -0.3547
25419W        W40888   8.790  13.213  16.027 -0.2015  0.2908  0.0890
25420W        W40889  10.334   6.978   3.627  0.3472 -0.2699  0.1434
25421W        W40890  12.616   9.052  11.718  0.0528  0.2525 -0.0387
25422W        W40891   7.014  12.838  13.704  0.2091  0.0561 -0.1471
25423W        W40892  14.412  17.236  15.270 -0.1561  0.3130 -0.2411
25424W        W40893   5.384   4.819   4.784  0.2619 -0.1207  0.2639
25425W        W40894  12.801   8.257  12.180  0.1805 -0.1385  0.0175
25426W        W40895   7.107  12.504  15.442  0.2297 -0.0538 -0.0645
25427W        W40896  10.685   0.249   1.581 -0.2600  0.0321  0.0667
25428W        W40897   0.450   3.629  15.237 -0.1079 -0.2828 -0.3675
25429W        W40898  17.147   0.026   0.986  0.1436  0.1541 -0.0206
25430W        W40899  13.291   4.663   1.211 -0.1120 -0.2744 -0.0878
25431W        W40900  10.083  11.928   4.732  0.2426 -0.4368  0.5221
25432W        W40901   9.031  10.600   1.925 -0.1105 -0.1320 -0.1222
25433W        W40902  17.646   0.979   5.171  0.3130 -0.3569 -0.0027
25434W        W40903   0.349   1.899   1.175 -0.0928 -0.1314  0.0933
25435W        W40904   9.928  16.062   0.968  0.1268 -0.0797  0.2277
25436W        W40905   3.853  13.528  14.955 -0.2287  0.3180 -0.0690
25437W        W40906  13.225  16.443   0.749 -0.1201 -0.0218  0.1505
25438W        W40907   6.568  15.301  11.244 -0.1743  0.1339  0.0840
25439W        W40908  17.370   1.475   0.441 -0.0082  0.0953  0.1844
25440W        W40909   3.041   7.242   3.215  0.0303 -0.1184 -0.2060
25441W        W40910  13.353   5.857  14.156 -0.0420 -0.2193 -0.0174
25442W        W40911   8.733   6.858   2.073 -0.2510  0.2237  0.3079
25443W        W40912   5.194   8.801  15.069 -0.3157 -0.1585  0.0428
25444W        W40913   8.962  10.650  12.036 -0.0378  0.0204  0.0350
25445W        W40914  17.768   8.427   5.514 -0.1000  0.0508 -0.1466
25446W        W40915   2.533   5.206   3.979  0.0310 -0.0422  0.0174
25447W        W40916  14.409  16.666   5.259  0.0340 -0.2168  0.2485
25448W        W40917  14.966  17.926  12.043  0.2064 -0.0761  0.5505
25449W        W40918   0.110  12.828   1.690 -0.2053 -0.0944 -0.0248
25450W        W40919  17.020   3.105   3.173  0.1333  0.0244 -0.1367
25451W        W40920  15.652   6.087   1.074 -0.2253  0.4176 -0.0562
25452W        W40921   3.373  10.970  12.551 -0.0824  0.1904 -0.1369
25453W        W40922   0.724   4.124   1.578  0.0186 -0.0106 -0.3767
25454W        W40923   2.639  15.311  15.287  0.3813 -0.1500 -0.0580
25455W        W40924  13.142  11.517  15.361  0.1682 -0.3600  0.1379
25456W        W40925  11.888   6.367   4.668 -0.4347 -0.0997 -0.1179
25457W        W40926   0.278   9.509   2.425  0.4908  0.3294 -0.2497
25458W        W40927  10.128  16.139   2.279  0.0274 -0.1747  0.0029
25459W        W40928   2.507   1.577  15.451 -0.1967  0.0308  0.1228
25460W        W40929   6.785   6.568   0.774  0.0970  0.0827  0.0022
25461W        W40930   8.705  18.004   5.438 -0.2909  0.0619  0.0837
25462W        W40931   0.555   2.992   5.190  0.0956  0.0352  0.4027
25463W        W40932  17.043  15.205   3.790 -0.3385  0.1237 -0.2501
25464W        W40933   1.583  11.904   5.048 -0.0161  0.0846  0.1818
25465W        W40934   9.426   7.488  12.438  0.0725  0.1368  0.1305
25466W        W40935  10.414   6.116   1.957  0.0227 -0.2684 -0.0942
25467W        W40936   7.104   4.598   1.862  0.0371 -0.2623 -0.1808
25468W        W40937  12.914  18.183  14.112  0.1795  0.0363  0.0482
25469W        W40938   5.161  17.217   1.968 -0.1159 -0.0923 -0.0925
25470W        W40939   6.432   8.561   2.380  0.1258 -0.2101 -0.2283
25471W        W40940   2.681   5.778  15.129  0.1005  0.2737 -0.0650
25472W        W40941  18.102   4.089  16.072  0.3736  0.4271 -0.0996
25473W        W40942  14.978   8.296  12.688 -0.1762 -0.3158  0.2374
25474W        W40943  10.944   3.726  14.215 -0.0219  0.2497 -0.0726
25475W        W40944  16.511  14.590   3.442 -0.1713 -0.0014  0.4428
25476W        W40945  17.041  12.282  14.583  0.0318 -0.1577  0.1486
25477W        W40946  15.257   3.126  13.599  0.0815 -0.2212 -0.3256
25478W        W40947  16.921   6.093   3.840 -0.1755  0.0947 -0.3123
25479W        W40948   0.983  13.807  15.374 -0.4216  0.0507  0.0730
25480W        W40949   6.398   2.959   5.824 -0.0050  0.1572 -0.0125
25481W        W40950   7.953  16.471  13.941  0.0251 -0.1430  0.0850
25482W        W40951   7.139  15.125   3.889  0.0022 -0.0180  0.1484
25483W        W40952  16.942  14.032   0.907  0.1315  0.2248  0.0580
25484W        W40953   7.555  10.821   3.016 -0.0447 -0.1810  0.0704
25485W        W40954   7.374  12.337   2.246  0.2197 -0.0836 -0.0989
25486W        W40955  12.770  15.867  14.198  0.0673 -0.1607 -0.0222
25487W        W40956   7.404   5.505  15.991 -0.5854  0.0365  0.0189
25488W        W40957  13.531   7.023   2.283  0.2176 -0.0519  0.2467
25489W        W40958   7.910   4.182   2.129  0.2738  0.1377  0.0490
25490W        W40959  14.529  16.540  13.543  0.2886 -0.1236  0.0250
25491W        W40960   3.789  17.069  12.885 -0.1633  0.1856  0.0238
25492W        W40961   4.658   2.281   1.699 -0.0094  0.2599 -0.0438
25493W        W40962   9.096   2.002  14.477  0.2272 -0.0506 -0.1201
25494W        W40963  17.546  11.760  11.864  0.2737 -0.0104  0.0252
25495W        W40964  11.936   3.927   0.829  0.0781  0.2322 -0.0079
25496W        W40965   1.079   9.776   0.780  0.2125 -0.1303 -0.1363
25497W        W40966   0.627   8.457   0.415  0.1685  0.1510 -0.1785
25498W        W40967  13.563   9.311  11.736  0.0412 -0.0348 -0.1171
25499W        W40968   7.061  15.347  13.388 -0.1499  0.0897 -0.2360
25500W        W40969   0.614  10.288   5.104  0.2367  0.0664 -0.1037
25501W        W40970   1.368  14.268   4.804 -0.2194  0.0459 -0.1140
25502W        W40971   6.265   3.237   3.642 -0.0637 -0.1442  0.1914
25503W        W40972   6.075  17.800   1.005  0.1145  0.2187 -0.0501
25504W        W40973   1.714   8.733  13.319 -0.1472  0.3506  0.0588
25505W        W40974   1.878  15.498  13.701 -0.1630 -0.2168 -0.1946
25506W        W40975  11.856  11.599  10.989 -0.0869 -0.0776  0.0226
25507W        W40976   1.843   2.859  15.270  0.0346  0.1263 -0.0204
25508W        W40977   2.042  17.204   2.244  0.1502 -0.0436 -0.4162
25509W        W40978   3.635   9.941  13.029  0.0351  0.0380 -0.0690
25510W        W40979  18.293   8.858  12.352 -0.0536 -0.2569  0.2957
25511W        W40980  15.252   3.423   4.627  0.0615  0.0285 -0.1993
25512W        W40981   9.854  16.462   0.635  0.0390 -0.1634  0.0561
25513W        W40982  17.511  12.667   0.749 -0.1328  0.1172  0.2016
25514W        W40983  12.304  13.188  14.925 -0.0020 -0.0539  0.0390
25515W        W40984  15.910  14.188   5.450  0.1701 -0.2417  0.0324
25516W        W40985  13.885   6.649   2.416  0.1936  0.1836  0.0515
25517W        W40986  12.184   8.733  14.595 -0.0359  0.2173  0.1006
25518W        W40987  13.132  11.127   2.544 -0.0444  0.3187 -0.0851
25519W        W40988  17.989   5.757  15.813 -0.3589 -0.0359  0.0176
25520W        W40989  11.156  11.433  16.153  0.0376 -0.0583 -0.0798
25521W        W40990  16.580  14.036  14.675 -0.1141 -0.3287  0.4300
25522W        W40991   1.163  18.283   2.266 -0.1905 -0.2530 -0.0296
25523W        W40992  14.467   9.250  12.841  0.1235 -0.0569  0.2171
25524W        W40993  11.410   4.189   2.168 -0.1414 -0.3600 -0.0124
25525W        W40994  13.568   7.648   0.856 -0.0718 -0.1747  0.1043
25526W        W40995  14.522  10.929  15.991  0.0449 -0.3618 -0.2735
25527W        W40996  16.720  17.254  12.719  0.0383  0.2066  0.1131
25528W        W40997   1.788   5.953  15.379 -0.0996  0.0643 -0.1119
25529W        W40998   8.289  11.777   4.696  0.0265 -0.1480 -0.1432
25530W        W40999   3.086   6.406   5.477  0.0597 -0.0243 -0.0204
25531W        W41000   6.934   6.125   4.666 -0.1194 -0.0386  0.1216
25532W        W41001  17.125   3.095   3.668 -0.1719 -0.2532 -0.1891
25533W        W41002  14.592  14.070  16.074 -0.0323  0.0881  0.1354
25534W        W41003  14.579  16.785   3.733  0.0198 -0.0694 -0.2262
25535W        W41004   2.050  16.146  11.182 -0.0424  0.2612 -0.0494
25536W        W41005  12.752   3.602  14.442  0.1395  0.1571  0.0742
25537W        W41006  14.224   2.328   4.244 -0.1752  0.2241 -0.0240
25538W        W41007   9.584   1.634   2.332 -0.1874  0.0328 -0.2528
25539W        W41008   1.667   0.569  11.741  0.1541 -0.0506 -0.1021
25540W        W41009   7.216   3.198   3.093  0.1016  0.0230 -0.2576
25541W        W41010  15.914  13.455  13.616 -0.0783 -0.0352 -0.3382
25542W        W41011   6.173  17.548   1.878 -0.1590  0.0388 -0.1321
25543W        W41012  16.561   3.154   0.742  0.0668 -0.0699 -0.0617
25544W        W41013  12.656  10.886   2.446 -0.0209  0.2005 -0.1821
25545W        W41014   6.310  15.245   0.189  0.1790 -0.0570 -0.0303
25546W        W41015   9.330  16.316   4.120  0.0212  0.0789 -0.1143
25547W        W41016  10.671   3.861   3.602 -0.1050 -0.0808 -0.0662
25548W        W41017   6.460  17.660  11.064  0.0102 -0.0494  0.3603
25549W        W41018  12.003  15.060   5.965 -0.0668 -0.1687  0.0805
25550W        W41019   6.965   3.485   0.996 -0.2169  0.1382  0.0285
25551W        W41020  11.188  13.469  15.900 -0.2398 -0.1439  0.2238
25552W        W41021  10.776  11.193   1.826 -0.1111  0.1843  0.0678
25553W        W41022  14.919  10.998  11.899 -0.2978  0.0212 -0.0226
25554W        W41023  15.804  18.100  14.940  0.1388 -0.0362  0.1183
25555W        W41024  17.306  13.734  10.848  0.0995 -0.1129  0.0212
25556W        W41025  10.122   3.693   0.898  0.2008 -0.0692 -0.0713
25557W        W41026   0.123   3.643  13.430  0.1779  0.4718 -0.0213
25558W        W41027   0.057   1.919   2.158 -0.0935 -0.0102  0.2237
25559W        W41028   0.871  17.970   5.421 -0.0568 -0.1398  0.2990
25560W        W41029   1.041  15.583   9.809 -0.0348  0.0390  0.2173
25561W        W41030  12.530   1.783  15.623 -0.2695  0.0402 -0.0992
25562W        W41031  14.122  13.322   2.359  0.1029 -0.1967  0.0438
25563W        W41032  12.846   2.024  15.331  0.0784 -0.0311  0.0947
25564W        W41033  13.417   1.437  14.943  0.1459  0.5339  0.3831
25565W        W41034   2.469   0.687  13.085 -0.3236 -0.1588  0.2319
25566W        W41035  10.913  14.327   1.866 -0.0951 -0.0035  0.3398
25567W        W41036   4.299  15.943   1.468  0.1485  0.2122 -0.4510
25568W        W41037   7.427   1.004   4.185  0.2277  0.1830  0.0167
25569W        W41038  17.169   9.950  12.669 -0.1939 -0.0307  0.3334
25570W        W41039   6.063   6.956   3.379 -0.1365 -0.0404  0.3520
25571W        W41040   9.888   5.707   5.721 -0.0470 -0.2245 -0.1460
25572W        W41041  15.723   9.949   1.557  0.0564 -0.3085 -0.1197
25573W        W41042  15.804  17.750   4.804 -0.3033  0.0559 -0.2194
25574W        W41043   0.976  12.968   5.175  0.0875  0.0463  0.1452
25575W        W41044  15.124  11.075   3.518 -0.1069 -0.0194  0.1312
25576W        W41045   2.506  11.799  12.782  0.2619  0.2464 -0.1502
25577W        W41046   0.370   6.875  15.620 -0.0506 -0.3312 -0.2658
25578W        W41047  17.925  18.131  14.986  0.0667 -0.1937  0.1707
25579W        W41048  16.832  14.743  13.600 -0.2001 -0.0394  0.0528
25580W        W41049   7.910  11.321  11.612 -0.0256  0.0902 -0.0915
25581W        W41050   0.097  16.048   3.818 -0.1875 -0.2451 -0.1366
25582W        W41051   1.013  17.235   4.046  0.1163  0.2281  0.2850
25583W        W41052   4.708   7.069   3.347 -0.0514 -0.1144  0.1503
25584W        W41053  16.302  14.690  11.250 -0.0232 -0.1721  0.0616
25585W        W41054  15.949  17.507  15.034  0.1859 -0.1920 -0.1072
25586W        W41055   9.654  15.505   3.592  0.0650 -0.1356 -0.0540
25587W        W41056  16.829   5.583  13.920 -0.1048 -0.3150 -0.0831
25588W        W41057  14.580  12.431  12.704  0.5247 -0.2289 -0.1597
25589W        W41058   3.788  15.194   5.690 -0.4659  0.1737  0.0253
25590W        W41059  15.369   2.850   3.324  0.0465  0.1854  0.2019
25591W        W41060  16.953   8.671  13.203  0.3536 -0.0562 -0.0332
25592W        W41061   9.205  17.006  11.935 -0.0468  0.1657 -0.0897
25593W        W41062   2.468  15.129  11.895  0.1540 -0.2279  0.2409
25594W        W41063   4.352   5.211  13.125 -0.2516 -0.2375  0.2963
25595W        W41064  17.864   6.259   1.351 -0.0716  0.1676  0.0067
25596W        W41065   4.603   7.997   0.503  0.2501  0.1846 -0.4638
25597W        W41066  13.660  17.494   4.763 -0.0588  0.3449 -0.0867
25598W        W41067   2.823   1.001  12.123  0.0243 -0.2833 -0.1517
25599W        W41068   4.455   8.222  11.858  0.1068 -0.1603 -0.2148
25600W        W41069  16.429  18.231   4.821 -0.0741 -0.0263 -0.0883
25601W        W41070   1.232   6.479   0.333  0.0894 -0.2544  0.0193
25602W        W41071   1.389  14.247  14.505  0.4203  0.0386 -0.2910
25603W        W41072   5.916  15.399   0.530 -0.1133  0.0323 -0.1085
25604W        W41073   2.016   4.304  14.985  0.0082  0.1516 -0.2285
25605W        W41074   2.813  10.157   0.331  0.1194 -0.2637  0.1994
25606W        W41075   0.071   3.704  13.962 -0.1166  0.3311 -0.1669
25607W        W41076  13.785   5.710  14.287  0.0561  0.1734 -0.1627
25608W        W41077  15.281   5.323   2.143  0.0503  0.1366  0.2546
25609W        W41078   7.123  17.916   2.948 -0.1036 -0.2062  0.4255
25610W        W41079  11.209  13.318   2.504  0.0254 -0.1322 -0.1077
25611W        W41080  16.951   0.377   5.355  0.0535 -0.0155 -0.0623
25612W        W41081  15.429   5.235   2.563 -0.0181 -0.0233 -0.2029
25613W        W41082   0.657   2.620   3.734 -0.1088  0.1119 -0.2963
25614W        W41083  12.615   5.929   1.634  0.2164 -0.1298  0.1744
25615W        W41084   7.155  16.340  10.348  0.0644  0.1618 -0.1316
25616W        W41085  17.590  15.725  13.514  0.1156 -0.0612 -0.2539
25617W        W41086   7.389   9.641   2.749 -0.2601  0.3280 -0.0911
25618W        W41087   7.592  10.073  11.696  0.1467  0.1655 -0.1706
25619W        W41088   3.422  14.835  13.702  0.0559 -0.2406 -0.1750
25620W        W41089   7.082  13.570  10.735  0.0126 -0.2625 -0.1264
25621W        W41090   9.922  15.934  11.649  0.0097  0.0685 -0.0169
25622W        W41091  10.506   1.687   1.387  0.0378 -0.0461 -0.4092
25623W        W41092   9.777  16.445   4.972 -0.0282 -0.0034  0.1300
25624W        W41093   9.502   3.298  12.458  0.1370 -0.1952  0.0200
25625W        W41094  16.166  15.409  16.022  0.2332 -0.0719 -0.0887
25626W        W41095   5.184   5.961  13.993  0.0097 -0.4074 -0.0726
25627W        W41096  13.267   1.111   1.870 -0.1130  0.0103  0.6006
25628W        W41097  13.426  11.594   5.094 -0.0387  0.0208  0.1600
25629W        W41098   8.269   9.103   4.466  0.1543  0.1928 -0.0586
25630W        W41099   9.291   9.789   6.074  0.0640 -0.1739  0.0960
25631W        W41100   1.191  10.209   4.486  0.1414 -0.0042 -0.3642
25632W        W41101  14.136  14.543  15.540  0.2104 -0.1662 -0.0117
25633W        W41102   5.115   0.021  16.142  0.1307 -0.1182  0.2101
25634W        W41103   3.411   5.543   0.836  0.1617 -0.3112 -0.1373
25635W        W41104   4.980  17.503  15.176  0.2285  0.1063  0.1087
25636W        W41105   9.318   6.401  10.816  0.1350  0.0321 -0.1263
25637W        W41106   1.634  14.988   4.115 -0.0836  0.1426  0.1539
25638W        W41107  16.355  17.833  11.477  0.0248 -0.0417  0.1638
25639W        W41108  17.620   4.225  14.570 -0.1396  0.1250 -0.2058
25640W        W41109   0.389   7.385  12.339 -0.3853  0.0103 -0.1907
25641W        W41110   5.662  15.236  14.946 -0.0831 -0.1094 -0.0666
25642W        W41111   3.628   6.477   5.052  0.1743 -0.2152  0.2893
25643W        W41112  16.850   8.082   2.945  0.0687 -0.2234 -0.0137
25644W        W41113  15.574   5.578   3.350 -0.1291  0.0674 -0.0347
25645W        W41114   5.791  10.481   2.228 -0.2801 -0.0460  0.2079
25646W        W41115   0.923   6.980   1.699  0.0076  0.0147  0.0846
25647W        W41116   0.602   4.490  13.912  0.3062 -0.1363  0.0594
25648W        W41117   9.512   4.682  11.785 -0.0043 -0.1396  0.1042
25649W        W41118   3.101  13.672  12.702 -0.1072 -0.0156 -0.0900
25650W        W41119  13.776   0.201   3.576  0.1835 -0.2636  0.0414
25651W        W41120  10.849  12.531   4.666 -0.2302  0.2968  0.1429
25652W        W41121   5.932   7.232  11.275  0.2174 -0.3311  0.0594
25653W        W41122   3.868   6.214   4.669 -0.2245  0.0348  0.0736
25654W        W41123  12.720   8.288   0.761  0.2601  0.0453  0.2746
25655W        W41124  10.569   0.835   3.452 -0.0274 -0.1918 -0.1490
25656W        W41125   1.968  10.088   0.204 -0.1048 -0.2313 -0.1183
25657W        W41126   4.636  14.142  12.447  0.0802 -0.0138  0.2737
25658W        W41127   0.447  14.536   0.935  0.1960  0.0034 -0.3332
25659W        W41128   2.006   0.282   1.673 -0.2011 -0.0475 -0.1420
25660W        W41129  15.270   6.358   0.756 -0.1718 -0.1549 -0.1320
25661W        W41130   0.774  17.116   2.788  0.0792 -0.3514 -0.0024
25662W        W41131  15.422  15.882   5.868  0.1390 -0.1683 -0.0760
25663W        W41132  12.039  11.153  15.655 -0.1203  0.0920  0.1048
25664W        W41133   1.652   0.634  15.207  0.3499 -0.1711  0.0590
25665W        W41134   0.392   0.129  14.689 -0.3162  0.1185  0.0047
25666W        W41135  15.327   9.930  14.606  0.0031  0.1287  0.4497
25667W        W41136  11.108   8.937  11.890 -0.0529 -0.1009 -0.3141
25668W        W41137   2.385  11.395   1.391 -0.2723 -0.1979 -0.1171
25669W        W41138  15.457   9.637   2.488 -0.4663  0.0676  0.0979
25670W        W41139   4.627   7.145  15.346  0.0615 -0.0933  0.3078
25671W        W41140   1.610   7.801  11.880  0.0105  0.1821 -0.1441
25672W        W41141   3.684   1.243  13.402 -0.0636 -0.0544  0.1162
25673W        W41142   6.564   3.105  13.639 -0.0702  0.0765  0.0316
25674W        W41143  16.564   0.969  14.254  0.0400 -0.0410 -0.0334
25675W        W41144  13.226  14.196  12.213  0.0514  0.0659  0.3444
25676W        W41145   5.688   1.610  13.288  0.2139  0.2916 -0.2305
25677W        W41146  16.631   8.416   0.945 -0.0817  0.1734  0.0608
25678W        W41147  17.206   8.240  13.352  0.0237  0.0388 -0.1623
25679W        W41148  14.130   9.956  15.423 -0.0906  0.1787 -0.0011
25680W        W41149   6.153  11.731   1.069  0.1735 -0.0479 -0.0144
25681W        W41150   9.457  16.659  12.279  0.1827 -0.2096  0.0214
25682W        W41151   5.992   3.753   4.464  0.3382  0.0004  0.1291
25683W        W41152   6.699  17.334   0.585 -0.0165  0.0093 -0.4229
25684W        W41153  16.099   6.863  16.149  0.2742  0.1464 -0.0421
25685W        W41154  10.998   3.851  14.662  0.0280  0.2628 -0.2273
25686W        W41155  18.076   0.675  11.674 -0.2143  0.0364 -0.0774
25687W        W41156   8.709  10.434  12.463 -0.2668  0.0604  0.2901
25688W        W41157   6.989  12.124  15.769 -0.2544  0.0768  0.0456
25689W        W41158   1.869   2.442   2.007  0.4094  0.0750 -0.3604
25690W        W41159  13.107  17.360   1.951  0.1722  0.0672 -0.2124
25691W        W41160   3.843   3.172  10.711 -0.0765  0.2514 -0.1895
25692W        W41161  17.522   8.004   1.214  0.3047  0.0559 -0.2203
25693W        W41162   9.766   3.392  11.383  0.1181  0.0885 -0.2334
25694W        W41163  14.904   2.535   5.044 -0.0997  0.0236 -0.0425
25695W        W41164   0.849  12.939   3.698 -0.2828 -0.1339 -0.2243
25696W        W41165   5.671  17.823   4.224  0.1422  0.2652 -0.1045
25697W        W41166  12.789   3.670  12.158  0.0753  0.0799 -0.1885
25698W        W41167   1.585  14.808  11.557  0.3939 -0.1308 -0.1504
25699W        W41168  15.934   0.295   1.089 -0.0538 -0.1763  0.0126
25700W        W41169   8.033  10.064  12.148  0.1171 -0.2596 -0.1626
25701W        W41170   7.360  11.940   0.059 -0.3037 -0.1191 -0.0167
25702W        W41171   7.631   4.086  13.591  0.0024  0.1606  0.0931
25703W        W41172  12.623   1.229  13.936  0.0196 -0.0991 -0.2546
25704W        W41173  14.276   1.030   1.898  0.1513 -0.0055  0.0005
25705W        W41174   2.136  11.676   1.721  0.1298 -0.1051 -0.1325
25706W        W41175  14.493  17.732  15.190  0.1209 -0.1418  0.1956
25707W        W41176   0.909   3.068   4.370  0.0411 -0.0476  0.1111
25708W        W41177   3.271   1.008  12.359 -0.1741 -0.2234  0.1815
25709W        W41178   2.420  15.473  13.203  0.2328  0.2326 -0.1756
25710W        W41179   7.630  11.328  12.412 -0.0653  0.2302  0.1523
25711W        W41180  15.193   6.939  11.104 -0.2088  0.1679 -0.0144
25712W        W41181   2.092  12.031   3.447  0.2207 -0.0456 -0.0036
25713W        W41182  15.567   1.319   5.156 -0.1507  0.2190  0.0906
25714W        W41183   9.427  16.648  14.309 -0.0990  0.1458 -0.2901
25715W        W41184  11.023   5.967   1.361 -0.3273  0.1297 -0.0139
25716W        W41185  11.476   3.736   5.445 -0.0468  0.0053  0.0113
25717W        W41186  14.787  16.300  12.312 -0.0092 -0.0238  0.2540
25718W        W41187  12.162   5.824  13.774  0.1120  0.2009  0.1242
25719W        W41188   7.460  10.280  12.627 -0.0058  0.0267  0.0091
25720W        W41189  10.283   6.900  15.375 -0.0379  0.0973 -0.0701
25721W        W41190   8.980  14.709  12.464  0.2234  0.0508 -0.1623
25722W        W41191  17.256  15.341  13.460  0.1738  0.1266 -0.1729
25723W        W41192   0.564  11.981  11.278 -0.2541  0.0662 -0.1655
25724W        W41193  14.106   0.687  15.694  0.5112  0.0012  0.3502
25725W        W41194  16.978  13.795   3.514 -0.1850 -0.1955 -0.0895
25726W        W41195   6.827   1.427   0.603  0.1435 -0.0783 -0.2579
25727W        W41196  12.582  14.306   3.923  0.0545 -0.0698 -0.3460
25728W        W41197   1.277   1.739  12.630  0.1059 -0.1602 -0.1975
25729W        W41198  12.172  17.714   2.863  0.1408  0.0328  0.0132
25730W        W41199   6.380  14.979   0.959  0.0598 -0.1085  0.0625
25731W        W41200  15.304   1.397  12.365 -0.3034 -0.1174 -0.3203
25732W        W41201  13.846  13.297   0.659 -0.1881  0.0023 -0.1471
25733W        W41202   9.356  13.907   5.231 -0.0969  0.1489 -0.0991
25734W        W41203   1.683  17.081  13.134 -0.0482  0.0431 -0.1252
25735W        W41204   6.823  10.138   0.519 -0.0845  0.0805  0.1317
25736W        W41205  18.291  15.973   0.456 -0.1016 -0.1407 -0.1751
25737W        W41206  10.626   2.121  16.043 -0.0988  0.2541 -0.0009
25738W        W41207  13.686  11.185   1.148 -0.1724  0.0116 -0.2946
25739W        W41208   9.545   8.259  14.919 -0.0925  0.0919  0.1878
25740W        W41209   0.809   2.318   0.440  0.0481  0.2694 -0.1665
25741W        W41210  15.847   2.805   2.209  0.1466  0.1377  0.0458
25742W        W41211  13.083   0.106   5.539 -0.2166 -0.1400  0.0988
25743W        W41212  10.425   3.286  13.518 -0.0498  0.0695 -0.0962
25744W        W41213   3.527   0.118  14.234  0.0495 -0.4512 -0.0693
25745W        W41214   3.850  16.640   3.955  0.1924  0.1475 -0.1025
25746W        W41215   1.022  10.995  15.514 -0.2120  0.1603  0.1367
25747W        W41216  18.075  12.388  14.494  0.2498  0.0493  0.0851
25748W        W41217   6.374   6.933   3.965 -0.1649 -0.1061  0.0802
25749W        W41218  13.347   1.708  10.469 -0.1197  0.0834 -0.4429
25750W        W41219  11.073  11.964   4.190  0.2790 -0.2649  0.0564
25751W        W41220   1.215  17.265   2.623 -0.0173 -0.0557  0.4037
25752W        W41221   8.625   3.692   1.534 -0.3325  0.0878 -0.0211
25753W        W41222  10.145  13.854   3.181 -0.0347 -0.0598  0.0097
25754W        W41223   0.556  17.108  13.146  0.0131  0.0697 -0.0620
25755W        W41224  14.138  15.521   6.412 -0.0908 -0.0654 -0.0397
25756W        W41225   3.967   5.812   4.399  0.2686 -0.0096  0.1136
25757W        W41226  14.219  10.334  12.672 -0.1323  0.0046  0.0281
25758W        W41227   7.874   1.457  15.893  0.0571 -0.2083  0.0567
25759W        W41228  14.893   1.722  11.009 -0.1957 -0.0709  0.1966
25760W        W41229   7.275  16.751  11.414 -0.0271  0.1266  0.1107
25761W        W41230   9.455  14.464   1.801 -0.1650  0.0398 -0.1832
25762W        W41231  15.866   9.712  12.607 -0.1554  0.1063  0.1456
25763W        W41232  11.002  17.937   0.547 -0.1408  0.0482 -0.2733
25764W        W41233   5.636  17.309  15.667  0.0564  0.0657 -0.1270
25765W        W41234  12.988   1.249  13.148  0.2842  0.0038  0.0555
25766W        W41235  14.724  10.525  11.745  0.0254 -0.1190  0.1271
25767W        W41236  12.833   4.880  12.251  0.0731  0.0477 -0.1792
25768W        W41237   6.381   0.680  15.469 -0.4829 -0.0335 -0.0411
25769W        W41238   7.756  11.114  12.930  0.0160  0.2844 -0.0563
25770W        W41239  14.988   1.557   2.040  0.3310 -0.3100 -0.1307
25771W        W41240  10.744   5.963   4.623 -0.0163 -0.0151 -0.0215
25772W        W41241   1.081  16.585  13.912  0.0908 -0.1114 -0.2898
25773W        W41242   2.175  11.301   4.599 -0.0978  0.1608  0.3272
25774W        W41243   9.882  11.320   4.130 -0.2758 -0.1980  0.1067
25775W        W41244   6.412   9.001  14.795 -0.1430 -0.2606  0.0088
25776W        W41245  11.334  14.885  12.646 -0.3392 -0.0603 -0.1157
25777W        W41246  13.054  17.854  13.103 -0.0771 -0.1529  0.0831
25778W        W41247  13.518  14.044   1.267  0.1759  0.0206 -0.1395
25779W        W41248  13.510  15.252  12.744 -0.0275 -0.2042 -0.2892
25780W        W41249  14.899   5.212   5.250  0.2627  0.2113  0.0150
25781W        W41250   2.136   9.999  12.911 -0.1839 -0.2641  0.1807
25782W        W41251  13.235  14.734  11.693  0.0870  0.2419 -0.1055
25783W        W41252   8.874  11.593   2.675 -0.0921  0.1152  0.0376
25784W        W41253  14.488   7.130   3.087  0.0837  0.1328 -0.0860
25785W        W41254  15.099   9.863   4.257  0.2031  0.1489  0.5024
25786W        W41255   7.632   7.218  14.639 -0.3004 -0.2203 -0.1242
25787W        W41256   3.939  10.688   4.493 -0.0704  0.0558 -0.0288
25788W        W41257  17.297  17.851   2.306  0.1659 -0.3240 -0.3560
25789W        W41258   4.252  11.890   1.424  0.0982  0.0391 -0.3108
25790W        W41259   3.395   3.523  14.050 -0.3419  0.1838  0.3741
25791W        W41260  16.891   0.274  14.388 -0.1127  0.1734  0.2266
25792W        W41261  14.189  17.932  12.543  0.0667  0.1468 -0.1584
25793W        W41262  16.827  11.352   0.662 -0.1049 -0.1756 -0.0183
25794W        W41263   6.919   7.470  13.348  0.2200  0.2881 -0.2590
25795W        W41264   5.733  11.088   0.071  0.0940  0.1812 -0.0980
25796W        W41265  16.017  11.268  11.312 -0.3408  0.1246  0.0547
25797W        W41266   7.594   4.988  11.841  0.0070 -0.1124 -0.4129
25798W        W41267   4.432   8.951  13.132  0.0429  0.0489 -0.2284
25799W        W41268  16.848  13.683  13.774  0.0901 -0.3150 -0.3797
25800W        W41269   1.409  13.624   4.079  0.1544 -0.1663 -0.1091
25801W        W41270  17.055   0.877  13.165  0.0740  0.0172  0.0588
25802W        W41271   5.662  12.825  11.781  0.2552  0.2018  0.0680
25803W        W41272  16.954  12.861  13.390  0.0247  0.1010 -0.0171
25804W        W41273   2.968   5.668   4.460 -0.0063 -0.0861  0.0572
25805W        W41274  15.528  17.023   4.916 -0.1201  0.1973  0.2638
25806W        W41275   0.830   5.320   4.236  0.0891 -0.1329  0.3295
25807W        W41276   8.175  13.968   3.793  0.2993 -0.1210  0.0090
25808W        W41277   1.668   1.966   1.281  0.1163  0.0570  0.2896
25809W        W41278  16.173  18.047  10.365  0.1596 -0.0317  0.1188
25810W        W41279  15.620   7.292  11.134  0.1857  0.2882 -0.0440
25811W        W41280   6.282  14.611   4.087  0.0599 -0.0990  0.1061
25812W        W41281   0.403  14.107   4.400  0.0012 -0.1995  0.0215
25813W        W41282   6.361  11.779  13.941 -0.1856 -0.1381  0.2252
25814W        W41283  14.684  11.230   3.240  0.1512 -0.0503  0.0117
25815W        W41284   3.740  16.904   0.259 -0.5978 -0.0542 -0.0067
25816W        W41285   0.414   3.479  12.397 -0.0123 -0.0383  0.2179
25817W        W41286  17.711  12.337   4.422 -0.1233 -0.0299  0.1448
25818W        W41287  10.400   1.710   4.002 -0.1383  0.0298 -0.3762
25819W        W41288   9.894   4.949   6.208  0.0052 -0.3681 -0.0278
25820W        W41289   0.779   5.278   4.856  0.0257  0.5124 -0.0975
25821W        W41290   8.683  17.679  14.849  0.1418  0.0887 -0.1050
25822W        W41291   1.603   0.374   0.256 -0.0011  0.1144 -0.2684
25823W        W41292  14.140   9.212   5.741  0.1255  0.0275  0.0131
25824W        W41293  18.172   6.981   4.871  0.0505  0.0106 -0.1292
25825W        W41294  18.090  13.339  11.530  0.0147 -0.1634 -0.2561
25826W        W41295   3.361  13.970  15.532 -0.1756  0.0341 -0.2993
25827W        W41296  18.110   7.375   3.295 -0.0996 -0.2642 -0.1181
25828W        W41297  15.856  14.322   3.963 -0.2265  0.1971  0.3037
25829W        W41298   1.108  15.027   4.113 -0.1012  0.1509 -0.1626
25830W        W41299  14.459  18.291   5.689  0.0836  0.1952 -0.0896
25831W        W41300  15.257   6.911  13.569 -0.1543  0.0080 -0.1466
25832W        W41301   5.638   1.501   4.335 -0.0403 -0.2091  0.1732
25833W        W41302  10.325  12.718  14.349 -0.1569 -0.1058 -0.1505
25834W        W41303   3.731   4.347   4.773 -0.2423  0.0585  0.3015
25835W        W41304   0.779   7.271   5.288  0.0484  0.0882  0.2573
25836W        W41305   0.822   4.575  11.991  0.0865  0.3761 -0.1627
25837W        W41306   2.906   6.646   0.513  0.0998  0.1986 -0.0028
25838W        W41307  16.189   7.606   1.140  0.1393  0.0636 -0.4871
25839W        W41308  16.454   5.042  12.726  0.3740  0.1888  0.0055
25840W        W41309  13.329   0.372   2.814  0.1613  0.2293 -0.0925
25841W        W41310   9.001  16.627   1.937 -0.0674  0.0744  0.2051
25842W        W41311  13.163   3.902  14.496 -0.4822  0.1477  0.0522
25843W        W41312   1.946  11.334  15.578  0.1650 -0.1254  0.0167
25844W        W41313  11.019   7.881  14.263 -0.1612 -0.0888 -0.0563
25845W        W41314   7.577  14.627   0.455  0.1246  0.2002 -0.0543
25846W        W41315   2.117   5.108  10.815 -0.0773  0.0321 -0.0035
25847W        W41316   6.522   7.718   2.920  0.1504  0.1621  0.0442
25848W        W41317  14.877   0.226   4.440  0.1728  0.2287  0.3617
25849W        W41318  15.672   9.651   2.007  0.2309 -0.4077 -0.2219
25850W        W41319   3.144  13.109  13.506 -0.2118 -0.1421  0.0817
25851W        W41320  16.671   8.164  13.385  0.0696  0.2904  0.1175
25852W        W41321  12.957   0.806   2.191  0.0877  0.2597 -0.3212
25853W        W41322  14.681  11.340  12.556  0.0854 -0.0331 -0.0381
25854W        W41323  14.771  11.123  15.628  0.0343  0.0011  0.0237
25855W        W41324  13.347  16.107   1.759  0.4989  0.0881 -0.2897
25856W        W41325   1.984   6.402   0.298 -0.1181 -0.2253 -0.3112
25857W        W41326  12.285   8.253  12.999 -0.0947 -0.0304  0.1881
25858W        W41327   1.336  12.665   3.942 -0.1885  0.3150 -0.0193
25859W        W41328   4.979   8.283   5.571 -0.1641 -0.1352  0.1240
25860W        W41329   6.291   9.834   3.909  0.3805 -0.2077 -0.0737
25861W        W41330   8.179   5.319   2.995  0.2438 -0.0565  0.0948
25862W        W41331   2.025   3.264   1.649 -0.0459 -0.1962 -0.3914
25863W        W41332   6.796  15.574  11.867 -0.2044  0.1928  0.0928
25864W        W41333   4.321  17.526   3.894 -0.2524  0.0435  0.1353
25865W        W41334  14.481  18.006   3.178  0.1212 -0.1462 -0.0118
25866W        W41335  13.049  16.237  14.247  0.0287 -0.0879  0.0412
25867W        W41336   1.787   9.681  15.284 -0.0057  0.1443  0.0162
25868W        W41337  15.443  13.860   2.487  0.0056 -0.1432 -0.1499
25869W        W41338   9.859   0.956  14.249 -0.1851 -0.0360  0.0184
25870W        W41339   2.089  17.401  10.459 -0.4272  0.2105 -0.0243
25871W        W41340   0.397  14.462  15.349 -0.0974 -0.0775  0.0329
25872W        W41341  12.423   9.616  13.584 -0.0195  0.0822  0.2640
25873W        W41342   7.840   5.469   1.031  0.0173 -0.0771 -0.2132
25874W        W41343  17.881   2.603  13.440  0.0324 -0.0583  0.0862
25875W        W41344   4.290   7.087   0.798  0.0398  0.1171 -0.0931
25876W        W41345   9.076  14.433  13.440 -0.0412 -0.2299 -0.1323
25877W        W41346  14.114   1.205   4.526  0.0067  0.0158 -0.1041
25878W        W41347  15.941   2.998   3.107 -0.0387 -0.0219 -0.0850
25879W        W41348   8.413  15.820  11.717 -0.0304 -0.1585  0.0879
25880W        W41349   8.428  10.214  11.541 -0.0849 -0.0835 -0.0731
25881W        W41350  15.705  10.764   0.531  0.0333 -0.0461 -0.3220
25882W        W41351   3.281   2.284   3.006 -0.0104 -0.1297 -0.0117
25883W        W41352  12.554   9.539  11.614 -0.1195 -0.2134 -0.1414
25884W        W41353  17.988   1.725  10.775  0.3245  0.1223  0.0691
25885W        W41354   0.245   9.317  14.287 -0.0339 -0.1676 -0.0015
25886W        W41355   6.411   9.101  13.370 -0.2631 -0.1039  0.1154
25887W        W41356  15.239   9.544   5.593 -0.2593  0.1454  0.4968
25888W        W41357  11.432   2.455  14.345 -0.1865  0.0736  0.0321
25889W        W41358  10.829   3.710   1.691 -0.2419  0.0165 -0.2682
25890W        W41359   4.677   7.520   0.254  0.1134 -0.0393 -0.0471
25891W        W41360   6.294  13.832  13.799  0.1573  0.2422 -0.1042
25892W        W41361   8.130   5.187   5.162 -0.1282 -0.1516 -0.0663
25893W        W41362  11.399  11.827  11.879 -0.1215 -0.0079 -0.1141
25894W        W41363  14.391  16.885  11.014  0.4794  0.0952  0.0672
25895W        W41364   3.476  15.896  11.535 -0.2898 -0.3096  0.2368
25896W        W41365  15.130  11.116   3.002  0.1153  0.1811  0.0035
25897W        W41366  14.839   3.653   1.010 -0.1029  0.0706 -0.1219
25898W        W41367   7.959   2.939  13.234 -0.2431  0.0728 -0.2769
25899W        W41368   3.327   2.007  11.036 -0.1645 -0.2391 -0.1725
25900W        W41369  15.471   5.000   1.761  0.0302 -0.2366 -0.2263
25901W        W41370   0.712   4.918   1.097  0.0298 -0.1137  0.0492
25902W        W41371  16.362  10.132   3.678 -0.2528 -0.0212 -0.1308
25903W        W41372   3.292   0.117  14.755 -0.3272 -0.1454  0.0097
25904W        W41373   5.260   5.197  13.451 -0.0376 -0.6631 -0.3150
25905W        W41374  15.313  17.916   3.833  0.1786 -0.2238  0.4202
25906W        W41375  15.611   3.293  11.361  0.3273  0.3377 -0.1687
25907W        W41376   8.898   5.754   1.724  0.0369  0.2587 -0.0026
25908W        W41377   3.984  14.084  11.763 -0.2138 -0.0217 -0.1032
25909W        W41378  10.886   9.204   0.117  0.1439 -0.0173  0.0150
25910W        W41379  10.479  12.348  10.322 -0.0884 -0.0955 -0.2818
25911W        W41380  17.091  13.862  11.435 -0.2540  0.2077 -0.5163
25912W        W41381  14.991  14.452   1.657  0.2360 -0.0035 -0.1819
25913W        W41382   3.662   5.114   1.908 -0.4476  0.0170 -0.2233
25914W        W41383  16.000   5.125  15.811  0.0576 -0.2161  0.0666
25915W        W41384  10.406  16.821  13.931 -0.0295 -0.0856  0.0552
25916W        W41385  14.181  12.145  12.389  0.0323  0.0418 -0.0586
25917W        W41386  16.275   6.394   2.327 -0.0003 -0.1894 -0.2077
25918W        W41387   5.734  16.991  12.946 -0.1900 -0.1077 -0.1306
25919W        W41388  10.499   4.087   1.549 -0.0179  0.0207  0.0058
25920W        W41389   7.611   7.284   1.817 -0.2732  0.1595  0.2283
25921W        W41390  11.813   9.787   2.934 -0.2474 -0.0367  0.1910
25922W        W41391   3.985   8.002   4.854  0.1420  0.2183  0.3424
25923W        W41392   5.331   3.149  14.153 -0.1071  0.1157 -0.1497
25924W        W41393  18.106   4.209   3.560 -0.1443 -0.0448  0.4626
25925W        W41394   8.748  12.851   0.655 -0.1203 -0.0367  0.1148
25926W        W41395   3.665  16.822   0.784  0.2226  0.0573  0.3280
25927W        W41396  15.043   4.018   0.033  0.0888 -0.2226  0.0520
25928W        W41397   1.208  13.041   3.292  0.2668 -0.0457 -0.0784
25929W        W41398  11.695   0.533   2.807  0.0897  0.3305 -0.0002
25930W        W41399   5.008   5.027  15.561 -0.1308  0.0889 -0.2415
25931W        W41400   2.517  11.098  14.286  0.0748  0.2107  0.1605
25932W        W41401   1.302   4.442   4.501  0.0104  0.0704  0.3046
25933W        W41402   8.364   8.831   4.919 -0.0379  0.1457  0.1328
25934W        W41403   6.960   8.427  15.065 -0.0777 -0.2270  0.5866
25935W        W41404   0.784  13.284  11.028  0.0383  0.4449  0.0544
25936W        W41405  15.731   2.702   0.885  0.4580  0.0618 -0.0628
25937W        W41406   5.043   5.886   5.403 -0.1849  0.3559 -0.2236
25938W        W41407  17.713   5.755  11.919  0.0902  0.1850  0.0030
25939W        W41408   5.251   0.317   2.326  0.1330 -0.0000  0.1270
25940W        W41409   0.188   0.853  11.960 -0.0366  0.1946 -0.0739
25941W        W41410  18.287  14.050   2.432 -0.0930  0.2102  0.0728
25942W        W41411  15.992   0.151   1.581  0.0706 -0.3008 -0.0531
25943W        W41412   1.951  10.338   5.892  0.1023  0.1049 -0.0333
25944W        W41413  14.398   4.692  12.894  0.2353  0.2169  0.1547
25945W        W41414   6.107  18.200  14.227  0.1727  0.0973 -0.2849
25946W        W41415   5.521   0.287  15.875 -0.2797 -0.3932 -0.1616
25947W        W41416   8.123   2.446   1.744 -0.4111  0.0337  0.2412
25948W        W41417   6.814  17.012  11.580 -0.0320 -0.2086  0.1370
25949W        W41418   5.349  12.676  12.840 -0.2614  0.1204  0.2958
25950W        W41419  11.453  13.244   2.092 -0.0392 -0.3304  0.0278
25951W        W41420  12.836   4.813   0.441 -0.2045  0.1005  0.1021
25952W        W41421   0.300  14.466   1.607  0.0241 -0.2484 -0.3708
25953W        W41422   5.742   1.539  12.287  0.2457 -0.1942  0.0965
25954W        W41423   3.289  15.179  14.983  0.1311 -0.0290 -0.0425
25955W        W41424   9.495   3.121  16.012 -0.2890  0.2761  0.1045
25956W        W41425   2.309  18.192   2.758  0.1957 -0.1613 -0.1699
25957W        W41426   0.293  16.608  13.261 -0.1693 -0.2167  0.0814
25958W        W41427   9.181   0.639  10.163  0.0814  0.2454  0.1183
25959W        W41428   3.092  12.233   4.484 -0.2864 -0.0915  0.0215
25960W        W41429   8.326  10.451  15.838  0.1604  0.4412 -0.1621
25961W        W41430   3.238  16.240   4.622  0.0778  0.0392  0.0404
25962W        W41431  16.976  15.756  12.639  0.0957 -0.1294 -0.2903
25963W        W41432   5.244   0.031  15.532 -0.2169 -0.1153  0.1439
25964W        W41433  16.032  16.483   1.541 -0.0979  0.0681  0.2019
25965W        W41434   9.724   1.882  15.955  0.1095  0.0310 -0.2480
25966W        W41435  13.057   5.764  11.061  0.1673  0.1197 -0.0386
25967W        W41436  17.071  16.797   0.349  0.0444  0.2228 -0.1980
25968W        W41437   8.326  13.820  10.834 -0.0204 -0.2603 -0.1311
25969W        W41438   7.041  12.298  14.634 -0.3346  0.2029 -0.3840
25970W        W41439   3.354   2.047   1.123 -0.1763 -0.0692  0.0145
25971W        W41440   5.242  11.971  15.160  0.3900 -0.0049 -0.1818
25972W        W41441   4.386  13.616  15.727  0.0491  0.0184 -0.3306
25973W        W41442  11.453  10.400  12.759  0.1921 -0.4353 -0.3697
25974W        W41443   4.643  14.816   1.018  0.2722  0.0254 -0.2074
25975W        W41444   0.918   0.380   0.869 -0.1976 -0.2736 -0.0835
25976W        W41445   3.800  14.202   3.191 -0.0638 -0.4200  0.1612
25977W        W41446   6.606  18.122  14.087 -0.3627  0.1132 -0.1089
25978W        W41447  13.416   7.742  15.275  0.0080 -0.1359 -0.2236
25979W        W41448   6.319   4.613  11.316  0.2041 -0.0506 -0.0475
25980W        W41449   2.951  13.644   1.773 -0.2257  0.0283 -0.0461
25981W        W41450   4.378   1.670   5.234  0.1242  0.0979 -0.2202
25982W        W41451  12.713   9.509   0.931 -0.0438  0.2286  0.0500
25983W        W41452   7.571   5.067   2.449 -0.1603 -0.3755 -0.1318
25984W        W41453   8.470   1.408   3.932  0.0544 -0.0404 -0.0140
25985W        W41454   4.586  18.202  13.361  0.2863 -0.0091  0.0967
25986W        W41455   8.478   7.571   1.862 -0.0976  0.2506  0.1184
25987W        W41456   2.754   0.994   0.857 -0.1559 -0.0051  0.2881
25988W        W41457   3.185  14.306   1.043 -0.0361 -0.0414 -0.0929
25989W        W41458  13.288  15.697   1.520  0.0177  0.3502 -0.0905
25990W        W41459   2.999  18.129   3.478 -0.0884  0.0779  0.4002
25991W        W41460  17.464   0.855  15.473 -0.3091 -0.0267 -0.0296
25992W        W41461   5.961   2.518   4.735 -0.0741 -0.2124 -0.0468
25993W        W41462  12.929   0.579   3.905 -0.0787  0.2024 -0.1035
25994W        W41463  12.223   9.872  16.055 -0.1520  0.1903  0.3627
25995W        W41464  12.948   6.254  15.430  0.1643  0.5281  0.3535
25996W        W41465  18.279   4.662  12.550 -0.1595 -0.3514  0.3875
25997W        W41466   4.533   4.769   3.740  0.2596 -0.0973  0.2666
25998W        W41467  17.902   4.062   0.532  0.1780  0.0701 -0.1111
25999W        W41468   7.742   0.199  14.446 -0.0566  0.0288 -0.0993
26000W        W41469  17.537  15.100  16.016  0.2239  0.0228 -0.0461
26001W        W41470  11.959   6.743  15.347  0.1140 -0.3232 -0.0636
26002W        W41471  11.776  16.214   4.005 -0.0836 -0.0357  0.0332
26003W        W41472  17.846   5.749   3.162 -0.0404 -0.0275  0.0614
26004W        W41473   4.058   8.284  13.500  0.1286  0.0601 -0.0392
26005W        W41474   3.175  11.405   0.669 -0.1810 -0.2534 -0.0675
26006W        W41475   0.103   0.758  13.197  0.0822  0.2619  0.2032
26007W        W41476  13.633  16.865  14.607  0.0317 -0.1082 -0.2709
26008W        W41477  10.975   1.574   1.243  0.3255 -0.0850 -0.3994
26009W        W41478   7.594  18.280   5.136 -0.2248  0.0177  0.0146
26010W        W41479   4.139   3.515   5.692  0.1297  0.2320  0.0122
26011W        W41480  13.482   5.022  12.976 -0.0029  0.1909 -0.0635
26012W        W41481  11.223   1.081  12.630  0.1894  0.0675 -0.1557
26013W        W41482   0.982  17.253   3.487  0.3527  0.0626 -0.0839
26014W        W41483  14.999  14.683   5.400 -0.2936  0.4736  0.0283
26015W        W41484  12.811   6.948  10.154  0.0169 -0.1461 -0.1309
26016W        W41485  16.188  15.736   4.517  0.1619 -0.2018  0.0751
26017W        W41486   9.420   0.020   2.125 -0.0031  0.0026 -0.1924
26018W        W41487  16.757  13.110  14.416  0.1223  0.1935  0.0309
26019W        W41488  10.982   1.998  13.981  0.1811 -0.0520  0.1944
26020W        W41489   7.612   0.547   1.240 -0.3100 -0.0022  0.0210
26021W        W41490  13.304   0.512  11.664  0.0825 -0.1875 -0.0241
26022W        W41491   5.822  16.289  15.922  0.2056  0.1338  0.3279
26023W        W41492  17.296  11.696   2.734  0.2493 -0.0535  0.0914
26024W        W41493  15.887  13.366  10.786  0.4411 -0.1076 -0.3708
26025W        W41494  17.087  14.598   1.014  0.1300 -0.1304  0.0181
26026W        W41495  17.211   7.120   5.595  0.0056 -0.1462  0.0363
26027W        W41496   9.986   5.208   0.408  0.2651 -0.0867 -0.0564
26028W        W41497   7.344   6.550  14.146  0.2681  0.3525 -0.2141
26029W        W41498   7.721   3.540  11.790  0.0987 -0.1587  0.3119
26030W        W41499   1.673   0.829   0.352 -0.3968 -0.2994 -0.2083
26031W        W41500  14.610  12.990   0.026 -0.1582  0.0943  0.2193
26032W        W41501   9.261   6.310  12.948 -0.0678  0.0793  0.2318
26033W        W41502   0.348  12.184  12.251 -0.3873  0.3020  0.1439
26034W        W41503  13.160  14.268  11.365  0.2180  0.1964 -0.0659
26035W        W41504   7.860   4.880   1.655  0.0954  0.1449 -0.0838
26036W        W41505   6.677  18.154   1.574  0.0495 -0.2424 -0.1176
26037W        W41506   4.210  10.714  11.298  0.0594 -0.0476  0.0687
26038W        W41507   5.541  10.575   5.151 -0.1114 -0.1395 -0.0747
26039W        W41508   8.199  18.223   0.370  0.0784  0.3437 -0.2850
26040W        W41509  18.175  15.160  13.098  0.0247 -0.1776 -0.0471
26041W        W41510   0.093  17.243  14.006  0.2834  0.3251  0.0471
26042W        W41511   5.083   7.665   2.673 -0.1750  0.1289  0.0167
26043W        W41512  11.067  14.159   5.839  0.3672  0.0650 -0.0250
26044W        W41513  16.277   3.225  13.753 -0.2174  0.2370 -0.1978
26045W        W41514  14.781   6.624  15.600  0.1508 -0.1639  0.0138
26046W        W41515   5.184   5.952   1.462 -0.2139 -0.2275 -0.1007
26047W        W41516   9.187   8.664  14.819 -0.0201 -0.2488 -0.1279
26048W        W41517   6.182   9.085   2.475 -0.3512 -0.2039  0.1265
26049W        W41518  14.657  18.082  11.687  0.0342  0.1476 -0.2399
26050W        W41519   2.862   5.797   1.086 -0.0288 -0.1664 -0.1133
26051W        W41520  14.649  12.107   0.144  0.0619 -0.0072  0.0928
26052W        W41521  10.703  16.061  12.091  0.2076 -0.2392  0.1384
26053W        W41522   3.184   6.828   0.132 -0.1869  0.1302  0.0183
26054W        W41523   5.680  12.724   0.121  0.2277  0.0350  0.1023
26055W        W41524  13.467  15.672  15.019  0.0448 -0.1550 -0.1292
26056W        W41525   4.283   1.071   2.274  0.1661  0.1858  0.1061
26057W        W41526  14.934   5.882   0.468 -0.1145  0.0522 -0.4642
26058W        W41527   5.167   2.927  15.459  0.2036  0.0502  0.0619
26059W        W41528  11.850  13.505   3.646  0.0596  0.0469  0.1299
26060W        W41529  12.645   6.048  13.626 -0.3022  0.1236 -0.0964
26061W        W41530   0.249  14.541  12.959 -0.3326  0.3198 -0.5197
26062W        W41531  10.685  14.814  11.892  0.3138  0.1000  0.1393
26063W        W41532   2.002  11.454   2.398 -0.3273 -0.1285 -0.0525
26064W        W41533   1.428  11.583   2.864 -0.0090  0.0791 -0.0739
26065W        W41534   5.007  11.538   1.573  0.3179  0.3996 -0.1588
26066W        W41535   8.258   5.297  14.967  0.0967 -0.0344  0.0249
26067W        W41536   8.894  12.059   2.696  0.0598 -0.3813 -0.1731
26068W        W41537  12.759  11.018  11.479 -0.0328  0.1560 -0.2402
26069W        W41538   5.024   1.635   0.928  0.0707 -0.1034 -0.5548
26070W        W41539  10.081  17.687   4.196  0.1742 -0.2607  0.0008
26071W        W41540  10.548  10.900  11.784  0.2320 -0.1946  0.0592
26072W        W41541  15.650   4.511   5.451 -0.1338 -0.2641 -0.0224
26073W        W41542  16.394   1.721  13.944  0.2853 -0.0342 -0.1622
26074W        W41543   8.557   1.064   1.009  0.3927 -0.1239  0.2223
26075W        W41544   4.205   2.480   1.468 -0.0745 -0.1560  0.0115
26076W        W41545   6.611  12.418  12.919 -0.2822  0.1830 -0.1074
26077W        W41546   9.778  10.675  13.992  0.2208  0.0971  0.0130
26078W        W41547   6.796   3.530  14.402 -0.0455  0.0727  0.2055
26079W        W41548  10.558  15.945   2.114  0.4244 -0.1320 -0.2609
26080W        W41549   0.498  14.456   0.391  0.2214 -0.0405 -0.0227
26081W        W41550  16.741   4.256   1.610 -0.1585  0.0231 -0.0544
26082W        W41551  13.918  13.710  13.748 -0.0865  0.2595  0.1096
26083W        W41552   4.404  12.675   1.098 -0.0090 -0.2381 -0.2506
26084W        W41553   4.140  12.016  13.337 -0.0682 -0.0653  0.0350
26085W        W41554   2.353  15.191   0.828  0.2504 -0.0206 -0.1594
26086W        W41555  10.409   4.324   3.076 -0.3286 -0.3383  0.2220
26087W        W41556  12.460  18.095   3.037  0.0702 -0.2499  0.1161
26088W        W41557   5.484  11.738   2.172  0.2149  0.3106  0.3626
26089W        W41558  13.692  16.646   1.930  0.1365 -0.2922 -0.1598
26090W        W41559  15.671   3.432  13.525 -0.0354 -0.1270 -0.1288
26091W        W41560  18.215   9.397  12.246 -0.2269  0.0092 -0.3059
26092W        W41561   7.487   3.244  13.338 -0.2157 -0.4289  0.4350
26093W        W41562   4.423   6.632  15.197 -0.0695  0.0747 -0.0036
26094W        W41563   3.420  12.021   3.566 -0.1116 -0.0428 -0.3986
26095W        W41564   5.278   6.341  11.463  0.0528 -0.1966  0.0933
26096W        W41565   2.963  11.852  12.740  0.0049 -0.1297  0.0623
26097W        W41566  12.752  11.868   2.675 -0.1877  0.0444  0.1462
26098W        W41567   9.271   1.869  11.768  0.1679 -0.0215 -0.0414
26099W        W41568   9.944   6.041   0.934  0.0251 -0.1857  0.1352
26100W        W41569   6.556  11.681   4.076  0.1532 -0.3448  0.0815
26101W        W41570   2.461   0.335  13.451  0.2298 -0.2171 -0.0596
26102W        W41571  17.048   7.817   2.556 -0.0722  0.2437 -0.1206
26103W        W41572   5.504   9.797  11.973  0.2941  0.0076 -0.1165
26104W        W41573   2.308   0.338   1.276 -0.0811 -0.1515  0.1223
26105W        W41574   6.638  16.925  12.606  0.2058 -0.1063  0.3936
26106W        W41575   9.602   4.118  14.326 -0.0176 -0.1451  0.0469
26107W        W41576  10.183  17.927   1.852  0.1607  0.0827 -0.1672
26108W        W41577  17.315  14.987   1.270  0.0436 -0.0109 -0.1073
26109W        W41578   3.222   2.150  12.641 -0.0926 -0.2553 -0.1202
26110W        W41579  16.973   6.035  13.595  0.0424 -0.1568 -0.2787
26111W        W41580   7.551   2.726  13.453 -0.2462 -0.0974  0.0913
26112W        W41581   6.509  12.420   1.717  0.0090 -0.0356  0.0626
26113W        W41582   7.637  14.769   2.238 -0.2033 -0.0196  0.2307
26114W        W41583   4.201   4.731  12.405 -0.0071  0.0734  0.2901
26115W        W41584   7.623   0.550  13.418 -0.2269  0.3066  0.1190
26116W        W41585  16.667  11.827  10.627 -0.2185  0.0421  0.0519
26117W        W41586  10.959   9.237  15.784  0.0826  0.0440  0.0635
26118W        W41587   3.733   9.748   1.324  0.1461  0.2267 -0.2249
26119W        W41588  16.624  12.993   0.718  0.2726  0.0495 -0.0285
26120W        W41589  12.263   0.438   0.952  0.0846  0.0565  0.0972
26121W        W41590   3.288  10.616   3.985 -0.1418  0.0938 -0.0521
26122W        W41591  10.894  11.287   0.775  0.1087 -0.2288  0.1362
26123W        W41592  10.025   2.076   4.152  0.2647  0.1800 -0.0138
26124W        W41593  13.396   8.637   2.545 -0.2674 -0.0137 -0.4114
26125W        W41594   5.956   3.610  14.963 -0.1020 -0.1475 -0.1029
26126W        W41595   2.199   6.645   1.321  0.0298 -0.2014 -0.1246
26127W        W41596   2.198   4.456   1.459  0.2590  0.3176 -0.1354
26128W        W41597  12.659   4.114  12.338 -0.1748  0.1152  0.0945
26129W        W41598   9.807  10.353   4.507  0.1448 -0.1187 -0.2542
26130W        W41599   7.666   9.028   2.012  0.1702  0.0031 -0.3898
26131W        W41600   4.200   9.029   3.902  0.1080 -0.1319  0.0605
26132W        W41601   6.508  15.108  14.157 -0.2022 -0.2813  0.0222
26133W        W41602   7.821  10.058   4.552 -0.0752  0.2693  0.3926
26134W        W41603  17.748   6.773   1.209  0.1271 -0.0412 -0.0078
26135W        W41604  13.529  14.745  13.030  0.2218  0.2690  0.0141
26136W        W41605   0.460   6.242  15.770 -0.2090  0.0782 -0.1204
26137W        W41606  14.736  13.795  12.844  0.0416  0.0896 -0.0831
26138W        W41607  14.411   0.918   0.408 -0.1459 -0.1946 -0.1225
26139W        W41608   3.650   7.533  14.090  0.5222  0.1898  0.4930
26140W        W41609   7.280  15.686  15.640  0.0548  0.2757 -0.2120
26141W        W41610   4.180  10.352   4.871 -0.0991 -0.1793  0.0478
26142W        W41611   8.713   3.614  10.636  0.0378  0.0673  0.0431
26143W        W41612   9.689  13.349   4.802  0.2034 -0.0329 -0.1972
26144W        W41613   1.620   9.373  11.677 -0.0896 -0.3443  0.0407
26145W        W41614  10.831  11.599  13.847 -0.0038 -0.0158  0.2979
26146W        W41615   1.985   3.822   3.206  0.1889 -0.0119 -0.2613
26147W        W41616  12.934  17.040  14.378  0.2106  0.0618 -0.0656
26148W        W41617  10.287   9.675   5.198  0.0995 -0.1427 -0.2785
26149W        W41618  14.274  14.462   1.589 -0.1506 -0.3127 -0.1395
26150W        W41619   2.944   1.222   5.422  0.0044  0.0235 -0.0234
26151W        W41620   0.395   3.045  14.257  0.0111  0.0780  0.0325
26152W        W41621  13.451   7.498   5.105  0.1090  0.0402  0.2702
26153W        W41622   7.226  10.697  12.777  0.0600 -0.0983 -0.3056
26154W        W41623  15.001   6.012   5.120 -0.1019 -0.1184 -0.0716
26155W        W41624  12.175   5.161  15.115 -0.0235  0.0434 -0.2834
26156W        W41625  11.327  17.856   1.407  0.1154  0.1915 -0.1043
26157W        W41626   2.417  14.375  13.853 -0.1149 -0.2175  0.2668
26158W        W41627  11.165   0.937   1.899 -0.2047 -0.1269 -0.2856
26159W        W41628   5.571   7.013  13.139  0.1283  0.0911  0.0009
26160W        W41629   9.721   1.475  12.039  0.2092  0.0967 -0.3624
26161W        W41630  13.679   6.430  14.864  0.0490  0.0022 -0.0590
26162W        W41631  12.839   9.675  11.221  0.1670  0.0250  0.2136
26163W        W41632   4.761  16.252  13.206  0.1215  0.1036 -0.1740
26164W        W41633   5.178   0.812  15.199  0.1244  0.2324  0.2436
26165W        W41634  16.405  17.478  13.060  0.0314  0.1005 -0.1243
26166W        W41635  10.214   4.015   3.415 -0.1509 -0.3891  0.1231
26167W        W41636   6.563  16.539  12.902  0.1122  0.2328  0.1343
26168W        W41637  18.015   1.233   4.971  0.2286  0.0733 -0.1138
26169W        W41638  11.256  17.622   0.831 -0.0061  0.0325 -0.0209
26170W        W41639   1.113   5.254  12.797 -0.1341  0.3989 -0.0730
26171W        W41640   2.058   1.316  15.327  0.2046 -0.0656  0.1323
26172W        W41641   5.284  13.176  14.072  0.1673 -0.0657 -0.0428
26173W        W41642   5.005  16.166  10.867  0.0757  0.1768 -0.4492
26174W        W41643  14.380  12.521  11.979  0.0999 -0.1576  0.1586
26175W        W41644   3.100  17.491  14.829 -0.4572 -0.1743  0.0694
26176W        W41645  11.874  13.552  12.392  0.0496 -0.1142 -0.0078
26177W        W41646   2.262   2.952   3.243 -0.1447  0.2269 -0.1709
26178W        W41647  18.300   0.959   1.513  0.1640  0.0233 -0.1342
26179W        W41648  13.857  10.841  11.906  0.3492 -0.0324  0.0325
26180W        W41649   8.507   7.043   0.625 -0.0594 -0.1815  0.2512
26181W        W41650   2.968  14.629   3.139 -0.2175 -0.2211 -0.3084
26182W        W41651   4.763   5.924   0.048  0.1759  0.1596  0.3127
26183W        W41652   4.879  17.691   4.254 -0.0441  0.0041  0.0087
26184W        W41653   5.979  18.107   0.467  0.0468  0.0115 -0.0373
26185W        W41654   2.437   8.207   3.085  0.3020 -0.2389 -0.3353
26186W        W41655   8.377  17.827  14.383  0.0404  0.1119 -0.0241
26187W        W41656   2.100   2.397  15.476  0.2620 -0.0492  0.2847
26188W        W41657   6.401   6.800   5.691 -0.3529 -0.0605  0.3983
26189W        W41658  17.613   1.179  14.344 -0.1511 -0.0459  0.0028
26190W        W41659   9.301   3.021   0.845  0.1276  0.0995  0.0686
26191W        W41660  16.294   9.321   1.527  0.2473 -0.0272  0.0671
26192W        W41661   3.508  17.534  14.488 -0.0282  0.1670  0.1364
26193W        W41662  16.324   7.009   0.400 -0.2889 -0.0382 -0.2136
26194W        W41663  14.155  10.429   5.197 -0.1300  0.1104  0.0193
26195W        W41664  11.331  11.155   1.277 -0.0257  0.1494 -0.0666
26196W        W41665   3.418   7.284   0.819 -0.2323  0.1878  0.0747
26197W        W41666  15.406   4.076  15.693 -0.1278  0.3017  0.1007
26198W        W41667   4.519  15.955  11.011  0.3371  0.3477 -0.3199
26199W        W41668   3.257  11.796   9.925  0.1889  0.2952  0.4049
26200W        W41669   3.666   9.004   2.349 -0.0150  0.0572  0.2479
26201W        W41670   9.938  14.209   0.088  0.0011  0.2852 -0.1625
26202W        W41671  17.229   6.864   3.496 -0.1814  0.0740  0.0733
26203W        W41672  15.955   3.825  13.568  0.1561  0.5011  0.0330
26204W        W41673   8.084   2.695  11.332 -0.1730  0.0261 -0.0438
26205W        W41674  13.883  17.737   5.199  0.1378  0.0017 -0.0244
26206W        W41675  10.473   2.641   0.318  0.2417  0.1845 -0.2439
26207W        W41676   6.764  10.421   3.404  0.0964 -0.0106 -0.2397
26208W        W41677  11.046   5.142   2.431  0.2283  0.2243 -0.0884
26209W        W41678   5.370   6.791   1.037 -0.0940 -0.1814  0.2198
26210W        W41679   7.974   9.129   3.999  0.0686 -0.1057 -0.2864
26211W        W41680  15.006  15.223   5.477 -0.0507 -0.0975  0.1057
26212W        W41681   9.064   2.749  11.462 -0.0184 -0.1264 -0.0886
26213W        W41682  12.894   2.988   2.089  0.0198  0.1274  0.2024
26214W        W41683   5.147   9.991   0.665  0.0982  0.1703  0.1389
26215W        W41684   2.416  10.815  16.007  0.2498  0.2167  0.0402
26216W        W41685   9.128   1.595  14.004 -0.1337  0.0916  0.1093
26217W        W41686   5.526   3.113  14.648 -0.3490  0.2242 -0.1578
26218W        W41687   8.627  13.209   1.983 -0.0412  0.0157 -0.0130
26219W        W41688   4.221  12.300   0.171 -0.4656 -0.1936  0.0502
26220W        W41689  12.844   1.288  15.881 -0.1325  0.2548  0.0695
26221W        W41690   8.815   7.487  15.952  0.0536  0.2138 -0.0357
26222W        W41691   6.314  12.900   1.535 -0.1232  0.1657 -0.1146
26223W        W41692  11.071   9.090  11.250  0.0651 -0.2150  0.1853
26224W        W41693   3.777  11.653  14.150  0.1605  0.0049 -0.1077
26225W        W41694   2.355  15.899   5.572  0.4569 -0.1980  0.1705
26226W        W41695   6.516   7.412   0.487 -0.0296 -0.0794  0.0619
26227W        W41696   5.425   9.895   2.809  0.2326  0.0679  0.0607
26228W        W41697  17.171  13.128   5.560  0.1133  0.2506 -0.1858
26229W        W41698  12.886  14.809  14.827 -0.0419  0.2993 -0.1952
26230W        W41699  13.557  16.979  15.732  0.2974  0.0620  0.1175
26231W        W41700   7.540  11.706   0.531  0.2504 -0.0057  0.3148
26232W        W41701   1.133   2.729  16.046 -0.4817  0.1906 -0.1030
26233W        W41702   1.682   2.827  12.798  0.1414  0.0128 -0.2743
26234W        W41703  17.536  10.114  12.941 -0.0473  0.1914 -0.0034
26235W        W41704   2.569   6.510   2.200  0.3702 -0.2976  0.1913
26236W        W41705   2.640   2.690   4.799 -0.0316  0.0083 -0.0462
26237W        W41706   6.587  17.740   1.300 -0.1164  0.0702 -0.0123
26238W        W41707  13.173  12.313   4.051  0.3221  0.2733  0.0573
26239W        W41708  17.386  11.027   1.996  0.1628  0.1981 -0.3069
26240W        W41709   3.766  16.487   2.571  0.0359  0.1665  0.0740
26241W        W41710   3.568   4.025  13.188 -0.2934 -0.2443 -0.2388
26242W        W41711  17.530   0.400   0.190 -0.1304  0.0159  0.3047
26243W        W41712  16.032   9.684  11.667  0.0217  0.0340 -0.1040
26244W        W41713   6.965   3.903   4.164 -0.1588  0.0782 -0.1308
26245W        W41714   4.394   7.049   4.944 -0.2260  0.1482  0.0277
26246W        W41715   1.318  17.254   1.549  0.0750  0.1351 -0.1735
26247W        W41716  11.247   3.510   2.860 -0.2569  0.0664  0.1005
26248W        W41717  16.532  11.345   4.052  0.0527 -0.0133  0.0344
26249W        W41718   3.346   6.850   0.611  0.0443 -0.0470  0.1413
26250W        W41719  17.134  16.811  16.051 -0.1474 -0.0104  0.1674
26251W        W41720   1.759  11.484  13.236 -0.0006 -0.0870  0.0493
26252W        W41721  12.307   1.242   3.795  0.4376 -0.2360  0.1805
26253W        W41722   1.285   7.675  12.311  0.1751 -0.2190  0.1352
26254W        W41723  17.957   5.586  12.943  0.0959  0.3734 -0.4254
26255W        W41724  12.097   9.317  13.264 -0.1714  0.1007  0.1977
26256W        W41725  11.804  14.459  11.062 -0.0893 -0.0473 -0.0244
26257W        W41726   4.534   4.666   4.238  0.3031 -0.0213 -0.0262
26258W        W41727  17.963  13.795   3.742  0.1877 -0.1246 -0.0269
26259W        W41728   5.831   3.128   0.199  0.2057 -0.0441  0.0662
26260W        W41729  11.574   6.931  10.710 -0.1422 -0.3620  0.0602
26261W        W41730   1.633   1.416   4.664 -0.4318 -0.0365  0.3927
26262W        W41731  18.165  13.282  12.484 -0.1439 -0.0676  0.1656
26263W        W41732   0.418   1.929   4.324  0.1722 -0.1238 -0.1172
26264W        W41733  10.751  12.758  14.643  0.0412  0.2371 -0.2254
26265W        W41734   7.258  10.058  13.069  0.1656 -0.2593  0.0012
26266W        W41735   4.196   8.084   5.302 -0.1529 -0.2000 -0.0589
26267W        W41736   7.748   7.612  13.143  0.1416 -0.2030  0.0888
26268W        W41737   4.013   5.308   1.495  0.2407 -0.1851  0.2133
26269W        W41738   3.481   0.262   2.829  0.1404  0.1203  0.1147
26270W        W41739  13.283   9.018   4.655 -0.6446  0.0787  0.2526
26271W        W41740  13.884  11.994  11.496 -0.0056  0.0291 -0.0350
26272W        W41741   6.664  16.259   4.658  0.0539 -0.2715  0.0929
26273W        W41742   5.285   1.210  15.449 -0.1135 -0.0442  0.1207
26274W        W41743   0.824  18.219   4.960  0.1916 -0.1658 -0.0450
26275W        W41744   4.011   9.645   4.625 -0.2073 -0.2095  0.0529
26276W        W41745   4.661   5.247   4.289 -0.1392 -0.1711  0.0541
26277W        W41746   3.848  14.966   4.566 -0.0657  0.1018 -0.1125
26278W        W41747   7.618   8.041  11.334 -0.0253  0.0885  0.1213
26279W        W41748   7.297  10.469  11.771  0.1428  0.0673  0.2678
26280W        W41749   8.301   3.008   3.688 -0.3350 -0.0699 -0.0320
26281W        W41750  18.159  13.137   5.950 -0.1699  0.2960  0.4120
26282W        W41751   4.695  17.333  12.231 -0.0256 -0.0336  0.1757
26283W        W41752   5.760   0.870  14.061  0.0417  0.0521 -0.0435
26284W        W41753   6.899  15.973   1.421 -0.0627 -0.2800 -0.2148
26285W        W41754  14.861   0.385   5.893  0.0297 -0.0664 -0.0288
26286W        W41755  15.126   1.091   2.166  0.2561 -0.2623  0.0499
26287W        W41756   1.863  11.532  15.047 -0.0454  0.0290  0.0579
26288W        W41757  10.007  14.402  13.381 -0.2424  0.0725 -0.0377
26289W        W41758  13.929   4.335  11.638 -0.0948  0.0234 -0.0853
26290W        W41759   5.563   1.969  13.840  0.0291 -0.2356 -0.1746
26291W        W41760   5.976  12.281  13.658  0.0708 -0.1449 -0.0719
26292W        W41761  12.095   6.854  10.838  0.1768  0.0544  0.0605
26293W        W41762   3.844  10.650  10.903  0.0097  0.2134 -0.0468
26294W        W41763   6.379   9.303   1.939 -0.4274  0.1315 -0.0600
26295W        W41764   4.597  16.540  13.730  0.0921 -0.1716  0.2563
26296W        W41765   5.573  14.123  15.763 -0.5210 -0.0328 -0.0680
26297W        W41766  17.098   8.451  15.216  0.2117  0.1308  0.1789
26298W        W41767   7.340   1.953   3.821 -0.2035 -0.1344 -0.1457
26299W        W41768  10.394   6.975  15.960 -0.0206  0.0198 -0.0199
26300W        W41769   6.396  13.938  14.718 -0.1409 -0.1406  0.1509
26301W        W41770  13.818  14.321  11.186  0.2065 -0.4337 -0.2034
26302W        W41771   7.233  14.737   4.274 -0.3365  0.0015  0.2348
26303W        W41772   1.699   5.329  13.403  0.0840 -0.0921 -0.3113
26304W        W41773   9.569  16.823  11.342 -0.3277  0.1331 -0.2684
26305W        W41774   0.973   4.094   2.643  0.0061 -0.0440 -0.4886
26306W        W41775   4.047  18.034   2.580 -0.2970 -0.2885 -0.0827
26307W        W41776  12.890   4.234   4.417 -0.1414 -0.1836 -0.1004
26308W        W41777   8.272  16.777  15.774  0.2249 -0.3364 -0.1629
26309W        W41778  11.534   3.327  11.658  0.2601  0.0812 -0.2443
26310W        W41779  11.025  16.472   0.179 -0.1635 -0.1142  0.1322
26311W        W41780  16.601   0.997   3.677 -0.1160 -0.1406  0.4387
26312W        W41781   2.194  17.123  12.405  0.1016  0.0796 -0.2223
26313W        W41782  15.183  11.082  15.057  0.0205  0.0074 -0.0253
26314W        W41783   9.770   0.734   2.243 -0.1619  0.2114 -0.3311
26315W        W41784   1.816   3.483  14.877  0.1700  0.2319 -0.0698
26316W        W41785  12.846  15.240  12.352  0.0929  0.1554 -0.2601
26317W        W41786   6.264   0.111  12.714 -0.3331 -0.1210  0.1165
26318W        W41787   0.244   1.448   4.463 -0.0517  0.0861  0.2699
26319W        W41788   9.146   7.243   3.066  0.0164 -0.1231  0.0242
26320W        W41789  16.029  13.252  13.220 -0.1155  0.2248  0.2139
26321W        W41790   7.177   2.178   0.981  0.1188 -0.0605 -0.1055
26322W        W41791  15.591   1.593   0.129 -0.1358 -0.0126  0.0855
26323W        W41792  16.344   9.505   4.599  0.0354  0.1608 -0.0329
26324W        W41793  16.342  16.956   3.817  0.1068  0.1277  0.1618
26325W        W41794   2.521   8.558   2.639  0.2450 -0.1619  0.0245
26326W        W41795  18.171   3.694   0.207  0.1962  0.3386  0.2540
26327W        W41796  15.440   8.612  11.842  0.1161  0.1932 -0.1237
26328W        W41797   4.042  15.839  12.290  0.1201  0.0205 -0.2853
26329W        W41798   6.680   5.306   1.432  0.2946  0.1125  0.0010
26330W        W41799  10.966  12.077   4.930 -0.1097  0.2812  0.1035
26331W        W41800   2.431   9.489  14.651 -0.0290  0.0466  0.2785
26332W        W41801  14.342  11.662  12.356 -0.0780 -0.0638  0.0208
26333W        W41802   6.746   1.333  12.951 -0.2180 -0.1565 -0.1385
26334W        W41803  11.133   4.190  12.154  0.0505 -0.1543 -0.1286
26335W        W41804   3.288  15.847  10.603  0.1825 -0.0311  0.0554
26336W        W41805   5.782  16.025  13.221 -0.0950 -0.2606  0.0130
26337W        W41806   9.400  16.574   3.690  0.0350  0.1699 -0.0159
26338W        W41807  15.793  16.005  14.613 -0.0938  0.2259 -0.1396
26339W        W41808  12.066  16.897   3.281 -0.0618  0.1270  0.3378
26340W        W41809   9.144   9.020   2.733  0.0928  0.3675 -0.1904
26341W        W41810   8.351   8.372   0.587  0.1121 -0.0608  0.2847
26342W        W41811  10.941   6.778   2.361 -0.2442 -0.1273  0.0971
26343W        W41812   5.599  16.445  11.500 -0.4162  0.2848 -0.0573
26344W        W41813   0.016  15.442  11.161  0.1944 -0.0694  0.3181
26345W        W41814  16.472  10.012   4.611  0.0188  0.1298 -0.0464
26346W        W41815  12.785   3.451  13.109 -0.3999 -0.2652 -0.0119
26347W        W41816   6.432   3.551  12.446 -0.0753  0.2493  0.1998
26348W        W41817   0.101   1.876  11.082  0.1201 -0.0844  0.2198
26349W        W41818  17.170   8.258   3.321 -0.1085 -0.1066 -0.1282
26350W        W41819  14.472  10.456   3.303 -0.0188  0.3302  0.0304
26351W        W41820   9.645   4.030   4.792  0.0938 -0.2296  0.1685
26352W        W41821   7.432  16.825   4.976  0.3994  0.0445 -0.0177
26353W        W41822  11.059  13.138  13.643 -0.0390 -0.1274  0.2473
26354W        W41823   9.388   9.369  11.694 -0.0669 -0.0872  0.2075
26355W        W41824   8.431   0.611  15.988 -0.1872 -0.5230  0.3468
26356W        W41825  15.876  14.997  14.445 -0.2290  0.1193  0.0769
26357W        W41826   2.413   9.792   0.273 -0.1274  0.0116 -0.0536
26358W        W41827  15.624   1.176  11.247 -0.0776  0.1151  0.0037
26359W        W41828   7.463  13.660  15.588 -0.0846 -0.0309 -0.0675
26360W        W41829   3.038  10.346   1.837  0.1164 -0.0797  0.1442
26361W        W41830  18.269   0.861  15.706  0.1560 -0.2692  0.1658
26362W        W41831  10.219   0.694  12.918 -0.0849 -0.2146  0.2241
26363W        W41832  10.739   4.681   1.588  0.0037  0.3430 -0.1842
26364W        W41833   4.526   6.209  15.418 -0.0806 -0.1240  0.0728
26365W        W41834   5.853  13.973  13.939  0.0725 -0.0401  0.2343
26366W        W41835  15.918   4.741  15.310  0.2186 -0.0199 -0.2955
26367W        W41836   4.304   1.945  13.256 -0.1768  0.0700 -0.3361
26368W        W41837  16.918  11.644   3.764 -0.0582 -0.0343 -0.1806
26369W        W41838  16.748  14.650  14.619 -0.0249 -0.0952 -0.2048
26370W        W41839   9.384  15.757   4.212  0.0612  0.1489 -0.2231
26371W        W41840   4.730   5.820   0.490  0.0375 -0.2382 -0.3324
26372W        W41841  11.494  16.763   4.790  0.2045 -0.1622  0.0662
26373W        W41842  16.183   9.770  14.354  0.0203  0.1526 -0.0110
26374W        W41843  10.019   3.033   5.740  0.0857 -0.1945  0.2712
26375W        W41844  15.979   5.868   3.589 -0.2783 -0.1211  0.0339
26376W        W41845  17.176   9.949   4.185 -0.3278 -0.1754  0.1879
26377W        W41846   6.204   7.837  15.716 -0.0470 -0.1372 -0.0308
26378W        W41847   9.941   7.676   1.061  0.0930 -0.0227 -0.2266
26379W        W41848   2.931  14.421  14.487  0.0484 -0.1692  0.0962
26380W        W41849  10.394  11.425  13.554  0.0466  0.0925  0.1415
26381W        W41850   3.554  15.920   2.893  0.1042 -0.0390 -0.0788
26382W        W41851   8.712   8.467  15.981  0.0393  0.1177 -0.2825
26383W        W41852   6.661  13.604  11.515 -0.0599  0.3379 -0.0116
26384W        W41853   3.071   4.752   0.221 -0.4800  0.0015  0.2206
26385W        W41854   0.990   1.022  13.168 -0.1039 -0.1161 -0.0633
26386W        W41855   0.120  12.874  13.892 -0.2231 -0.2446  0.0558
26387W        W41856  13.284   3.737  13.764  0.2644  0.2288  0.2675
26388W        W41857   5.319   5.393  12.978  0.0856 -0.1334 -0.1332
26389W        W41858   6.017   3.302  14.553  0.0974  0.0610  0.0898
26390W        W41859  15.851  14.087   4.537  0.3221  0.0892 -0.1922
26391W        W41860  13.983  13.898   3.263  0.1061 -0.0894  0.2960
26392W        W41861   2.778  12.377   2.006 -0.0795 -0.2004 -0.0348
26393W        W41862  14.820   9.515  13.448  0.2375  0.0770 -0.0621
26394W        W41863  12.460   3.035   3.279 -0.0356  0.1544  0.1678
26395W        W41864  16.000   7.360  15.938 -0.0921 -0.0231 -0.0415
26396W        W41865   2.156   2.627   0.131 -0.2139 -0.2872 -0.2307
26397W        W41866  10.179   5.084  16.121 -0.3203  0.1457  0.1443
26398W        W41867  14.105  11.721   5.808 -0.1270 -0.0197  0.1229
26399W        W41868   1.471   2.470  12.481 -0.2307  0.0941 -0.0783
26400W        W41869   9.296   4.792   4.446 -0.0277 -0.1272 -0.2652
26401W        W41870  10.531   5.285   3.934  0.1437 -0.1379 -0.0858
26402W        W41871  14.566  12.844  12.383 -0.1294  0.1262  0.1037
26403W        W41872   7.264  11.332  13.561 -0.0113 -0.2008  0.0311
26404W        W41873   1.956  10.702   3.373 -0.1898  0.1648  0.1755
26405W        W41874   6.116   5.621   0.002 -0.1670 -0.2556 -0.0711
26406W        W41875  15.561  18.177   2.464 -0.1364 -0.0587 -0.0571
26407W        W41876  10.335   4.241   5.255 -0.2506 -0.1830  0.0618
26408W        W41877   3.105  15.794  12.319  0.3169  0.0081 -0.2323
26409W        W41878  17.901   2.101  13.348 -0.3751  0.1683 -0.1499
26410W        W41879  16.478  12.675  15.835  0.1847 -0.3752  0.2408
26411W        W41880   5.647   2.806  15.503  0.0179  0.1658  0.0337
26412W        W41881  16.456   8.337   5.181 -0.2365 -0.1991  0.2561
26413W        W41882  11.055  16.210   5.843 -0.0252 -0.5107  0.2693
26414W        W41883   0.899   4.250  13.591 -0.2377  0.1703  0.0013
26415W        W41884   0.989   6.372  14.355 -0.0938  0.0198  0.0619
26416W        W41885   8.340  11.772   0.050 -0.1745  0.1392 -0.0894
26417W        W41886   3.853  12.738   3.049  0.1282  0.1535  0.0421
26418W        W41887  11.754  15.591  14.932 -0.0417 -0.1826 -0.2875
26419W        W41888   6.546   2.203  14.290 -0.0442  0.0259  0.1072
26420W        W41889  10.551  13.778   1.279 -0.0000  0.0523  0.1168
26421W        W41890   6.924   2.780   3.109 -0.0292  0.1890 -0.0881
26422W        W41891   7.335  12.017   1.378  0.0349  0.0455  0.0301
26423W        W41892  16.566   3.843   1.943 -0.0703  0.0955  0.1922
26424W        W41893  11.005   8.058   3.617  0.2381 -0.0022 -0.1795
26425W        W41894   9.364   0.495  10.988 -0.0594  0.0099 -0.0727
26426W        W41895  16.137  11.345  14.397  0.1292  0.0025  0.0809
26427W        W41896  14.612   4.645   1.683 -0.1518 -0.1559 -0.0188
26428W        W41897  17.270   3.007   2.454 -0.3352  0.0232 -0.2081
26429W        W41898   0.903  13.299  12.381 -0.2154  0.0463 -0.0265
26430W        W41899  14.835  14.045  14.265  0.0460  0.0779 -0.0905
26431W        W41900  13.496   3.512   4.924 -0.1057  0.0537  0.0452
26432W        W41901  14.490   1.124  15.804 -0.1317 -0.1739 -0.2013
26433W        W41902   2.044   7.407   2.138  0.0780 -0.1852  0.0928
26434W        W41903  17.664   6.023  15.486 -0.4558  0.1313 -0.2301
26435W        W41904   3.234   1.365   5.841  0.0572  0.0370  0.0638
26436W        W41905  11.603  11.028   5.240 -0.1889  0.0307 -0.1902
26437W        W41906   1.235   5.244   4.997  0.2827 -0.0488 -0.0838
26438W        W41907   4.561  13.185   1.394 -0.0180  0.1665  0.2088
26439W        W41908  18.061  17.808   4.156  0.0262  0.0795 -0.2560
26440W        W41909   6.820   8.883  12.794  0.1526 -0.0757  0.1746
26441W        W41910   0.206   2.350   4.172 -0.0094  0.2252 -0.1672
26442W        W41911  17.270   0.822  13.641  0.0274 -0.1931 -0.0790
26443W        W41912  10.935  13.906   0.876  0.0041 -0.0086 -0.2585
26444W        W41913   0.303  12.197  15.952 -0.0706 -0.2381  0.1117
26445W        W41914   8.782  13.194   4.922  0.3193  0.0104  0.3382
26446W        W41915   1.328   6.164   4.964  0.0264 -0.0816 -0.2262
26447W        W41916  10.408  14.804  14.887 -0.1820 -0.2232 -0.0767
26448W        W41917   5.982   7.538  13.458 -0.0510 -0.2008  0.1991
26449W        W41918  15.992   6.796  12.826  0.1305 -0.0071  0.2135
26450W        W41919   0.262   3.093   3.089 -0.0106 -0.2938  0.0969
26451W        W41920  14.915   9.900   0.981  0.0198 -0.1365  0.0660
26452W        W41921   1.938   1.055  12.724  0.0759  0.0884 -0.1357
26453W        W41922  17.971  17.424   0.997  0.1348  0.0379 -0.1090
26454W        W41923  12.173  10.277  10.470  0.0410 -0.1288  0.0483
26455W        W41924  15.715   3.016  13.866 -0.0394 -0.0476  0.2179
26456W        W41925   6.672   4.053  13.416 -0.1382  0.0912 -0.2866
26457W        W41926   7.601   3.641   2.888 -0.0110 -0.2250  0.1067
26458W        W41927  17.592  14.035  14.413  0.0003  0.2012  0.0211
26459W        W41928  14.738  13.865  13.827 -0.0114 -0.3209  0.1116
26460W        W41929   1.171   4.003  10.152 -0.0051 -0.0088 -0.0786
26461W        W41930  11.315   9.702   4.582 -0.2283  0.0092 -0.1052
26462W        W41931   3.145   8.991  12.994  0.0013 -0.1262  0.1051
26463W        W41932   9.495   8.581   2.654 -0.1564 -0.0713  0.2433
26464W        W41933  12.059   8.217   3.506 -0.0000 -0.2006 -0.3944
26465W        W41934   8.320   1.461   2.342 -0.1672  0.3168  0.1152
26466W        W41935  18.136   5.897  12.101 -0.0652  0.0815 -0.2146
26467W        W41936   4.684   8.070  15.341  0.1542 -0.0283  0.0010
26468W        W41937  13.643   0.274   4.630  0.0597  0.0425  0.2529
26469W        W41938  14.856   5.095   9.630  0.0789 -0.1880 -0.0739
26470W        W41939   1.000   1.277  12.654 -0.1587  0.2989 -0.0096
26471W        W41940   1.251   2.595   1.563  0.0411  0.0411 -0.2837
26472W        W41941  10.109   6.494  12.336  0.1771 -0.3283 -0.2362
26473W        W41942   3.367  15.343  12.992 -0.2110 -0.0826  0.1296
26474W        W41943   7.904   0.084   1.190 -0.4058  0.0752 -0.1002
26475W        W41944  17.658   0.079  11.669 -0.1127 -0.1276  0.0601
26476W        W41945   6.242   9.806  15.105 -0.5484  0.2720  0.0397
26477W        W41946  12.151   7.265  10.419  0.0513  0.1189  0.0263
26478W        W41947  16.959  10.332  14.830 -0.2632 -0.0245  0.1249
26479W        W41948  18.021   2.912  16.069  0.1291  0.0362  0.0328
26480W        W41949  16.823   7.523  11.034 -0.1907 -0.0355 -0.0570
26481W        W41950  15.362   6.064   1.512 -0.0650  0.1640 -0.1514
26482W        W41951   8.650   1.686   4.316 -0.2161  0.1537  0.0683
26483W        W41952  14.115  15.359   4.158 -0.4550 -0.1073  0.3139
26484W        W41953  17.026   9.274   0.023  0.1963  0.1054  0.1194
26485W        W41954  15.366   5.291   5.661 -0.0361 -0.0910 -0.2164
26486W        W41955  16.647  17.468  11.800 -0.2806 -0.0404  0.0979
26487W        W41956   8.542   1.523   1.325  0.1831 -0.0845  0.3513
26488W        W41957  10.690   4.155  11.829 -0.1377  0.1718  0.2636
26489W        W41958  17.657   1.812   0.044 -0.2413  0.3128  0.3274
26490W        W41959   4.806   6.105  13.223 -0.1561  0.0102 -0.0137
26491W        W41960  14.446  10.708  10.326 -0.1159  0.0629 -0.0826
26492W        W41961   9.526  16.553  13.689 -0.3040 -0.0917  0.1226
26493W        W41962  14.634   9.475  15.653 -0.2458 -0.2605 -0.1182
26494W        W41963   1.237   3.400  15.693 -0.0189 -0.0149  0.1759
26495W        W41964  14.468  14.131   0.457  0.2038  0.0904 -0.4135
26496W        W41965   0.893   3.692  12.291 -0.0033 -0.0248  0.1803
26497W        W41966  15.245  17.440  11.935 -0.0308 -0.2281  0.2248
26498W        W41967   9.308  13.183  14.975  0.1507 -0.2522 -0.1163
26499W        W41968  13.983  16.177  16.057  0.1780 -0.2670  0.1961
26500W        W41969   5.588  15.032   0.648  0.0770  0.0525  0.1683
26501W        W41970   7.881   7.179  11.076  0.1952  0.1036 -0.2652
26502W        W41971   1.407   1.935  14.263 -0.0841  0.1972 -0.0314
26503W        W41972   7.380   4.979  13.352  0.0288  0.2236  0.1460
26504W        W41973  15.142   9.830   4.977  0.0430  0.0295 -0.1084
26505W        W41974   8.399   2.452   2.698  0.4480  0.0505 -0.0551
26506W        W41975  10.558  13.787   5.050 -0.3201 -0.0826 -0.0180
26507W        W41976  11.996  12.694  16.147  0.1311  0.1221  0.0163
26508W        W41977   3.619  15.896   4.166  0.4602 -0.0826  0.1885
26509W        W41978   3.501   1.351  15.317 -0.1394 -0.3007 -0.0961
26510W        W41979   4.405  11.200  11.272  0.0608 -0.2727  0.1016
26511W        W41980   9.229   4.266   4.547 -0.2972 -0.0295 -0.4273
26512W        W41981   3.049   9.777  11.006 -0.1385  0.2163 -0.1703
26513W        W41982   0.247  11.424   2.319 -0.1655 -0.1698 -0.2000
26514W        W41983  11.582  13.966  15.646  0.0661  0.2443  0.0665
26515W        W41984   4.159   4.052  11.321 -0.3465  0.2081 -0.2872
26516W        W41985   7.896   2.317   2.996 -0.3287  0.0200 -0.0638
26517W        W41986  18.262  13.377   5.524  0.0574  0.1355 -0.2182
26518W        W41987  15.296  12.353  13.858 -0.3113 -0.0022 -0.3694
26519W        W41988   2.262  15.088  11.435  0.0665  0.0253 -0.1511
26520W        W41989   6.454  10.449  15.100  0.0931 -0.0043 -0.0561
26521W        W41990  12.556   8.700  12.394  0.3296  0.3470  0.2530
26522W        W41991  17.927  15.855   4.711  0.0192 -0.4656  0.1214
26523W        W41992   5.805   7.611   0.625 -0.2528  0.0288 -0.1290
26524W        W41993   5.235   7.599  11.743  0.1729  0.3398 -0.0297
26525W        W41994   1.686   6.113   4.599  0.2398 -0.1033 -0.0603
26526W        W41995  12.130  11.389  14.108 -0.1799  0.2650  0.0372
26527W        W41996  17.274   6.097   3.403 -0.2123 -0.1234  0.0592
26528W        W41997   6.217  12.569   3.460  0.1641  0.0957  0.0518
26529W        W41998  11.998   5.066   3.846 -0.0376  0.0288 -0.1120
26530W        W41999   2.449   8.962   6.384  0.0451  0.0635  0.3623
26531W        W42000   5.210  17.737  11.491 -0.1016  0.0590  0.1929
26532W        W42001  16.103   5.618   4.227 -0.1788  0.0387  0.0109
26533W        W42002   0.976  15.618   3.864  0.2745 -0.2136  0.0786
26534W        W42003  16.823   0.566  13.577 -0.0337  0.1838 -0.0341
26535W        W42004  17.980  10.075  12.784 -0.1856  0.1740 -0.3619
26536W        W42005  17.973   8.665   0.094 -0.0403 -0.1295  0.2074
26537W        W42006   1.609  13.538  11.233 -0.2258  0.2506  0.2356
26538W        W42007  11.065  16.593  15.878  0.2146  0.1266 -0.0067
26539W        W42008   5.048  15.086   1.344  0.2810 -0.0132  0.1229
26540W        W42009   2.320   9.886  14.981 -0.0648 -0.1532  0.3094
26541W        W42010  13.120   9.909  14.770  0.1197 -0.0794  0.0035
26542W        W42011   5.281   5.806   3.260 -0.2056  0.1192 -0.0726
26543W        W42012  13.011  15.354  10.530 -0.1708  0.0252 -0.0534
26544W        W42013   7.402   6.444  12.167 -0.0623  0.0874  0.0882
26545W        W42014   3.554   5.377   2.911 -0.1187 -0.0448 -0.1456
26546W        W42015  16.257  11.276   0.013  0.1337  0.2097 -0.0044
26547W        W42016  11.107  10.510  16.096 -0.1796  0.1126  0.1562
26548W        W42017  11.515  16.266   2.928 -0.1299 -0.2810 -0.1012
26549W        W42018   8.417   8.870  13.800  0.2534 -0.0099  0.3385
26550W        W42019  10.853   1.523  13.991  0.3542 -0.1562  0.0332
26551W        W42020  12.110  15.479  14.597  0.3118 -0.2676  0.2633
26552W        W42021  12.502  11.470  11.620 -0.1731  0.3352  0.0784
26553W        W42022  16.827  15.576   3.570 -0.1202 -0.0018 -0.0533
26554W        W42023  16.755  14.889  11.450 -0.2483  0.0259  0.0066
26555W        W42024  11.186  14.221   2.569 -0.1106  0.0402 -0.5255
26556W        W42025   9.924  17.892   2.832  0.0190  0.0328  0.0819
26557W        W42026   6.387  10.159  12.633 -0.1827  0.0222 -0.1901
26558W        W42027   3.979   3.588  11.358 -0.0708 -0.0636 -0.2240
26559W        W42028  12.547   8.994   0.933  0.0568 -0.1407 -0.0028
26560W        W42029  11.008  12.033  12.137 -0.0507 -0.0333 -0.2789
26561W        W42030  17.800   5.559   0.888  0.2537 -0.3035 -0.1648
26562W        W42031   2.900   5.189  10.117 -0.1677 -0.0106 -0.1021
26563W        W42032  14.258   5.508  13.443 -0.2909 -0.0828 -0.1606
26564W        W42033  15.940   3.047   2.610  0.2603 -0.3808  0.3026
26565W        W42034  13.908   0.637  13.643 -0.2063 -0.0517 -0.1376
26566W        W42035   5.310   1.727  11.909  0.1031  0.0806  0.3407
26567W        W42036   0.413  12.456   1.873  0.0136  0.0994 -0.1108
26568W        W42037   0.819   6.054  15.373  0.0235  0.0807 -0.1510
26569W        W42038  17.612   3.463  14.955  0.0051 -0.2081  0.0239
26570W        W42039  12.195   5.075  15.602  0.1438 -0.0289  0.1904
26571W        W42040   6.879  14.809   0.792 -0.1264  0.1020  0.1871
26572W        W42041   9.654  15.757  10.604 -0.0964  0.0314  0.0521
26573W        W42042  15.920   9.550   4.875 -0.1952 -0.0388  0.0877
26574W        W42043  11.283  14.007  10.349  0.1516  0.1156 -0.3165
26575W        W42044   2.377  16.451  12.068  0.1195  0.2292  0.0325
26576W        W42045  14.780  16.236   0.180  0.1919 -0.0817  0.2410
26577W        W42046  14.365   4.693   2.411  0.1236  0.1226  0.1742
26578W        W42047  13.228   7.088   0.655  0.2062  0.1163  0.1590
26579W        W42048   8.444   9.663   5.925 -0.1855  0.2514 -0.0842
26580W        W42049  10.792  11.116   2.303  0.0071  0.0334 -0.1132
26581W        W42050   8.062  13.339   4.441  0.2484 -0.1153 -0.1397
26582W        W42051   6.523   9.379   0.660 -0.0781 -0.0373  0.3804
26583W        W42052  14.792  11.781   2.541 -0.2165 -0.0912 -0.4009
26584W        W42053   0.946   2.569  11.178  0.0379  0.3570 -0.3109
26585W        W42054   2.245   2.429  14.477  0.2353 -0.1158 -0.2170
26586W        W42055  10.702  13.841  12.241  0.0590 -0.2165  0.2433
26587W        W42056  14.537   3.866  16.076 -0.1688  0.1235 -0.1134
26588W        W42057   7.492  14.943  12.073  0.0310  0.0546 -0.0311
26589W        W42058  14.924  16.460  15.945  0.5133  0.3118  0.0200
26590W        W42059   2.984  12.347   2.907 -0.0115  0.3877  0.0582
26591W        W42060  10.329   0.439   4.962 -0.2022  0.0682 -0.3686
26592W        W42061   1.391   5.035   2.717  0.3049  0.0794 -0.3377
26593W        W42062   3.479   3.073   0.699 -0.1700 -0.3795 -0.2271
26594W        W42063  13.016   2.146  14.324  0.2951 -0.0385 -0.2220
26595W        W42064   5.124  15.370  13.990  0.2635  0.0155  0.0074
26596W        W42065  17.331   0.215   2.256 -0.1840  0.2056  0.3814
26597W        W42066   0.024  10.971   0.156  0.0748 -0.0510  0.0878
26598W        W42067  13.350  15.902   3.135  0.4027  0.2733 -0.2014
26599W        W42068   7.610   8.610  13.123  0.0639  0.0864 -0.0759
26600W        W42069   1.075   8.308  15.121  0.0828 -0.2073 -0.0782
26601W        W42070  14.140  11.072  11.544  0.2039 -0.1842  0.3540
26602W        W42071  15.738  12.943   4.539  0.0968  0.0807  0.0979
26603W        W42072  12.072  13.351  15.291 -0.0523 -0.1306 -0.4736
26604W        W42073  15.738  11.070  12.703  0.2314  0.1007  0.1414
26605W        W42074   5.418  11.159  11.625  0.1679  0.1390  0.0606
26606W        W42075   4.911  16.182  12.566 -0.3093  0.1098  0.0402
26607W        W42076   7.043   5.612   4.595  0.0498  0.4543  0.0080
26608W        W42077  15.878   3.790  10.930  0.0417 -0.0813 -0.2565
26609W        W42078   5.296   1.728   5.587  0.2919 -0.2126  0.2674
26610W        W42079   0.451   9.999  11.562 -0.0118 -0.0328  0.5001
26611W        W42080  14.830   4.167   2.375 -0.0846 -0.1143  0.1041
26612W        W42081   1.882   6.954   2.197  0.3195 -0.1022  0.0887
26613W        W42082   5.362  13.904   2.533  0.0312  0.0817  0.1293
26614W        W42083  11.202  12.213   1.701  0.1499 -0.0447 -0.1117
26615W        W42084   9.655   6.517   5.228 -0.1373  0.0264 -0.2900
26616W        W42085   3.555  14.415  12.512 -0.0025  0.0605 -0.2172
26617W        W42086  11.793   1.767  13.047  0.0218  0.0831 -0.1090
26618W        W42087  15.333   9.551  14.293  0.1285 -0.2274  0.3318
26619W        W42088   0.498   0.503   1.140 -0.1387 -0.1970  0.3330
26620W        W42089   9.792  17.680   3.269 -0.0658 -0.0175 -0.3588
26621W        W42090  16.128   3.215  14.659 -0.0909  0.1399  0.0047
26622W        W42091  10.494   6.540   2.256 -0.1959  0.0067 -0.0277
26623W        W42092   2.382  12.140   1.674 -0.2414 -0.0265  0.1459
26624W        W42093  17.359   3.545   2.368 -0.2662 -0.0159 -0.1342
26625W        W42094  10.830  14.767  11.348 -0.1276 -0.1649  0.0433
26626W        W42095  16.000  17.190  12.901  0.0983 -0.2439  0.0715
26627W        W42096  10.141   5.988   4.018 -0.0230 -0.1393 -0.0975
26628W        W42097  11.451  14.322   5.489  0.0776  0.4178 -0.3639
26629W        W42098   2.694  16.731  14.910  0.1324 -0.3366 -0.1548
26630W        W42099   9.894   0.188   5.103 -0.1043 -0.2847  0.0308
26631W        W42100  12.274   9.003   4.295 -0.2014  0.0014 -0.0381
26632W        W42101  14.184  10.166   4.131 -0.0467  0.2127  0.2369
26633W        W42102   5.685   1.472   5.343 -0.1033  0.1578 -0.0921
26634W        W42103   6.646   7.733  13.040 -0.0108 -0.1593  0.1036
26635W        W42104   3.786   1.734  10.880 -0.2388 -0.5006 -0.1892
26636W        W42105   2.557   7.907  11.634 -0.0747 -0.0513 -0.0475
26637W        W42106   5.104   9.085  15.472  0.1447 -0.2828 -0.0221
26638W        W42107  17.733  10.885  10.588  0.1582 -0.1787  0.1545
26639W        W42108   5.367   9.204   1.976  0.0163 -0.0321  0.0635
26640W        W42109  13.874   1.553   4.190  0.2228  0.1413 -0.3521
26641W        W42110   6.412   9.959   2.482  0.3022 -0.1803  0.1187
26642W        W42111  10.887   5.915   5.496 -0.0316 -0.0324 -0.0844
26643W        W42112   2.549   8.713   2.124 -0.1958 -0.0512 -0.0809
26644W        W42113   3.496  10.515   4.412  0.1811  0.0357 -0.0049
26645W        W42114  16.502  15.338  12.803 -0.0217 -0.0179 -0.0584
26646W        W42115   8.247   8.146   4.324  0.2394  0.3285  0.0811
26647W        W42116   7.569   1.162  15.549  0.1285 -0.1317  0.4137
26648W        W42117  12.731   5.935  13.174 -0.0845  0.0546 -0.2425
26649W        W42118  15.146  11.009  11.427  0.0046 -0.0131 -0.0728
26650W        W42119  15.422  16.561  11.168 -0.1178 -0.0878  0.0222
26651W        W42120   3.265   3.892   2.878 -0.0155  0.0423  0.0228
26652W        W42121  10.853   3.723   0.169  0.0661 -0.0909  0.0344
26653W        W42122  12.673  14.833   4.009  0.0496 -0.0671  0.0277
26654W        W42123   0.951  15.659  14.097  0.0713 -0.2864 -0.0770
26655W        W42124   0.422  15.324   4.437 -0.0811  0.2278 -0.3671
26656W        W42125  18.240   8.577  11.495 -0.3554 -0.0465 -0.2666
26657W        W42126   6.689   0.077  15.963  0.2322 -0.0669 -0.0997
26658W        W42127  10.835  16.434  13.130 -0.4719  0.0858  0.0452
26659W        W42128  16.707  11.300  13.735 -0.2612  0.0816 -0.1642
26660W        W42129   9.363   2.967  12.806 -0.1079 -0.0147  0.2389
26661W        W42130  10.399  16.905   2.676  0.0661 -0.0917  0.1330
26662W        W42131  16.857  12.755  14.140 -0.1259 -0.0673 -0.0457
26663W        W42132  11.151   1.976  14.519  0.1850 -0.3804 -0.1291
26664W        W42133  15.649  16.704   3.849  0.0407 -0.0375 -0.0941
26665W        W42134  12.667  13.384   3.363 -0.1865  0.0935  0.0975
26666W        W42135   4.195   5.284  13.572  0.0462 -0.4452  0.3175
26667W        W42136  10.648  15.948   4.705  0.0319 -0.0167 -0.3500
26668W        W42137  11.720   2.170   2.047 -0.2040 -0.0143 -0.1275
26669W        W42138  12.437   2.200   3.145 -0.0318 -0.0883  0.0927
26670W        W42139  13.282  13.209  12.588  0.2599  0.0540 -0.4807
26671W        W42140   0.783   0.755   3.245  0.1578  0.0257 -0.0516
26672W        W42141   8.309   4.697  15.509 -0.4407  0.0971  0.4933
26673W        W42142   6.546   1.040   4.948  0.1918  0.0403 -0.0684
26674W        W42143  11.978   8.283   2.984  0.1050 -0.1153 -0.3156
26675W        W42144  12.172   2.310  10.996 -0.1850 -0.1988 -0.1553
26676W        W42145  17.188  12.445   4.125 -0.1874 -0.1303 -0.1241
26677W        W42146   4.030   9.204  11.437 -0.1083  0.3286 -0.1671
26678W        W42147   6.581  12.266  16.029  0.1816 -0.2044 -0.0508
26679W        W42148   1.346   0.609  11.211  0.1162  0.2194 -0.1309
26680W        W42149   7.096   4.521   0.851 -0.4045 -0.0461  0.1189
26681W        W42150   8.227   0.771  13.140  0.0917 -0.4970 -0.0281
26682W        W42151  10.240  10.529  15.675 -0.2182 -0.0845 -0.1079
26683W        W42152  14.751   1.210   1.207 -0.0476  0.0577  0.1012
26684W        W42153   2.360   8.906   5.056 -0.0896  0.2717  0.0560
26685W        W42154   0.375   8.428  15.850  0.2514 -0.1085 -0.0362
26686W        W42155  13.819  10.462  10.912 -0.1844  0.2195  0.0642
26687W        W42156   7.026  10.621  13.326  0.0390  0.1753 -0.1103
26688W        W42157   2.229   1.940  14.627  0.0146 -0.0300 -0.2493
26689W        W42158  11.845  16.649   0.802 -0.0500 -0.1527  0.0986
26690W        W42159   2.971  13.749  14.117 -0.2125  0.1041  0.1919
26691W        W42160   8.218  10.780   1.597 -0.0351 -0.6751  0.2556
26692W        W42161  13.391  14.797  15.791  0.1071 -0.1201 -0.2000
26693W        W42162  11.130   7.721  13.780 -0.1244  0.0243  0.3733
26694W        W42163  15.785  17.311   4.607 -0.1520 -0.0499  0.0206
26695W        W42164  17.081  14.621  12.847  0.0354  0.0195 -0.1346
26696W        W42165   9.916   0.078   2.872 -0.0437  0.1209  0.0179
26697W        W42166  11.435  16.496   4.342  0.2957  0.1396  0.2862
26698W        W42167  11.711   0.209   3.981  0.0949 -0.2934  0.4116
26699W        W42168   6.822   5.528  11.060 -0.3665  0.0149 -0.1038
26700W        W42169   3.928  16.999  10.603 -0.0149  0.1008  0.1896
26701W        W42170   7.940  10.622   5.770  0.1820  0.1836  0.0482
26702W        W42171  17.541   4.780   4.150 -0.5431 -0.2134 -0.0814
26703W        W42172   5.151   6.115  15.213 -0.1481 -0.0866 -0.1599
26704W        W42173  11.588   5.691  13.738  0.1058  0.1443  0.2290
26705W        W42174   2.229   2.663   1.562  0.0333 -0.1509 -0.0830
26706W        W42175  12.012  15.166  16.101 -0.0154  0.1346 -0.3432
26707W        W42176   9.738  11.758  10.302  0.2355 -0.2013  0.2566
26708W        W42177  17.679  15.879   0.868  0.1423 -0.0977  0.2171
26709W        W42178   4.987  14.558   2.420  0.0586  0.0064  0.0296
26710W        W42179   3.893   9.520  12.949 -0.3335 -0.1179 -0.1300
26711W        W42180  10.845   5.585  12.860 -0.0707 -0.0361 -0.0469
26712W        W42181  12.148   0.534   2.325  0.3241  0.1337 -0.2878
26713W        W42182  15.241  12.909  15.295  0.1585 -0.2323 -0.4406
26714W        W42183   5.456  13.041   4.465  0.1534 -0.0059 -0.0754
26715W        W42184   1.471   2.638   3.282  0.1051  0.4944  0.1023
26716W        W42185  10.615  13.189   4.475 -0.0242 -0.1184 -0.1122
26717W        W42186   6.336   3.695   3.135  0.1183  0.3138 -0.2878
26718W        W42187   5.068   7.301   2.322 -0.3216 -0.1628 -0.1295
26719W        W42188  17.066   4.419  14.955  0.0447 -0.2171  0.5110
26720W        W42189   0.016  11.435  10.188 -0.0040 -0.1361  0.0535
26721W        W42190   0.916   4.231  11.016 -0.3465 -0.0673  0.2604
26722W        W42191  10.302   6.179  15.391  0.1284 -0.0609 -0.1377
26723W        W42192   8.765  14.623  11.432  0.0594 -0.1814  0.1916
26724W        W42193  13.393   7.938   5.264 -0.2766  0.2203 -0.1025
26725W        W42194  13.334  11.391   3.938  0.0329  0.2584 -0.0773
26726W        W42195   7.021  15.502   3.602  0.0325  0.3733  0.0612
26727W        W42196   9.433  10.599  15.085 -0.2399  0.1438  0.0454
26728W        W42197  14.837  16.239   6.442 -0.0090  0.4557  0.0987
26729W        W42198  16.180  16.958   4.799  0.2153 -0.0224  0.2084
26730W        W42199  16.451  17.611   3.506 -0.0222 -0.0729 -0.0982
26731W        W42200  17.878   5.914   4.889 -0.0682 -0.1738  0.0797
26732W        W42201  17.999   3.096   5.530  0.0705 -0.0044 -0.3074
26733W        W42202  17.082   7.436  13.102 -0.0529  0.2776 -0.1376
26734W        W42203   0.536  11.242   3.084 -0.1597  0.1365 -0.2039
26735W        W42204   0.656  17.334  14.001  0.0763  0.2716  0.2083
26736W        W42205   9.555  16.813   1.438 -0.1968  0.1272  0.0719
26737W        W42206   4.454  14.248   4.777  0.0459 -0.1457  0.1567
26738W        W42207   9.373   2.403   6.140  0.2204  0.0955  0.1536
26739W        W42208   0.389   1.050   0.524 -0.0625 -0.3103 -0.1868
26740W        W42209  14.547   1.328   2.201  0.1017  0.2231 -0.2587
26741W        W42210  14.192  12.765  16.173 -0.0157  0.1236 -0.1602
26742W        W42211  14.513   0.353   3.844 -0.3021 -0.0696  0.1445
26743W        W42212  12.693   4.283   0.497 -0.2048  0.2850  0.0356
26744W        W42213  10.007   7.685   2.987 -0.0359  0.0486  0.2106
26745W        W42214   1.201  14.120   3.921 -0.0697  0.0771 -0.1387
26746W        W42215   8.742   9.786  12.164  0.1011 -0.0788 -0.0064
26747W        W42216   0.081  13.552  15.661  0.3749 -0.0120  0.1609
26748W        W42217  16.027   2.986   1.285 -0.0222  0.0404 -0.0427
26749W        W42218   4.825   5.428  11.576 -0.4736  0.1761  0.2079
26750W        W42219  11.875   8.881   4.596 -0.0292 -0.1650  0.1677
26751W        W42220   3.911   1.134  12.940  0.0754 -0.1421 -0.4291
26752W        W42221  13.831   0.728   4.566  0.0825 -0.1828  0.1483
26753W        W42222  12.179  10.320  15.072 -0.0803  0.0142 -0.0847
26754W        W42223  17.485  17.161   0.237  0.2724  0.3301  0.1187
26755W        W42224   1.056  12.433   5.874  0.3538 -0.1587 -0.2185
26756W        W42225   1.156  11.697   3.425 -0.4364  0.3446 -0.2021
26757W        W42226   8.631   2.040   3.972  0.3011  0.2819 -0.2125
26758W        W42227  13.215  14.249  15.844 -0.2654 -0.0275 -0.2240
26759W        W42228   6.694  14.991  10.875  0.0387 -0.2527  0.0711
26760W        W42229  17.038   2.823  12.716 -0.0901 -0.1678  0.0213
26761W        W42230   7.259  16.154   3.996 -0.1992 -0.3844 -0.1611
26762W        W42231  11.380   3.951   3.098 -0.0651  0.1447  0.1480
26763W        W42232   3.727   1.595  14.917 -0.4129 -0.1474  0.2663
26764W        W42233  16.864  12.660   3.231  0.1456 -0.0053 -0.0380
26765W        W42234   9.286  15.515  14.493  0.3978  0.1290  0.0046
26766W        W42235  15.305  15.144  14.717 -0.1044 -0.0226 -0.3057
26767W        W42236  14.250  14.996  15.743  0.3325 -0.0867 -0.0157
26768W        W42237   3.518   3.096  13.277 -0.1818  0.0620  0.1276
26769W        W42238   0.308   8.961  13.277 -0.0023  0.3546  0.4066
26770W        W42239   1.277   6.530  15.633 -0.2481  0.0957 -0.0967
26771W        W42240   7.845  17.121  12.178  0.2109 -0.1585  0.0895
26772W        W42241  12.609  17.149   1.173 -0.1181 -0.0204 -0.0939
26773W        W42242   5.709  12.129   0.160  0.2041  0.1237 -0.0116
26774W        W42243   1.680   4.484  13.600 -0.0439 -0.1018 -0.1630
26775W        W42244  13.683  16.604  15.377  0.0419 -0.3783 -0.2344
26776W        W42245   0.654  17.804  11.265  0.1875  0.1521 -0.1628
26777W        W42246   3.000   6.402   1.119 -0.1275 -0.1577  0.3135
26778W        W42247   7.562   8.455  15.103  0.1953  0.2465  0.2143
26779W        W42248   8.381  17.284  12.225 -0.1503  0.1605  0.0253
26780W        W42249  13.498   9.807  13.973  0.0902 -0.1215  0.0463
26781W        W42250  13.941   1.160  10.994  0.2295  0.1262  0.1655
26782W        W42251   8.820  14.834   5.264  0.1607  0.3023  0.3661
26783W        W42252  11.843  15.953   0.701  0.2256  0.3430  0.1005
26784W        W42253  18.128  17.864  14.010 -0.2837 -0.3824 -0.2385
26785W        W42254  10.609  13.314   5.027  0.0741 -0.0688 -0.3254
26786W        W42255   8.022   3.163   2.300 -0.1397  0.0684  0.0067
26787W        W42256  14.705  10.668  14.765  0.2811  0.0812  0.2748
26788W        W42257  12.213  13.638  13.459 -0.0396  0.3883  0.2802
26789W        W42258  10.826   9.178   4.492 -0.1269 -0.1272 -0.0756
26790W        W42259  17.040  17.173   2.064  0.2081  0.0198 -0.3491
26791W        W42260   2.121  14.411  16.088  0.2757 -0.0224  0.1182
26792W        W42261   0.247  17.638   0.156  0.2792 -0.0089  0.2639
26793W        W42262  17.895  13.803   1.628 -0.1367 -0.1378  0.2634
26794W        W42263  14.617  16.736   2.363  0.1109  0.2248  0.0989
26795W        W42264  14.519   1.825  14.636 -0.0803 -0.0118 -0.0106
26796W        W42265  17.017   6.757   4.511 -0.0214 -0.1226  0.2723
26797W        W42266   4.669  10.067  15.067  0.0169  0.4092 -0.3451
26798W        W42267   9.914   6.524  15.269  0.1711 -0.1516  0.5155
26799W        W42268   8.100   0.136   5.064 -0.0869  0.0299 -0.0375
26800W        W42269   8.135   4.183  13.646 -0.4775  0.0498  0.1122
26801W        W42270  14.607   7.864   4.138 -0.1947  0.1967  0.2391
26802W        W42271  15.345   1.483   2.349 -0.1315  0.0168  0.1528
26803W        W42272  16.451   2.331   1.146  0.1897  0.2095 -0.1120
26804W        W42273   5.681   0.880  15.233  0.0861 -0.1705  0.3146
26805W        W42274   4.595   8.392   2.361  0.0004 -0.2038 -0.1446
26806W        W42275  16.816  10.886  10.864  0.4383 -0.0347  0.0036
26807W        W42276   3.107   5.279  14.388  0.1316  0.1132 -0.2934
26808W        W42277  17.075   3.829   1.783 -0.3847  0.0623 -0.0095
26809W        W42278   6.597  10.775   2.327  0.3089 -0.2287  0.1000
26810W        W42279  17.282   2.017   2.266  0.0352  0.0584  0.0818
26811W        W42280   0.882   2.603   5.711  0.0406 -0.2025 -0.2351
26812W        W42281   0.652   1.596  13.949 -0.0657 -0.1547 -0.0077
26813W        W42282   7.548   5.339   3.852  0.0148 -0.0241  0.1603
26814W        W42283   6.036  13.747  13.408  0.3090 -0.3702 -0.1704
26815W        W42284   2.077   6.175   1.565  0.1559  0.1546  0.0803
26816W        W42285   2.719  13.271   3.306 -0.0486  0.3662  0.0474
26817W        W42286  13.059   9.114   3.671 -0.0540  0.1173  0.1167
26818W        W42287  17.939   5.294  14.882  0.1371  0.1667  0.1579
26819W        W42288  13.808   4.540   0.599 -0.0336  0.2665 -0.2049
26820W        W42289   6.703  14.149  15.104  0.3401  0.1779  0.0728
26821W        W42290  12.615  11.928   1.675 -0.2335 -0.1131  0.2521
26822W        W42291  10.792   2.766   4.205 -0.0797  0.1194  0.0730
26823W        W42292   4.680  13.918  12.949 -0.2539 -0.1000  0.2795
26824W        W42293  10.424   5.779  13.229 -0.1064 -0.0688 -0.0172
26825W        W42294  12.112  16.815  13.186  0.1452  0.0535  0.1112
26826W        W42295   5.614   5.756  15.193 -0.3041 -0.0911  0.1240
26827W        W42296   2.715   7.725   2.380 -0.0748 -0.0076 -0.2165
26828W        W42297  11.838   6.021   5.359  0.0089  0.0229 -0.2186
26829W        W42298  15.730  12.622  11.318 -0.1158  0.0004 -0.2216
26830W        W42299   1.651   8.246  15.175 -0.0919 -0.0576 -0.3104
26831W        W42300   5.408  13.403  15.088  0.0250 -0.0183  0.2009
26832W        W42301  13.435   0.093   1.785  0.1283  0.2281  0.0683
26833W        W42302  16.772   5.645   2.350  0.2056  0.1525 -0.0092
26834W        W42303  14.696  10.491   2.184 -0.2300 -0.0192 -0.1642
26835W        W42304   4.576   6.645  14.571  0.1131  0.2296 -0.1900
26836W        W42305  11.760   9.498   0.724  0.1037  0.3781  0.1108
26837W        W42306  10.613   7.230   2.282  0.0980  0.0573  0.0396
26838W        W42307  10.521   7.878   4.343  0.0707 -0.3665  0.0918
26839W        W42308  11.967   3.574  14.087 -0.1915 -0.0444  0.1973
26840W        W42309   0.221   0.195  14.178  0.0643 -0.1589 -0.1216
26841W        W42310   5.315   3.278   0.212  0.0021  0.4444 -0.0541
26842W        W42311   6.104  12.772   0.786  0.0585 -0.1622  0.0592
26843W        W42312  11.917  10.094  14.215  0.0354  0.1376 -0.1624
26844W        W42313  17.027  17.043   4.483  0.3255  0.3726  0.2496
26845W        W42314  16.621  13.169   1.718  0.1604 -0.2154 -0.2610
26846W        W42315   3.438  14.184  11.846  0.1225  0.1351  0.3197
26847W        W42316  15.996   8.391  13.172 -0.2036  0.0720 -0.2062
26848W        W42317   0.427  10.909   5.169 -0.1130 -0.3426 -0.1500
26849W        W42318   2.534   4.215   5.921 -0.0731 -0.3783  0.2232
26850W        W42319   6.464  10.572   2.952 -0.0541  0.0764 -0.1527
26851W        W42320   7.972   8.323  13.470 -0.1791 -0.0206  0.0403
26852W        W42321   3.922  10.436  11.873  0.0105 -0.2353  0.1792
26853W        W42322  18.118   8.804   2.413  0.0021 -0.4220 -0.1368
26854W        W42323  15.781   4.252  13.186  0.0695  0.0163  0.2302
26855W        W42324  14.142   4.181   0.864  0.0666  0.0138  0.1979
26856W        W42325   5.368   8.425  15.780  0.0210  0.0301 -0.2734
26857W        W42326   8.590   2.138   1.387  0.0235  0.4591  0.0605
26858W        W42327  16.553   7.012   2.644  0.2004 -0.2670  0.0865
26859W        W42328   5.241  10.433   2.372 -0.1250 -0.0018  0.1688
26860W        W42329   3.955   3.723  15.300  0.3309 -0.1661  0.1911
26861W        W42330   3.737  13.940   2.369  0.1570 -0.1567 -0.0578
26862W        W42331   5.759   3.164  15.873  0.0301  0.0446  0.2825
26863W        W42332  18.244   2.977   2.020  0.1163  0.0192  0.0505
26864W        W42333  13.292  15.406   3.171 -0.0644  0.0725 -0.1647
26865W        W42334   8.536  16.390   4.602 -0.0195  0.1502 -0.0934
26866W        W42335  17.056  15.566   5.964 -0.0564 -0.1577  0.0236
26867W        W42336   1.989  15.838  14.022  0.1635 -0.2033  0.1525
26868W        W42337  17.236   4.240   4.385 -0.2171  0.0974 -0.0978
26869W        W42338  15.248   0.056   3.452 -0.4196  0.0507 -0.1335
26870W        W42339   0.837   0.918   4.196 -0.1469 -0.4114 -0.0984
26871W        W42340   7.302  17.377   2.272  0.2070 -0.2648 -0.4901
26872W        W42341   4.811  15.212  15.537 -0.0726 -0.1021  0.0591
26873W        W42342  13.471   9.601  13.433 -0.0214 -0.0674  0.1872
26874W        W42343  13.001  15.198   0.394 -0.1223 -0.0115  0.0405
26875W        W42344   4.227   3.376  15.323 -0.4672  0.2976  0.2394
26876W        W42345  16.562  12.973   3.532 -0.2581  0.0695 -0.0665
26877W        W42346   3.788  15.644   1.557  0.2814  0.1318 -0.3160
26878W        W42347   4.910  16.401  15.836 -0.1772 -0.1850  0.0392
26879W        W42348  13.013  10.732  10.980 -0.0509 -0.0194  0.1869
26880W        W42349   9.247   8.053  11.970 -0.4154 -0.2913 -0.1280
26881W        W42350   6.444   4.929  13.730 -0.0312 -0.1249  0.2318
26882W        W42351  16.145   7.522  15.447  0.1142  0.2462 -0.2792
26883W        W42352  14.363   1.164   3.226  0.0603  0.1385  0.3716
26884W        W42353  11.105  14.989   1.990 -0.1293  0.0000  0.3312
26885W        W42354   8.529  13.452   4.561 -0.1613 -0.0753  0.0330
26886W        W42355   9.116  13.224  12.918  0.2026  0.0958 -0.4357
26887W        W42356  11.771  17.259   4.465  0.0765  0.1748  0.2020
26888W        W42357   5.728   2.560  12.061 -0.1033 -0.0036 -0.1131
26889W        W42358  16.438   3.905  10.894  0.2306 -0.0950 -0.2318
26890W        W42359   7.145   5.141  15.063  0.0909 -0.0756  0.2813
26891W        W42360  12.906   8.956  12.182 -0.0660  0.0497 -0.1727
26892W        W42361   0.992  15.191  10.185 -0.0582 -0.4307 -0.2447
26893W        W42362  18.116   1.119  14.367  0.2185  0.0473 -0.2382
26894W        W42363  11.363   4.855  15.001 -0.0024  0.3351  0.5598
26895W        W42364   4.281   2.922  12.158  0.1701  0.0112  0.1300
26896W        W42365   7.687   1.408   5.897  0.1219  0.2068  0.1516
26897W        W42366  15.424   1.947   5.724  0.4218 -0.1757 -0.0288
26898W        W42367  11.781  14.727   5.035 -0.1505 -0.2595  0.0644
26899W        W42368   2.425  13.565  13.320  0.2347 -0.1054  0.0345
26900W        W42369   4.495   1.785  11.978 -0.1321  0.0636 -0.0166
26901W        W42370   5.684  13.642  11.100 -0.4845 -0.1349  0.0059
26902W        W42371  11.116   0.215  12.973  0.4914  0.1847  0.2992
26903W        W42372   8.891   6.149  10.932  0.0253 -0.0247 -0.1351
26904W        W42373  13.185  10.043  13.344  0.1585 -0.0764  0.0617
26905W        W42374  10.136   3.046   3.546  0.1246  0.1451  0.0136
26906W        W42375   9.872  13.044  15.167  0.1961 -0.0850  0.1735
26907W        W42376  11.684   6.633  10.168 -0.0017 -0.2058 -0.0056
26908W        W42377  17.872  15.425  15.845 -0.0071  0.2694 -0.0919
26909W        W42378  11.280   6.180  13.702  0.0932 -0.1032  0.0100
26910W        W42379  11.961  16.610  15.278  0.0917  0.0835 -0.0143
26911W        W42380   2.464  10.370  15.706 -0.0408  0.1691 -0.2698
26912W        W42381  17.159   6.185  12.813  0.0219  0.0230 -0.0141
26913W        W42382  12.325   8.533   4.646  0.0360 -0.2022 -0.0203
26914W        W42383   8.646  11.983  13.104 -0.1472 -0.0250  0.5081
26915W        W42384   4.918   7.618  15.443  0.0258 -0.1483 -0.0091
26916W        W42385  17.176  17.293   3.192  0.0226 -0.0374 -0.2559
26917W        W42386  17.213   2.895   5.201  0.0670  0.1140  0.0756
26918W        W42387   6.739   3.455   1.483  0.0835  0.0600  0.2571
26919W        W42388   8.185   1.144   4.692 -0.0961  0.1065  0.2792
26920W        W42389   8.660  17.631  15.876 -0.3140 -0.2757  0.0383
26921W        W42390   5.212   1.218   4.638  0.1884  0.0559  0.1909
26922W        W42391  16.968   1.016  15.262  0.2669  0.3502  0.1221
26923W        W42392   0.584   5.657   1.550  0.0813 -0.2176 -0.1877
26924W        W42393   9.920   0.631  12.501  0.3772  0.3418  0.3000
26925W        W42394   1.476  12.913   4.998 -0.2605 -0.0124 -0.1672
26926W        W42395  11.881   3.334  16.010  0.1270 -0.2485 -0.0529
26927W        W42396   4.871  18.278  13.772 -0.0600 -0.2582 -0.1541
26928W        W42397   3.779  15.048   3.172  0.2992  0.0751 -0.2647
26929W        W42398   5.426  14.125   0.536 -0.0451 -0.0500  0.5746
26930W        W42399   3.781   7.806   4.431 -0.4473  0.1610  0.1508
26931W        W42400  10.093  14.095   3.611 -0.1715  0.2141  0.0779
26932W        W42401   2.455   1.406  14.971 -0.0160  0.1443 -0.1880
26933W        W42402   2.250   8.291   2.206  0.1654  0.1653 -0.3203
26934W        W42403   9.347  12.242  11.484  0.1104  0.2253 -0.0585
26935W        W42404  13.809   1.717  14.714 -0.0145 -0.0050 -0.0566
26936W        W42405  12.614  12.583   4.651  0.2834 -0.3469 -0.1605
26937W        W42406  13.322  12.036   4.574 -0.4804  0.1341  0.1286
26938W        W42407  13.615   0.672   3.751  0.0114 -0.3143  0.0132
26939W        W42408   2.994  17.232  13.008 -0.0567  0.1555  0.1398
26940W        W42409  12.671   8.634   5.090  0.0663  0.1430  0.3122
26941W        W42410  16.179   5.357  13.657  0.3776 -0.1079  0.0196
26942W        W42411   9.098  11.084   4.297 -0.2385 -0.1172  0.0770
26943W        W42412   4.354  12.629   2.854  0.0213  0.1715 -0.0065
26944W        W42413   5.057  12.064  14.697 -0.0432 -0.1589 -0.0627
26945W        W42414  11.382   9.750   5.093 -0.2614 -0.2302  0.0237
26946W        W42415   7.137   2.930   1.795 -0.2464  0.0896  0.2228
26947W        W42416   3.343  15.839  15.879  0.0271  0.0012  0.1712
26948W        W42417  13.746   0.055  14.383 -0.2294 -0.1430  0.0923
26949W        W42418   8.995   0.096   6.071 -0.0967 -0.0555  0.1342
26950W        W42419   4.817  13.095  11.535  0.0152 -0.1903  0.1172
26951W        W42420   3.991  14.264   1.418  0.1992 -0.3641  0.0082
26952W        W42421   4.252   9.440   5.088 -0.1193 -0.0258 -0.0093
26953W        W42422  12.712   3.757   4.297 -0.0615 -0.0732 -0.0477
26954W        W42423  18.237   7.842   0.910 -0.2893 -0.2866 -0.2610
26955W        W42424  18.210  11.630   3.623  0.1779  0.0829 -0.1337
26956W        W42425  17.057  10.205  14.102  0.1676  0.2134  0.0828
26957W        W42426   4.990   7.909   0.175 -0.5629  0.2702  0.0966
26958W        W42427   6.194   0.847   1.138  0.0553 -0.3056  0.3789
26959W        W42428   0.994  13.163   4.165  0.0168  0.1837 -0.0879
26960W        W42429   6.384  13.388   1.526 -0.0551 -0.0871 -0.0528
26961W        W42430   2.687  14.010   1.104  0.0104  0.2065 -0.1691
26962W        W42431  17.457  10.278   1.581  0.0401 -0.2721  0.0915
26963W        W42432   4.117   9.945   1.762 -0.0367 -0.1273  0.0228
26964W        W42433   2.073   1.611  13.540 -0.1186 -0.2253  0.2387
26965W        W42434   3.816   7.821  16.076 -0.1572  0.2435  0.0486
26966W        W42435   6.485   3.445   0.060  0.4253 -0.2282  0.3762
26967W        W42436  11.983  11.481  14.822 -0.1970  0.0393  0.0296
26968W        W42437   3.164   4.367  14.580  0.0415  0.0301 -0.2776
26969W        W42438  15.128  10.613  12.925  0.1155 -0.1714  0.0393
26970W        W42439   4.167  12.170   2.607 -0.1161 -0.1285  0.1484
26971W        W42440   0.293  12.664   0.070 -0.1562 -0.0038 -0.3299
26972W        W42441   1.978   1.761   3.553 -0.3561  0.0045  0.0327
26973W        W42442  13.418   7.713  10.945 -0.0232  0.0870  0.0192
26974W        W42443  13.482   0.012  15.505 -0.0196  0.0457  0.0728
26975W        W42444   8.272  11.916   0.621  0.0855  0.2217  0.1280
26976W        W42445  10.530  10.103   3.049  0.0159 -0.0134  0.2294
26977W        W42446   6.128   0.865  11.967  0.0842  0.0228 -0.0758
26978W        W42447  13.952   3.245   0.826  0.3499 -0.1867 -0.1992
26979W        W42448   9.022  11.284  12.985  0.0471 -0.0437  0.2491
26980W        W42449  11.724   9.551  11.513  0.1896 -0.1699  0.1862
26981W        W42450  14.825   5.567  14.714 -0.2526 -0.0029 -0.3243
26982W        W42451   4.258  13.974  13.163 -0.0225  0.0547 -0.1825
26983W        W42452  12.506  16.028  12.011 -0.1015  0.0084  0.0205
26984W        W42453   8.591  16.990   0.247 -0.1331  0.0945  0.3164
26985W        W42454  15.425  10.525   3.230  0.0753  0.1361 -0.0361
26986W        W42455   7.566  13.333  13.266  0.0460 -0.1113 -0.0387
26987W        W42456  12.003  10.963  15.211  0.1240 -0.0715  0.0348
26988W        W42457   2.116  17.142   0.073  0.0255  0.2104 -0.3126
26989W        W42458   8.093  11.992   3.703 -0.0191  0.1034  0.1973
26990W        W42459  10.696  15.478  15.550  0.3539 -0.1013 -0.1897
26991W        W42460   8.342  13.637  13.444 -0.2546  0.1038 -0.2355
26992W        W42461   8.988  16.411  11.463 -0.3658  0.1228  0.0966
26993W        W42462   8.022  17.002  13.787 -0.0723 -0.1250  0.2227
26994W        W42463  13.961  11.513  14.400  0.0812 -0.0637 -0.2652
26995W        W42464  15.647  12.527   3.181 -0.0598 -0.0477  0.2760
26996W        W42465   8.790  15.712   1.917 -0.0648 -0.4216 -0.0586
26997W        W42466  17.229   2.121   1.260 -0.1443 -0.0003 -0.0133
26998W        W42467  17.982  15.528  14.970  0.0246 -0.1168  0.1083
26999W        W42468  13.321   7.772  14.804  0.2191 -0.0399  0.1776
27000W        W42469   7.743  11.201  14.989 -0.2404 -0.3464  0.0041
27001W        W42470  14.564   1.801   4.978 -0.1251 -0.0142  0.1078
27002W        W42471   2.867   1.592  14.697  0.0263  0.1330  0.0287
27003W        W42472   1.149  11.165   3.222  0.0858 -0.2713  0.3729
27004W        W42473  14.263  13.684   3.954  0.0288  0.1414 -0.0032
27005W        W42474  14.035  10.230   1.388  0.0519  0.2681  0.0282
27006W        W42475   2.551   0.100  14.331 -0.1889 -0.1007  0.0801
27007W        W42476   7.474  11.376  11.388  0.1452 -0.0203 -0.1660
27008W        W42477  15.814  10.282  12.491  0.2087  0.0368  0.0795
27009W        W42478   7.928   1.115  10.837  0.0615 -0.0679 -0.2716
27010W        W42479   5.827   4.400   3.313  0.1379  0.1123  0.0817
27011W        W42480   9.604  13.449   0.318 -0.3132  0.0668  0.0039
27012W        W42481   8.353   9.040  15.325 -0.4258  0.0927 -0.3611
27013W        W42482  18.182   8.482   4.179 -0.0375 -0.0711  0.0522
27014W        W42483  11.726   0.575  13.689 -0.0663 -0.3000 -0.0275
27015W        W42484   4.829   3.777  11.810 -0.2074  0.3750 -0.3534
27016W        W42485  11.493  16.281   4.812 -0.2671  0.3276 -0.0071
27017W        W42486   3.051  13.728   2.921 -0.5044 -0.1394 -0.2110
27018W        W42487   7.187  13.573   1.279  0.1565  0.1432  0.1216
27019W        W42488  16.428  13.820   5.145  0.0487  0.1850 -0.4756
27020W        W42489  10.845   5.427  12.112  0.1529 -0.0027 -0.1239
27021W        W42490   9.693   4.868  12.739 -0.1353  0.2114  0.0544
27022W        W42491  16.645  10.632   5.743  0.0389 -0.1621 -0.0979
27023W        W42492   6.785   1.814  13.229 -0.3367  0.1068 -0.1265
27024W        W42493  16.043  10.563   1.122 -0.1101  0.0028 -0.2335
27025W        W42494  12.049   3.279   1.363  0.1717 -0.1448  0.0147
27026W        W42495  11.666   8.798  13.578 -0.1573 -0.1046  0.1674
27027W        W42496  13.245   8.024   2.306 -0.1685  0.1983  0.2114
27028W        W42497  13.187   2.527  14.994  0.2452  0.2555  0.0255
27029W        W42498   3.116  17.665  11.714 -0.1130  0.2196  0.0936
27030W        W42499  17.250   7.687   0.865 -0.2272 -0.0161  0.2733
27031W        W42500  16.742  16.206  13.468 -0.2485  0.0016 -0.0935
27032W        W42501   5.075  14.370   3.993 -0.1815 -0.2964  0.0284
27033W        W42502   5.865  11.493   3.376  0.3677 -0.2994  0.2987
27034W        W42503  14.425   1.553   3.591 -0.2864  0.2300 -0.0025
27035W        W42504   1.395   5.093  14.257 -0.0380  0.2000 -0.1879
27036W        W42505   6.122  13.666  11.455 -0.2647 -0.0986  0.1585
27037W        W42506  15.196  10.379  11.579  0.0032  0.1353  0.0662
27038W        W42507  12.434   4.636   3.562  0.0042 -0.2185  0.0077
27039W        W42508  10.548   3.841  11.424 -0.1944 -0.0543 -0.2317
27040W        W42509   6.541   7.726   5.461 -0.1394  0.0076  0.2227
27041W        W42510  13.253   8.950   1.650  0.0452 -0.0464 -0.0389
27042W        W42511   3.050  17.104  11.125  0.1796 -0.1820 -0.0260
27043W        W42512  13.379  17.833  11.534 -0.0872  0.1524 -0.0792
27044W        W42513   2.319   2.470   2.124 -0.3039 -0.0265  0.0292
27045W        W42514   1.061   8.451  13.996  0.0787  0.1099  0.0753
27046W        W42515  10.272   3.098  14.468  0.0786  0.1065 -0.2652
27047W        W42516  12.604   2.335   1.457 -0.1161 -0.1247 -0.1630
27048W        W42517  10.481   2.862   4.971  0.1242  0.0369 -0.0454
27049W        W42518   0.868   1.679   1.020 -0.0838 -0.0290 -0.3676
27050W        W42519   2.154   6.217   4.352  0.1076 -0.1320 -0.0655
27051W        W42520   9.763   4.742   0.333 -0.0575 -0.0475  0.0829
27052W        W42521  14.697  10.014   0.134  0.1290  0.1689 -0.0250
27053W        W42522  13.474   4.451  14.672 -0.3081  0.0109 -0.3149
27054W        W42523   6.750  11.241   1.744  0.1543  0.0216  0.0892
27055W        W42524   8.608   4.925  11.930 -0.1568  0.1529  0.1896
27056W        W42525   7.413   1.195  16.128 -0.0941  0.3636  0.0241
27057W        W42526  16.550   3.259  14.388 -0.1553  0.1651  0.2276
27058W        W42527   5.708  14.725  15.031  0.1936 -0.1702  0.0690
27059W        W42528  11.448  18.207  15.513 -0.3043 -0.0250  0.3543
27060W        W42529  11.989  13.849   0.259  0.0791 -0.2172 -0.2062
27061W        W42530   8.458  11.008   3.057  0.1587  0.1478 -0.2850
27062W        W42531   1.136  13.757   3.483  0.1588 -0.0199  0.1136
27063W        W42532  12.694   9.200  10.370 -0.1852 -0.0960 -0.1832
27064W        W42533  12.807  17.916  13.659  0.2821  0.0902 -0.3109
27065W        W42534  13.722   8.194   2.575  0.1046  0.0188  0.0420
27066W        W42535   9.518   7.239  11.428 -0.1429 -0.1335  0.2670
27067W        W42536   3.877   8.413   2.062 -0.2602 -0.3422  0.2594
27068W        W42537  15.478   3.328   3.504 -0.2100 -0.2365 -0.0523
27069W        W42538   0.024   3.766   5.486  0.3131  0.2876  0.1854
27070W        W42539  12.604   5.627  14.777 -0.1312 -0.2818 -0.1029
27071W        W42540   1.263   8.438  15.699  0.0440  0.0601  0.1554
27072W        W42541   3.254   3.839  10.348 -0.0805 -0.2617 -0.0058
27073W        W42542   0.221   0.240  13.192 -0.1748 -0.0672  0.1483
27074W        W42543  11.197  13.001  12.680  0.1323  0.1014  0.1718
27075W        W42544   0.683   1.093  14.091 -0.0077  0.1791 -0.0731
27076W        W42545   6.003  14.015  10.875  0.2494  0.1155 -0.0188
27077W        W42546   6.399  16.104  13.258  0.1391 -0.1923 -0.4975
27078W        W42547  18.008   9.939   0.668  0.2036  0.0871 -0.1290
27079W        W42548   5.007  10.053   4.319 -0.4229 -0.0650  0.1270
27080W        W42549   8.772   9.690  15.747 -0.1889 -0.2097  0.3857
27081W        W42550  16.920   0.972   1.168 -0.2135 -0.0132 -0.0366
27082W        W42551  14.936  16.507  11.783 -0.0738 -0.2123  0.1218
27083W        W42552   4.376   7.851  15.808  0.2777  0.0072  0.2642
27084W        W42553   2.396  10.355  13.289  0.3876 -0.0328  0.3011
27085W        W42554   8.485  12.833  14.720 -0.1151  0.2962  0.3710
27086W        W42555  13.538   7.176  10.785 -0.1769 -0.0186  0.2686
27087W        W42556   5.487   7.186   0.508 -0.1835 -0.5375 -0.0765
27088W        W42557  17.759   0.188   2.631  0.2155 -0.0891  0.1574
27089W        W42558   7.077   5.592  14.010  0.0546 -0.0536 -0.1900
27090W        W42559  10.645   5.071   2.861 -0.3175  0.0527 -0.0864
27091W        W42560   0.171  17.801   5.245 -0.0499 -0.2995  0.0287
27092W        W42561  15.184   4.441   3.421 -0.2157  0.0257 -0.2476
27093W        W42562   2.949  12.990   5.151 -0.0425  0.0231 -0.1237
27094W        W42563  12.438   2.081   4.161 -0.2652 -0.0646  0.0992
27095W        W42564  14.877   5.980  12.421 -0.2400  0.0545 -0.1585
27096W        W42565   9.831  14.679   4.823 -0.2635  0.3055  0.0420
27097W        W42566   8.024   1.257   3.138 -0.0197  0.1896 -0.0646
27098W        W42567   1.027   5.661  11.422  0.1718  0.0423  0.1254
27099W        W42568  10.102  15.495   0.234 -0.0628  0.0841 -0.2572
27100W        W42569   9.082   8.281  13.974 -0.3317  0.4881 -0.1517
27101W        W42570   4.896  11.208  11.401  0.1761 -0.0992  0.0402
27102W        W42571   5.639  11.341   3.814 -0.0989 -0.0111 -0.2261
27103W        W42572  16.290   8.521   3.673  0.0464 -0.0671 -0.1485
27104W        W42573  14.355  13.345   0.875  0.2590  0.0107  0.1637
27105W        W42574  17.224  17.804   5.136 -0.0147 -0.2852  0.3753
27106W        W42575   6.561  15.868   4.268 -0.1270 -0.0434  0.1631
27107W        W42576   8.581  10.638   0.625 -0.2448  0.2560  0.3391
27108W        W42577  12.615  14.012  14.904  0.3377  0.1555  0.3288
27109W        W42578   3.813  12.835   5.625 -0.0467 -0.0027  0.3221
27110W        W42579  11.480  14.769  16.166  0.3248  0.1252 -0.0894
27111W        W42580  11.535  13.488   4.232 -0.2150 -0.1359 -0.2287
27112W        W42581  16.534   7.684  15.240  0.0334  0.3342 -0.0591
27113W        W42582   7.056  14.493  15.325  0.1621 -0.3755 -0.1692
27114W        W42583   5.173  13.727   0.836  0.0691  0.3131 -0.3666
27115W        W42584   5.140  16.843  15.813 -0.0968 -0.0929 -0.2726
27116W        W42585   7.200   3.877  13.626  0.1506  0.0971 -0.1221
27117W        W42586  12.230   1.177  12.468  0.0022 -0.2202 -0.1839
27118W        W42587   5.587  15.325   1.328  0.1793 -0.1771  0.0577
27119W        W42588  12.731   4.539   4.981  0.2270 -0.2169 -0.1288
27120W        W42589   4.536   8.033   4.880  0.3097 -0.0332  0.2408
27121W        W42590   3.991   6.506   1.221  0.3390  0.0740 -0.2889
27122W        W42591  15.897   4.175   5.069 -0.0569 -0.1188 -0.0920
27123W        W42592  14.197   9.231   2.348 -0.1492 -0.0311  0.0095
27124W        W42593   3.006   4.376  13.216 -0.1264  0.0234 -0.0029
27125W        W42594   6.785  17.116   2.952  0.1061  0.1113  0.2308
27126W        W42595  16.036   7.284  12.165 -0.0642  0.1685  0.1873
27127W        W42596  12.660  12.286   0.429  0.2131 -0.1954 -0.0111
27128W        W42597  16.566   4.629   0.386 -0.3639 -0.0834  0.1125
27129W        W42598  17.268   1.254   3.192  0.0806  0.3738  0.1451
27130W        W42599   0.395  12.178   0.504  0.2731  0.0265 -0.1135
27131W        W42600   1.448   2.325  14.587  0.0255  0.0036  0.1476
27132W        W42601  14.641   8.349   3.376  0.2000  0.0588 -0.1496
27133W        W42602  17.438  14.903   0.800 -0.1963 -0.1776  0.2023
27134W        W42603   6.266   5.541   3.742  0.2797 -0.1108 -0.1113
27135W        W42604  11.658   7.258   4.665  0.0495 -0.0658  0.1844
27136W        W42605  12.313   4.402   0.814 -0.2692 -0.0605  0.1061
27137W        W42606  16.166   5.914   2.117 -0.0423  0.0220 -0.1619
27138W        W42607   1.648   5.192   3.087 -0.0420  0.3479  0.4757
27139W        W42608  17.831   1.645  15.747 -0.2253 -0.2478 -0.2756
27140W        W42609   6.285   0.369  11.970 -0.1138  0.0150  0.0827
27141W        W42610   6.645   0.789  14.172  0.0820 -0.1503  0.0397
27142W        W42611   0.678   8.362   6.022 -0.1037  0.2050  0.3247
27143W        W42612   0.380   5.939   2.597 -0.3361  0.3252  0.1596
27144W        W42613  13.703  15.865   3.552  0.0946  0.3903 -0.0122
27145W        W42614  11.683   1.360  13.429  0.0058  0.1384  0.2250
27146W        W42615   3.179   2.182  14.813  0.1106  0.1410 -0.0080
27147W        W42616  17.119  10.668  11.648  0.0667  0.0273 -0.4076
27148W        W42617  17.268   5.143  16.021  0.2636 -0.1018 -0.0490
27149W        W42618   3.691   0.071  13.257  0.0557  0.0432 -0.0340
27150W        W42619   6.018  12.659  14.248  0.0664  0.0778  0.0727
27151W        W42620   3.399   9.272   2.021 -0.1243 -0.1786  0.1968
27152W        W42621  11.326   8.577  15.491  0.0822 -0.2076  0.1087
27153W        W42622   8.225   4.469   1.896  0.0161  0.0716 -0.1296
27154W        W42623  13.551   2.554   5.154 -0.1105 -0.1841 -0.0783
27155W        W42624   5.332  10.931  13.407  0.0856  0.3864  0.0259
27156W        W42625  11.831  12.658   3.796  0.1044  0.0222  0.2238
27157W        W42626   5.145  12.376   1.729 -0.0676  0.1079 -0.0315
27158W        W42627  18.140  15.682   3.535  0.2091 -0.0317 -0.2126
27159W        W42628   2.584   1.004   4.522  0.1045  0.0110 -0.1469
27160W        W42629   8.190   2.238  13.446  0.0259  0.1001  0.0682
27161W        W42630  16.906   8.252   4.896  0.1265  0.0096 -0.1477
27162W        W42631  11.673   7.491   0.790  0.2257 -0.2762  0.2114
27163W        W42632   1.865  11.372   0.994  0.2964  0.0012  0.1184
27164W        W42633  11.171  13.801   2.355  0.3208  0.2732 -0.2595
27165W        W42634  13.324   6.517  13.249 -0.1549 -0.1804 -0.2213
27166W        W42635   8.111   4.811   0.206  0.1238 -0.1974 -0.2396
27167W        W42636  14.358   2.385  12.888  0.0731 -0.0312  0.0498
27168W        W42637   4.364   8.716  14.417 -0.2861  0.1260 -0.0217
27169W        W42638  10.382   6.810   0.718 -0.0064 -0.1143  0.1848
27170W        W42639  13.411  13.967  15.180  0.0830 -0.1132 -0.0826
27171W        W42640  12.777  14.003  15.802 -0.1897 -0.0674  0.2356
27172W        W42641   2.660  14.055   1.623  0.0524 -0.0689 -0.2310
27173W        W42642   4.289  17.406   1.452 -0.0085 -0.1359 -0.0034
27174W        W42643  13.330  15.893   2.403  0.5014 -0.1898  0.2450
27175W        W42644  18.272  12.272   0.819  0.0580 -0.0182  0.1823
27176W        W42645  15.170   9.964  11.816 -0.0568  0.1701 -0.1212
27177W        W42646  16.507  14.063  15.873 -0.0972 -0.1854  0.1648
27178W        W42647  15.951   9.482  15.230  0.0763 -0.0405 -0.3389
27179W        W42648   0.880   4.544   1.397 -0.1916  0.0646  0.0884
27180W        W42649   4.365   7.013   2.496  0.1035 -0.1797  0.1590
27181W        W42650  14.487  18.200  11.162  0.0067 -0.0438 -0.0158
27182W        W42651  15.694  16.007   4.471 -0.0106  0.0922 -0.2987
27183W        W42652   2.972  16.774  15.764  0.1158  0.0627 -0.0213
27184W        W42653  15.956   0.238  12.783 -0.1309 -0.1523 -0.2244
27185W        W42654   3.542   5.263  14.800  0.3754 -0.0052  0.1784
27186W        W42655  17.315  14.311   5.048 -0.2142  0.0043  0.3783
27187W        W42656   7.099   0.899   2.015 -0.0900 -0.1464 -0.1685
27188W        W42657   5.592  11.503   4.270  0.0707  0.0726 -0.3272
27189W        W42658   7.265   9.679   3.307 -0.1569  0.1857 -0.0186
27190W        W42659   4.629  12.875   4.449 -0.1134 -0.0016 -0.0912
27191W        W42660   4.429   9.066   1.379  0.4660  0.1549 -0.3791
27192W        W42661   2.239  13.833  14.038  0.4998  0.0514  0.0380
27193W        W42662   4.283   6.583  13.507 -0.2912  0.0370 -0.2996
27194W        W42663   5.270  13.825  11.328  0.0209 -0.1332  0.0246
27195W        W42664  14.403  11.751   1.448 -0.2245  0.0089 -0.2229
27196W        W42665   3.083   6.799  13.158 -0.1858 -0.1293  0.1556
27197W        W42666  11.577   5.207   2.360 -0.3778  0.0307  0.3386
27198W        W42667   3.500  11.021  11.079  0.0513 -0.2343 -0.2195
27199W        W42668  16.668   1.434   1.004 -0.1300  0.0621  0.2585
27200W        W42669  18.167   9.972  12.281 -0.3464  0.1108  0.0245
27201W        W42670  14.282  15.047   0.065 -0.2451 -0.1045 -0.3961
27202W        W42671  12.763  10.838   4.594 -0.0731  0.2183  0.5151
27203W        W42672  18.168   5.610  14.125  0.1403 -0.1400 -0.1712
27204W        W42673  15.563   5.770  13.413 -0.2594 -0.0445  0.0470
27205W        W42674   1.763   4.258   4.545 -0.1287 -0.0358  0.0803
27206W        W42675  11.519   3.828   2.607 -0.0406 -0.0781  0.2138
27207W        W42676  12.799  14.128  13.165  0.3228  0.2492  0.2724
27208W        W42677  12.057   0.794  12.889 -0.1011  0.0349  0.1055
27209W        W42678  15.322   4.925   0.290  0.0582  0.1444 -0.0766
27210W        W42679   0.378   0.194   2.570  0.0185 -0.0681 -0.1739
27211W        W42680  13.749   3.783   2.121  0.2992 -0.2620  0.0447
27212W        W42681   9.678   0.799   4.299  0.1034 -0.1705  0.0890
27213W        W42682  11.880   0.031  12.982  0.0680 -0.1092  0.0053
27214W        W42683  11.447   6.999   0.513 -0.2260  0.0282  0.2071
27215W        W42684   8.600   9.587   3.735 -0.3162  0.1541  0.3196
27216W        W42685   9.914   0.080  11.710 -0.0671  0.1127  0.2634
27217W        W42686  10.830   9.847   5.203  0.0078 -0.4724 -0.3361
27218W        W42687   1.870   7.857  12.971  0.1287  0.2315  0.1158
27219W        W42688   3.994   3.265  11.869 -0.0485 -0.0024  0.2430
27220W        W42689  11.257   3.006  15.877 -0.0979 -0.0165 -0.0411
27221W        W42690   8.345   7.430   4.506 -0.1444 -0.3562 -0.0211
27222W        W42691  17.550   1.181   4.417 -0.1452 -0.5424 -0.2727
27223W        W42692  16.029  17.382   3.783 -0.4035  0.2930  0.2454
27224W        W42693   5.290   5.895   2.298  0.0295  0.0001 -0.3368
27225W        W42694   3.169   2.083  14.343 -0.0390  0.1690 -0.3811
27226W        W42695  11.461   2.869  13.755  0.0787  0.1388 -0.1693
27227W        W42696  10.054  13.252   3.428 -0.1408 -0.1387 -0.0034
27228W        W42697   5.116   1.374   2.077 -0.4503 -0.0807 -0.0028
27229W        W42698   1.611  16.275  10.955  0.1469  0.0835 -0.1086
27230W        W42699   7.858   7.974   6.137  0.0678  0.2262 -0.0958
27231W        W42700  16.930   9.284  15.221  0.1702  0.4826 -0.1425
27232W        W42701   9.599  15.041  10.780 -0.1336 -0.1403  0.0335
27233W        W42702  14.283  16.064   1.459  0.0453 -0.0081 -0.3394
27234W        W42703   4.598  17.417  13.066  0.0592  0.1183  0.0532
27235W        W42704   3.417   3.770  15.721 -0.0697  0.2921 -0.2014
27236W        W42705   3.197  15.417   4.091  0.0307 -0.2133 -0.0953
27237W        W42706   6.475   6.202   1.816  0.0173 -0.2228 -0.1052
27238W        W42707  10.973   7.535  10.120  0.1112  0.0116  0.0309
27239W        W42708   5.118   4.107   4.300  0.0596 -0.1766 -0.0269
27240W        W42709   3.006  13.566  15.395 -0.1974  0.1803 -0.0806
27241W        W42710   0.574  15.368  12.406  0.1027  0.2746 -0.0911
27242W        W42711   1.557  13.129   2.192  0.1510  0.1467  0.2717
27243W        W42712   7.886  11.089   1.995  0.0967  0.2215  0.4465
27244W        W42713   7.940   4.231   4.743  0.3885  0.1892  0.0578
27245W        W42714   5.464  15.579   2.956  0.0871 -0.0196  0.2400
27246W        W42715  15.766   3.857  14.439  0.0226  0.0744 -0.0005
27247W        W42716   9.325   9.317   3.556 -0.3558  0.0846 -0.2565
27248W        W42717  15.142   9.470  12.205 -0.1173 -0.1154  0.1166
27249W        W42718  16.031  16.745   0.571  0.1249  0.1514 -0.2748
27250W        W42719  11.588   8.574   3.211  0.0251 -0.0092  0.2142
27251W        W42720  11.741   6.830  14.863  0.0064 -0.1834 -0.0298
27252W        W42721   6.287   8.226  14.222 -0.0010  0.2633 -0.2387
27253W        W42722   4.359  12.865  15.434 -0.0070  0.0481  0.1567
27254W        W42723  14.193  18.167  15.782  0.2055 -0.0448  0.1475
27255W        W42724   7.988   3.855   2.702 -0.2383 -0.3345  0.0688
27256W        W42725  13.656  15.963   1.389  0.0897  0.0125 -0.3838
27257W        W42726  10.226   6.184   1.417 -0.1324  0.0282 -0.3307
27258W        W42727   8.483   3.368  10.204 -0.4490 -0.4671  0.1304
27259W        W42728   5.199  13.525   3.598 -0.1972  0.0830  0.1556
27260W        W42729   1.227   2.853  11.542  0.2462  0.0865  0.2152
27261W        W42730   7.446   4.209   4.866  0.2419 -0.1487  0.1269
27262W        W42731  17.212   8.186   2.084  0.0669  0.1568  0.0988
27263W        W42732   4.496   7.061  16.160 -0.0416 -0.1206  0.0687
27264W        W42733   9.893   4.396   5.030 -0.1206  0.1054 -0.0591
27265W        W42734   0.195  15.662   0.045  0.1357 -0.0506 -0.0028
27266W        W42735   0.816  12.234   3.473  0.0918 -0.4362  0.1092
27267W        W42736   4.218  17.438  15.814  0.2171 -0.2405 -0.1930
27268W        W42737   1.876  12.216   5.333 -0.1302  0.4238 -0.1333
27269W        W42738  12.035  13.833  15.393 -0.0552  0.1328 -0.1001
27270W        W42739  17.617   5.221  12.004  0.1567  0.0161  0.2189
27271W        W42740  13.398   2.915  11.241  0.0868  0.0840 -0.0296
27272W        W42741  13.328   5.992  14.675 -0.1958 -0.0694 -0.0122
27273W        W42742   1.252  11.521  14.765 -0.2026 -0.1859  0.1243
27274W        W42743   5.686   0.918  12.203 -0.3126  0.1918 -0.1452
27275W        W42744   7.795  18.235   4.325 -0.0702 -0.1079  0.0454
27276W        W42745   7.837  14.514   0.970 -0.0976 -0.2613  0.1429
27277W        W42746   8.024   0.268  11.445  0.1771 -0.2671  0.3618
27278W        W42747  14.865   8.149  15.023  0.4923 -0.2182  0.0373
27279W        W42748  16.159  10.632   3.977 -0.1746 -0.1114 -0.4827
27280W        W42749  16.370  16.461   4.970 -0.2253 -0.1076  0.0155
27281W        W42750  11.319   8.231  13.890  0.1420  0.2793 -0.0512
27282W        W42751  11.485   1.782   1.981  0.0338  0.0661 -0.1640
27283W        W42752   3.569   8.567   3.165  0.0369 -0.0462  0.2222
27284W        W42753  15.830   6.173  15.168 -0.0423  0.3903 -0.0592
27285W        W42754  12.945   5.740  12.111  0.0269 -0.1417 -0.0827
27286W        W42755   8.145  12.189  12.287 -0.0586  0.0548 -0.3436
27287W        W42756   7.408   5.419  13.682  0.2252 -0.0728 -0.2536
27288W        W42757   5.746   3.341   3.139  0.3015  0.0770  0.1159
27289W        W42758   7.526   9.045   3.838 -0.0023  0.2657 -0.2594
27290W        W42759  16.717   9.941  12.784 -0.2504  0.1927 -0.1106
27291W        W42760  12.439   9.796   0.578  0.0692 -0.0192 -0.1883
27292W        W42761   4.220  15.260  14.916 -0.1548 -0.3387 -0.1123
27293W        W42762  15.140   5.703   5.468 -0.0631 -0.0012 -0.4648
27294W        W42763   3.902  17.464  14.107 -0.2577 -0.2148  0.1163
27295W        W42764   5.788   1.553   4.879 -0.0032 -0.0889  0.5239
27296W        W42765  10.802  12.491   2.789  0.1715 -0.0906  0.0342
27297W        W42766   3.836  12.169  14.806  0.3211  0.2336  0.1642
27298W        W42767   6.162   1.690  11.985  0.1415  0.1861 -0.2210
27299W        W42768   2.507   3.584  13.635 -0.3547  0.1689 -0.1652
27300W        W42769   3.960   0.758   2.009 -0.1232  0.1285  0.3693
27301W        W42770  16.239   6.781   3.847  0.1218  0.2116 -0.0277
27302W        W42771   7.866  14.508  12.180 -0.2385  0.0648  0.0791
27303W        W42772  15.744   6.247   2.323  0.0066 -0.1188  0.0867
27304W        W42773  15.213  13.396   0.045 -0.0068  0.0041 -0.0213
27305W        W42774   0.761  11.830   0.859 -0.3123  0.0739 -0.0261
27306W        W42775   8.745  18.235  14.119  0.2760 -0.1319 -0.1050
27307W        W42776   8.384   0.111  13.779 -0.3476  0.0029  0.1859
27308W        W42777  12.976   4.220  13.652 -0.0217 -0.0306 -0.1628
27309W        W42778   2.540   0.535   6.033 -0.2200 -0.1037 -0.0736
27310W        W42779   4.285   0.057  13.697 -0.1551  0.1134  0.2879
27311W        W42780   2.359  11.834   2.968 -0.0418 -0.0304  0.1488
27312W        W42781  11.381   5.398  14.069  0.0608  0.1090  0.0882
27313W        W42782   6.580   1.641   4.977 -0.2860 -0.0435 -0.0416
27314W        W42783   0.331  15.103   1.676  0.0339 -0.0452 -0.0994
27315W        W42784  13.259   4.433   0.695 -0.1650  0.0025 -0.2026
27316W        W42785   8.725   2.262   3.555 -0.1796  0.2096 -0.2246
27317W        W42786   4.506  18.005  15.864 -0.3132  0.1285 -0.0999
27318W        W42787   8.413  14.497  12.318 -0.2842  0.3527 -0.2158
27319W        W42788   6.828  12.157   2.067  0.0682 -0.0590 -0.0051
27320W        W42789   0.212   0.242   0.121  0.2440  0.4591  0.0390
27321W        W42790   6.282   6.604  10.568 -0.0043 -0.0313  0.0618
27322W        W42791  14.415  10.495  15.731  0.0491 -0.0474 -0.1303
27323W        W42792  17.545  15.934   0.360  0.0536  0.0645 -0.1418
27324W        W42793  11.943   1.096  11.522  0.1668 -0.1471  0.2422
27325W        W42794   3.318   0.347   0.539  0.0588 -0.0851 -0.1129
27326W        W42795   6.715   9.627  11.174  0.0663  0.0212  0.0771
27327W        W42796   9.992   4.534  11.589  0.3155  0.1206 -0.0111
27328W        W42797   8.819  10.777   1.519 -0.1396  0.0519  0.1035
27329W        W42798  15.415  16.873   0.388  0.1261  0.4657  0.2078
27330W        W42799   5.082   4.892  13.793  0.0163 -0.2267 -0.2706
27331W        W42800   4.795  11.300  10.812  0.0349 -0.1887 -0.1999
27332W        W42801  14.004  11.545  11.360 -0.0070 -0.1924  0.0111
27333W        W42802   1.761  13.472   0.870  0.3840  0.0031  0.3544
27334W        W42803   3.226   7.892  10.719 -0.1249 -0.1301 -0.1348
27335W        W42804  15.173   3.176   1.579 -0.3235 -0.1237 -0.0675
27336W        W42805  12.042  15.257  14.189  0.0790 -0.2690 -0.0585
27337W        W42806   6.631  17.357   2.163  0.1707 -0.3362  0.0353
27338W        W42807   4.333  11.756  12.295  0.1886  0.2518 -0.0967
27339W        W42808  13.093  16.298  15.371  0.1774 -0.0888 -0.0927
27340W        W42809  10.469  16.341  11.642 -0.2188 -0.1819  0.1439
27341W        W42810  16.302   7.487   2.702  0.0697  0.2493 -0.3337
27342W        W42811  13.396   9.854   1.942 -0.0886  0.2319  0.2298
27343W        W42812   2.031   6.334  15.956  0.3707  0.2701  0.1957
27344W        W42813   0.142   1.296   5.645 -0.2970  0.1641 -0.2758
27345W        W42814   4.587  16.989  13.902  0.0525 -0.5972 -0.1628
27346W        W42815   5.028  11.183  12.486  0.0140 -0.0424  0.1778
27347W        W42816  13.909  13.150  12.426  0.0885 -0.1658 -0.2626
27348W        W42817   6.071   7.288  11.955 -0.0416  0.0949 -0.1631
27349W        W42818   6.651  11.203  11.724 -0.1109 -0.0385  0.3083
27350W        W42819   8.194   0.123  15.211  0.1672  0.3210  0.1071
27351W        W42820   3.518   7.024  11.986 -0.0798 -0.0707  0.0247
27352W        W42821   3.366  12.104   0.063 -0.1148 -0.2050  0.0408
27353W        W42822   9.656  13.246   3.718 -0.0357  0.0222  0.0597
27354W        W42823   0.662  13.583   0.894 -0.0477 -0.0579  0.0024
27355W        W42824  17.064   8.883   3.313 -0.3291 -0.1000 -0.0015
27356W        W42825   9.317  10.199   1.857  0.3295  0.0099  0.0363
27357W        W42826  10.092   9.270   5.434  0.1216  0.3434  0.0741
27358W        W42827   0.064  10.256  13.000 -0.2374 -0.0241  0.2890
27359W        W42828   6.054  15.588   5.639  0.3481 -0.1718  0.1465
27360W        W42829   5.542  17.439  11.759 -0.1614  0.2874  0.1109
27361W        W42830  11.046  13.738  11.864  0.0906 -0.0416  0.0880
27362W        W42831   7.548  12.600   4.132 -0.3074  0.1187 -0.2322
27363W        W42832   0.559   5.115   1.511  0.0697  0.0815 -0.3157
27364W        W42833   6.149   6.047  11.398  0.1789  0.2142  0.0229
27365W        W42834   3.265   7.800   5.467 -0.5286 -0.2319  0.1791
27366W        W42835   1.850   3.037  11.398 -0.1485 -0.2307 -0.3839
27367W        W42836   1.580   8.879   3.908  0.0079 -0.0271 -0.1558
27368W        W42837   2.978   7.154  15.965  0.1750 -0.0080 -0.2882
27369W        W42838   8.651   7.601  13.087  0.0912  0.1144  0.0692
27370W        W42839  13.099  11.866   5.716 -0.2097 -0.1323 -0.2063
27371W        W42840  11.438   7.333   5.478 -0.1067 -0.2309  0.1895
27372W        W42841   5.124   1.012   3.777  0.0135  0.1015  0.0275
27373W        W42842   5.089  14.666  14.383  0.2888  0.2254 -0.1147
27374W        W42843  14.983  14.038   0.730  0.1638 -0.1474 -0.3142
27375W        W42844  18.038  10.550  10.285 -0.0253  0.0833 -0.5535
27376W        W42845  16.583   1.246  12.291 -0.2721 -0.2393 -0.0327
27377W        W42846   8.880  15.922  14.352  0.0347  0.0115  0.1588
27378W        W42847  10.536   3.370   0.859 -0.3955  0.4017 -0.1791
27379W        W42848   7.579   0.959   0.937  0.2816  0.0023 -0.0392
27380W        W42849   6.092   2.667   0.287 -0.0382  0.0669  0.0866
27381W        W42850  17.549   1.616   3.082  0.1716  0.0749  0.0531
27382W        W42851  18.270  11.297  11.643  0.0781 -0.0391 -0.3325
27383W        W42852   6.144   9.118   1.229 -0.1133 -0.0255 -0.0881
27384W        W42853   1.183   4.862  11.643 -0.1113  0.0119 -0.3933
27385W        W42854  14.127  10.868   3.361  0.1352  0.1603 -0.1162
27386W        W42855   1.433  13.729  14.410  0.2833 -0.0690  0.0885
27387W        W42856  13.493   3.264   2.272 -0.0521 -0.0852 -0.1724
27388W        W42857   7.267  16.695  14.189 -0.0035  0.4822  0.3536
27389W        W42858   1.335  15.887   4.445 -0.1092  0.0314 -0.2158
27390W        W42859  11.539  10.212   0.292 -0.2018 -0.2408  0.1655
27391W        W42860  12.504  14.684   1.702  0.3027 -0.0106 -0.0912
27392W        W42861   6.945   4.237  10.806  0.3143 -0.0956  0.0022
27393W        W42862  13.369   4.569   3.301 -0.3117  0.1774  0.0147
27394W        W42863   7.866  17.941  15.113 -0.3763  0.1389  0.1564
27395W        W42864   4.836   7.935   5.931  0.1198  0.2239 -0.1519
27396W        W42865  14.774  15.393   0.773 -0.1633  0.0262  0.1539
27397W        W42866  12.302  15.320   1.965  0.1083 -0.2845 -0.2026
27398W        W42867  14.507  12.244   3.800 -0.1776  0.0749 -0.1299
27399W        W42868   9.931  15.413  11.710  0.1503  0.0631 -0.3941
27400W        W42869   8.741   9.051   4.280 -0.0724 -0.1279 -0.1327
27401W        W42870   8.370  13.463   0.019  0.1094 -0.0083  0.0641
27402W        W42871  13.177   4.004   2.083  0.0585 -0.0278 -0.0035
27403W        W42872  11.855  10.106  12.870 -0.2058 -0.3105 -0.0673
27404W        W42873   2.130   3.737  15.197  0.1658 -0.1542 -0.1763
27405W        W42874  18.281   0.467  14.532  0.1813 -0.0764  0.1705
27406W        W42875  13.905   1.969   5.853 -0.1884  0.2588  0.0744
27407W        W42876   0.502  14.612   4.594  0.3985  0.1877  0.1189
27408W        W42877   2.365   3.484  14.779  0.1894 -0.4909 -0.1491
27409W        W42878  15.666   9.983  11.640 -0.0597  0.4726  0.0750
27410W        W42879   2.126   6.159   3.388  0.0526  0.1489  0.0653
27411W        W42880   7.117   3.310  12.967 -0.1704 -0.2060  0.2831
27412W        W42881  14.278   6.850   2.715  0.2793 -0.4948  0.1793
27413W        W42882  18.298   2.188   0.292  0.1303  0.0302 -0.1372
27414W        W42883   3.934  14.054  13.853  0.1575 -0.0964  0.0928
27415W        W42884   6.617  13.962   1.183 -0.0731 -0.0030 -0.2570
27416W        W42885   9.765  14.185  15.229  0.1263 -0.1318 -0.0629
27417W        W42886   2.980   4.136   6.083  0.0966 -0.0319  0.2384
27418W        W42887   2.385  16.804   1.366 -0.0408  0.2229 -0.1870
27419W        W42888  15.893  16.999   2.974  0.4800  0.0861 -0.1660
27420W        W42889   8.608  11.700   4.143  0.1250 -0.1047  0.0583
27421W        W42890  11.761  10.387   3.766 -0.2208 -0.0527  0.0423
27422W        W42891  16.921  15.459   1.789  0.3919  0.1702  0.4367
27423W        W42892   1.265   0.991   0.598  0.4228 -0.2520 -0.1357
27424W        W42893   2.437  14.247  12.993  0.0528 -0.0530 -0.0708
27425W        W42894  16.056   2.249   2.521  0.1112 -0.1219 -0.1168
27426W        W42895   3.770   3.877  16.082 -0.1876 -0.0169  0.3610
27427W        W42896   6.270  13.686   5.114  0.2965 -0.1183 -0.1879
27428W        W42897   1.698   3.700   1.726 -0.1395 -0.0810 -0.0432
27429W        W42898   5.693   5.373  14.153 -0.1155 -0.3577 -0.2756
27430W        W42899   5.046   1.359   2.614 -0.1745  0.1503 -0.1268
27431W        W42900  11.293   2.164   3.781 -0.2320  0.1299 -0.1106
27432W        W42901  17.504   3.222  12.497  0.1152  0.4494 -0.2769
27433W        W42902  10.515   2.533   1.319 -0.1011  0.0662 -0.3148
27434W        W42903   6.946  15.436  16.035  0.2873 -0.0909  0.2542
27435W        W42904  17.786   8.850  14.311 -0.1131  0.3748  0.3583
27436W        W42905   5.383  13.749   1.408 -0.2340 -0.2660 -0.3232
27437W        W42906  10.041  14.870  14.551 -0.2759 -0.1358  0.3262
27438W        W42907  11.422   7.318   4.203 -0.3665 -0.1977 -0.1136
27439W        W42908  14.003  12.641  12.349  0.2065 -0.0224  0.0339
27440W        W42909  15.201   2.961   2.018  0.1439 -0.2283 -0.1028
27441W        W42910  12.951  11.080   1.975 -0.1370  0.1767 -0.1215
27442W        W42911  10.603   6.341  14.943  0.0371  0.0744  0.2237
27443W        W42912   0.123  14.011  11.595  0.0636 -0.1766  0.2134
27444W        W42913   8.033  10.286   4.146  0.0857  0.2189  0.4608
27445W        W42914   3.591   1.005  14.395  0.2240 -0.0247  0.1078
27446W        W42915   3.396  15.808   2.268  0.0108  0.4022 -0.1060
27447W        W42916   8.673  11.463   3.185  0.1815 -0.0062 -0.1359
27448W        W42917   1.335   5.442  14.791 -0.0903 -0.0211 -0.2566
27449W        W42918   8.118   2.282  12.144  0.0660 -0.2266  0.1292
27450W        W42919   1.886  13.680   1.367  0.2379  0.4538 -0.1740
27451W        W42920   8.194  16.854  13.286  0.0372  0.0032  0.3340
27452W        W42921  11.835  10.200  15.618  0.4088  0.0266  0.2130
27453W        W42922   4.403   2.465  11.822 -0.2218  0.0766  0.1534
27454W        W42923  14.423   9.621   5.867 -0.0201 -0.4390 -0.2595
27455W        W42924  12.787   3.366  15.410 -0.2862  0.1895 -0.1960
27456W        W42925   7.355   5.857   0.931 -0.1023  0.0002  0.0012
27457W        W42926   1.387   3.045  10.577  0.1614  0.0645  0.2342
27458W        W42927   6.717  14.758   2.007 -0.6043  0.2895  0.2477
27459W        W42928  11.425   9.769   3.833  0.1282  0.0643 -0.1942
27460W        W42929   2.064   9.321   5.079 -0.2349 -0.0688 -0.1333
27461W        W42930   3.675  10.464   0.997 -0.1482  0.1177 -0.4975
27462W        W42931   8.319  11.524   5.371 -0.1826 -0.3292 -0.0328
27463W        W42932   0.048  12.391  13.507  0.0698 -0.0697 -0.1199
27464W        W42933   4.747   6.049   2.473  0.2945 -0.0852  0.0501
27465W        W42934  14.552   6.348  15.289 -0.0805 -0.3889 -0.1353
27466W        W42935  10.266   8.045   2.266  0.0208 -0.0629  0.4450
27467W        W42936  17.276  14.957  15.217 -0.1648 -0.1629 -0.1695
27468W        W42937   2.098  16.625   4.075  0.2132 -0.1570  0.0166
27469W        W42938  13.728   5.645   2.350  0.0521  0.0802  0.0434
27470W        W42939  12.244  12.496  15.738  0.1867 -0.0088 -0.0474
27471W        W42940  17.951  14.211   3.351 -0.1824 -0.2430 -0.3820
27472W        W42941  14.905  12.496   4.083  0.2726  0.0739 -0.0930
27473W        W42942  11.760   2.086   4.043  0.1071 -0.2992 -0.0113
27474W        W42943   1.104   7.241   2.319  0.0471  0.0447  0.0851
27475W        W42944   7.235  10.422  14.040  0.2411  0.1955 -0.0646
27476W        W42945  14.252   4.230  13.093  0.0192  0.2169  0.2624
27477W        W42946  15.346   4.212  10.270  0.4122 -0.0821  0.1633
27478W        W42947   8.881  17.238  13.773 -0.0894  0.4359  0.0874
27479W        W42948   8.492  17.428   1.537 -0.1654 -0.3117 -0.2080
27480W        W42949   1.861   7.989   2.390 -0.0710  0.0928 -0.1268
27481W        W42950  15.616   1.204  15.643 -0.1967  0.1234  0.0653
27482W        W42951   1.701   3.215   0.773  0.1681 -0.0625  0.0348
27483W        W42952   9.702   0.146   0.676 -0.0580  0.1477  0.0780
27484W        W42953   4.606  16.521   0.943  0.1306  0.0348 -0.1980
27485W        W42954   0.507   0.947  12.939  0.1466 -0.3085  0.1212
27486W        W42955   2.621  12.314  11.949 -0.1734  0.1455 -0.1497
27487W        W42956   3.789   4.700  14.765 -0.0177 -0.1156 -0.1011
27488W        W42957  17.192   5.912   2.321  0.1044 -0.1503 -0.3038
27489W        W42958   3.325  14.664  12.055 -0.1346 -0.1408  0.1894
27490W        W42959  12.651   3.389  12.625  0.1128 -0.0482 -0.1322
27491W        W42960  13.423  15.781  10.675 -0.0812  0.4105 -0.3530
27492W        W42961   0.277  14.998  11.159  0.1475 -0.0222  0.0356
27493W        W42962   9.038   6.574  13.787  0.0884  0.0609  0.0437
27494W        W42963  12.277   7.265   4.781 -0.0146 -0.2507 -0.0929
27495W        W42964  10.413   4.257   6.209  0.2623 -0.1590  0.1594
27496W        W42965  11.887  17.811  14.068  0.1377 -0.0164 -0.0305
27497W        W42966  12.776  10.217  11.060 -0.2101  0.1083  0.1207
27498W        W42967  10.399  12.914  12.090 -0.1894 -0.1822  0.4723
27499W        W42968  16.140   2.538  12.095 -0.3136  0.2129 -0.0758
27500W        W42969   1.720   5.292  15.981 -0.1602 -0.0230 -0.0447
27501W        W42970  13.149  11.219   4.800  0.2053  0.0301 -0.3879
27502W        W42971  11.876   8.210  10.908 -0.3509  0.0784 -0.1034
27503W        W42972   3.633  12.565  11.637 -0.2699 -0.1934 -0.1949
27504W        W42973   8.669   4.125   1.772 -0.1947  0.2059 -0.0146
27505W        W42974   8.725   1.218   2.192  0.4074 -0.1437 -0.0924
27506W        W42975  18.220  15.433   4.537  0.1747 -0.2161  0.0923
27507W        W42976   0.851  14.589  14.745 -0.0951  0.0644 -0.0956
27508W        W42977   5.045   9.186  14.159 -0.0279 -0.3117 -0.2323
27509W        W42978   0.110  16.874  12.182  0.2242 -0.0031 -0.2876
27510W        W42979   0.861   7.099  13.067 -0.1276  0.1214 -0.2436
27511W        W42980   6.725   5.928  13.133 -0.4701 -0.0025  0.0004
27512W        W42981   3.723  17.145  11.134  0.0326 -0.0207 -0.0252
27513W        W42982  15.710  16.702   5.598 -0.0568 -0.0946 -0.1372
27514W        W42983   8.150  10.884  14.907 -0.2291  0.2327  0.1119
27515W        W42984   0.263   8.973  11.359 -0.1565 -0.1464 -0.1386
27516W        W42985   9.253   5.460  13.195 -0.1501  0.0940 -0.3590
27517W        W42986   1.832   0.773  14.721 -0.2399 -0.1009  0.0187
27518W        W42987  17.092   1.012  15.852  0.1384 -0.1127 -0.0907
27519W        W42988   9.289  15.264  13.556  0.3178 -0.3972  0.2435
27520W        W42989   4.940  13.569  15.130 -0.0838 -0.0357 -0.1194
27521W        W42990   7.324  14.640   2.573 -0.1564 -0.0920  0.4233
27522W        W42991  17.588  16.649  15.151  0.1598  0.0486  0.1252
27523W        W42992   8.364  15.204  13.200  0.1613  0.0752 -0.2577
27524W        W42993  12.712  18.037  14.520  0.1728 -0.0895 -0.2791
27525W        W42994  14.102  13.806   1.728 -0.1419 -0.3200  0.1148
27526W        W42995   3.523  13.920   1.071 -0.1400 -0.0550 -0.0794
27527W        W42996  12.517  14.158   1.259 -0.2277  0.2228  0.1010
27528W        W42997  13.203  18.217   4.514  0.1241  0.0255 -0.1238
27529W        W42998   2.298   6.955  12.700  0.0799 -0.1979 -0.0973
27530W        W42999   1.453   2.367   2.825  0.0193  0.1980  0.2199
27531W        W43000   1.333  11.923  12.101 -0.1837 -0.1811  0.0386
27532W        W43001   7.315   2.631  11.096 -0.1934  0.2195 -0.1859
27533W        W43002   5.148   0.018   0.576  0.0618  0.2425  0.3187
27534W        W43003  17.334  10.454   3.325 -0.1272  0.0911  0.0645
27535W        W43004   5.357   6.611  10.960 -0.0486 -0.0149  0.0491
27536W        W43005   8.386  15.143   0.802 -0.0081  0.0681 -0.3615
27537W        W43006   5.027   5.277  12.056  0.3060 -0.1305  0.1207
27538W        W43007  15.052  10.322   0.002  0.0558  0.0179  0.4829
27539W        W43008  16.058  16.222  14.947  0.0100  0.1650 -0.2181
27540W        W43009   7.555   6.590  12.743  0.1260  0.3374  0.0483
27541W        W43010  11.301   0.523  12.199  0.1484  0.0096 -0.2147
27542W        W43011  13.272  12.672  13.281  0.0225  0.0804 -0.2949
27543W        W43012   0.932  17.405   1.284  0.0445  0.0302  0.0190
27544W        W43013   0.455  13.068  16.003 -0.0671 -0.1774  0.2595
27545W        W43014  14.533   0.756   1.437 -0.0524  0.2779 -0.3667
27546W        W43015   7.718   9.235   2.483  0.1236  0.0069 -0.0083
27547W        W43016  11.937   5.564   1.393  0.1035  0.0870 -0.1565
27548W        W43017   3.849   4.748   3.295 -0.0239  0.2888  0.0109
27549W        W43018   4.612   6.669   4.147  0.0707  0.1150  0.0447
27550W        W43019   3.891   9.364   5.476  0.0343  0.2670 -0.0345
27551W        W43020   0.243   4.054   4.987  0.1056 -0.4684 -0.2346
27552W        W43021  10.660  15.967   2.599  0.3276  0.1971  0.0146
27553W        W43022  13.466  11.134  15.572 -0.1433  0.0876  0.1324
27554W        W43023   1.920   8.293   3.225  0.1600 -0.1263 -0.0585
27555W        W43024   0.987   5.627  15.842 -0.0799  0.0319  0.1136
27556W        W43025   9.775  18.224  15.918 -0.1358 -0.2734 -0.2139
27557W        W43026  11.453  15.295   4.393 -0.1740 -0.0104 -0.1661
27558W        W43027  10.720  15.465   2.535  0.1041 -0.1597  0.0888
27559W        W43028   2.434   6.892   5.104  0.3299 -0.0732 -0.1339
27560W        W43029   3.430  11.382  12.256 -0.2863 -0.1790 -0.6759
27561W        W43030   2.007   4.164   1.959 -0.1273 -0.0046 -0.0097
27562W        W43031  14.720  11.684  13.938  0.1767  0.1064 -0.0293
27563W        W43032   1.078   9.162   2.734  0.0268  0.2797 -0.1022
27564W        W43033   5.393   8.612  13.118  0.0999 -0.0332 -0.1728
27565W        W43034  13.128  12.442  14.361 -0.0347  0.1004  0.4434
27566W        W43035   2.397   1.174   3.241 -0.0798  0.0896 -0.0964
27567W        W43036   0.409  11.712   2.727 -0.1277 -0.1916  0.2992
27568W        W43037   2.605  17.549  13.072 -0.1797 -0.0635 -0.0140
27569W        W43038  12.820  12.369   2.665  0.0685  0.3069 -0.2455
27570W        W43039  17.392  10.923   1.132  0.1550 -0.0384 -0.1182
27571W        W43040   9.933  13.962  11.549 -0.1963 -0.3016 -0.1062
27572W        W43041   7.072  10.310  10.946  0.1150 -0.0542  0.3484
27573W        W43042   6.323  12.739   2.056 -0.0474  0.2119  0.1038
27574W        W43043  11.474   3.497   0.646 -0.0942 -0.0737  0.1852
27575W        W43044   6.220   4.598   0.915 -0.0107 -0.0475 -0.0559
27576W        W43045  11.260  11.945   3.349 -0.1480 -0.1555 -0.0515
27577W        W43046   4.861  15.352   0.909  0.0880 -0.0263  0.3059
27578W        W43047  16.817   1.789   5.298 -0.0019 -0.3419  0.1016
27579W        W43048   1.546   8.533  12.283  0.1226 -0.1947  0.2921
27580W        W43049  11.102  10.855   1.610 -0.3922  0.1706  0.0067
27581W        W43050   7.157   5.809  12.808 -0.3030 -0.0714 -0.0564
27582W        W43051   2.580  18.027   3.816  0.3492 -0.0083 -0.0472
27583W        W43052  17.613   6.839  12.408 -0.2905 -0.0742 -0.2368
27584W        W43053   6.002   2.563   3.032  0.1226 -0.2488 -0.0134
27585W        W43054   4.979   5.239   6.235 -0.5822  0.2545  0.2310
27586W        W43055   2.057   2.329   2.519 -0.0683  0.0394  0.0344
27587W        W43056   6.300  13.608   1.029 -0.1730 -0.1176  0.1505
27588W        W43057   0.656  12.309  12.640 -0.1298  0.1461 -0.2050
27589W        W43058  11.742   2.140  14.609 -0.3897 -0.0061 -0.0671
27590W        W43059  13.725   9.396   4.567  0.0524 -0.0129  0.0311
27591W        W43060  17.362   9.498   4.116  0.0977  0.3076  0.0668
27592W        W43061   4.966   8.520  13.463 -0.1697 -0.1372  0.1617
27593W        W43062   4.172  11.398   1.587 -0.1460  0.1319 -0.0820
27594W        W43063  10.357   3.093   4.063 -0.7610  0.0639 -0.0486
27595W        W43064  17.856   8.319  14.132 -0.0576 -0.0283  0.0811
27596W        W43065   0.310  10.862  15.893  0.2371  0.0623 -0.0904
27597W        W43066   2.609   6.355  13.882 -0.0874 -0.2349 -0.0809
27598W        W43067   3.601   5.806   2.263 -0.3128  0.1273 -0.2143
27599W        W43068  15.250   2.404  14.633  0.1428 -0.3926 -0.1648
27600W        W43069  16.019   8.611  13.632  0.0429  0.2352 -0.3188
27601W        W43070   7.759  10.173  13.843  0.0456  0.2223  0.5163
27602W        W43071   9.008   8.432  13.475 -0.2209  0.1504  0.1721
27603W        W43072  17.321  18.239   2.668  0.1345  0.2224  0.2241
27604W        W43073  13.119   7.954   0.719  0.1694  0.2756 -0.1827
27605W        W43074  17.703   8.530  11.451 -0.1708 -0.0360  0.2445
27606W        W43075   5.884   1.098   3.158 -0.0280 -0.1544 -0.0938
27607W        W43076   7.900   0.860   4.280 -0.1494 -0.0394 -0.0364
27608W        W43077   5.296  14.602  16.102  0.0246 -0.2259 -0.0450
27609W        W43078  17.650  15.750  12.205  0.0694  0.2441  0.0968
27610W        W43079   6.275   5.444   5.518 -0.0125  0.1631  0.2128
27611W        W43080  14.379   7.622  10.796 -0.0488 -0.1491 -0.3864
27612W        W43081  16.068  11.610   4.026  0.2902  0.2394  0.0585
27613W        W43082   6.557  17.362   3.279 -0.1965  0.0112 -0.1890
27614W        W43083  10.221   7.791  14.267 -0.0460 -0.0079  0.2166
27615W        W43084   9.340   3.830  11.370  0.1067  0.0903  0.2724
27616W        W43085   4.289  14.680   1.520 -0.0313  0.1460  0.2116
27617W        W43086  12.388  12.611  13.943  0.0023 -0.0101  0.1710
27618W        W43087  12.843  11.581   3.798 -0.1693 -0.1176 -0.1221
27619W        W43088   2.929   1.953  10.731 -0.1562  0.0246  0.1142
27620W        W43089  17.652  13.748   4.498 -0.0650 -0.2911 -0.0472
27621W        W43090  15.262   3.911  12.866  0.1730  0.0477  0.0362
27622W        W43091   6.214  15.665  12.472 -0.0830 -0.0189  0.2941
27623W        W43092  12.533  12.413   5.210  0.1963  0.0023 -0.1846
27624W        W43093  13.168  17.842  12.047  0.0924 -0.3219 -0.0779
27625W        W43094   0.882  15.077  12.025  0.0699  0.1539  0.2243
27626W        W43095  17.794   9.055   0.324 -0.0989  0.1851 -0.0344
27627W        W43096   1.862  12.155  14.849  0.0707 -0.0772 -0.3278
27628W        W43097  15.106  13.257   5.181  0.3563  0.0044 -0.1987
27629W        W43098  15.767  16.053   2.655 -0.4372 -0.1199 -0.1509
27630W        W43099  16.103   8.126   3.227 -0.1075 -0.0486 -0.2983
27631W        W43100  11.281   9.210   0.473  0.2250  0.3536  0.2457
27632W        W43101   5.722  13.191   0.127  0.0169  0.0274  0.3106
27633W        W43102   0.117   1.834   4.751  0.2670  0.1172 -0.4918
27634W        W43103   3.698   0.342   3.324  0.2084  0.0471 -0.1000
27635W        W43104   3.679   2.934  14.759  0.0825 -0.0443 -0.3160
27636W        W43105   1.890  18.102  11.139 -0.1139 -0.0466 -0.1707
27637W        W43106   3.855   2.707  16.052 -0.2033  0.0760 -0.2185
27638W        W43107   1.165  12.943  12.039 -0.1135  0.1691 -0.6304
27639W        W43108   1.607   9.160  12.915  0.1086 -0.0025 -0.4342
27640W        W43109  16.572  15.364  15.664  0.1384 -0.1265 -0.0172
27641W        W43110   8.262  17.187   1.943  0.0362 -0.0596  0.0121
27642W        W43111  14.022  13.191  13.807 -0.0697 -0.1641  0.2578
27643W        W43112   3.179  17.266   2.093 -0.0432  0.2895  0.0229
27644W        W43113   6.011  17.233  11.022  0.0779 -0.1294  0.4922
27645W        W43114  11.371   4.019   4.150 -0.3044 -0.0217  0.2102
27646W        W43115   6.967  17.648  11.174  0.0282  0.0768 -0.3143
27647W        W43116   6.079  16.183  10.560 -0.1700 -0.0343 -0.0470
27648W        W43117   0.913  11.612   2.919 -0.3639  0.0117  0.0723
27649W        W43118   1.153  13.670  11.081  0.0541  0.0145 -0.1011
27650W        W43119  12.445   8.723  11.324 -0.0664  0.2995 -0.1323
27651W        W43120   1.634  17.420   3.413  0.0841  0.0298 -0.0795
27652W        W43121   7.083  14.375   0.644 -0.0184  0.4010  0.0024
27653W        W43122   8.080   2.857   2.835  0.1745  0.1219 -0.0563
27654W        W43123   8.743  12.075  10.770  0.1406  0.0341  0.5025
27655W        W43124   8.393   7.463  15.663 -0.2142 -0.2566 -0.1816
27656W        W43125   2.216  12.031  13.392  0.2435  0.1780  0.0965
27657W        W43126  16.034  15.390  15.490  0.2534  0.1314  0.2090
27658W        W43127   5.175   9.707  11.023 -0.0220 -0.0257 -0.0043
27659W        W43128   4.978   8.023  11.248  0.1764 -0.0881 -0.3125
27660W        W43129   9.377   7.866  10.037 -0.2730  0.0302 -0.0616
27661W        W43130   4.807   1.300   1.712 -0.0202  0.0237 -0.0092
27662W        W43131  18.015  12.797  14.775  0.1535 -0.1105  0.0451
27663W        W43132   3.402  17.917   3.702  0.1573 -0.0472 -0.1585
27664W        W43133   7.034   6.004  14.339 -0.1906 -0.0515 -0.1462
27665W        W43134   8.077   9.706  13.391  0.0495 -0.1118  0.2987
27666W        W43135  10.134  15.615  13.622  0.0421  0.0589 -0.0586
27667W        W43136   5.353  11.533  11.316 -0.1466  0.0429  0.0714
27668W        W43137  14.770   4.849  10.970 -0.2636  0.0409 -0.1791
27669W        W43138   3.285   0.218   4.739  0.1617  0.0959  0.2458
27670W        W43139   4.238  14.667  11.857 -0.0640  0.2764 -0.1154
27671W        W43140   8.790   4.676   1.701 -0.0493 -0.0122  0.1210
27672W        W43141  17.388  14.332  12.522 -0.0459 -0.2686  0.1636
27673W        W43142   6.132  10.050   2.125  0.0681 -0.2889 -0.0524
27674W        W43143  16.455   1.642   4.921 -0.1510 -0.0221 -0.0578
27675W        W43144  16.171   5.606   0.641 -0.3143 -0.1014  0.0091
27676W        W43145   1.693   2.086  15.335  0.2068 -0.0691  0.0950
27677W        W43146  15.448   9.664   2.999 -0.2417 -0.1738  0.0965
27678W        W43147  12.527  16.740  12.779 -0.0450  0.0811  0.1310
27679W        W43148   5.101   9.144   5.369  0.3164  0.1131  0.0942
27680W        W43149  18.168  12.840  13.294  0.0998 -0.0200 -0.0201
27681W        W43150   1.111   5.733   0.232  0.1466 -0.1672  0.2986
27682W        W43151   2.553   6.570   5.463  0.0240 -0.1988  0.1295
27683W        W43152   9.663  12.293   3.556 -0.3469  0.0380  0.1030
27684W        W43153  13.334   5.773   4.664 -0.0833  0.1858 -0.2675
27685W        W43154  13.511  10.617  15.344 -0.1609 -0.0524  0.1977
27686W        W43155   9.544   7.572   3.145 -0.0574  0.0364 -0.0476
27687W        W43156   4.120   1.730   0.326 -0.3360 -0.1508  0.1020
27688W        W43157   4.827   6.567   5.159 -0.2640 -0.1229 -0.1169
27689W        W43158   7.111  16.062   4.980 -0.1055 -0.0503  0.3213
27690W        W43159   1.819  18.301  15.178 -0.2864  0.0111 -0.0581
27691W        W43160   1.528   4.591  14.981  0.1063  0.2561 -0.1735
27692W        W43161  12.325  10.968  14.224 -0.0147  0.1501  0.1053
27693W        W43162   2.611  10.096   3.343 -0.1051 -0.1205  0.0541
27694W        W43163  10.699   6.079   3.102 -0.0075  0.0776  0.2248
27695W        W43164  14.913   1.650   2.595  0.0258 -0.3313  0.2626
27696W        W43165   5.251   1.834   4.511 -0.1837  0.1541 -0.0981
27697W        W43166   9.322  15.620   3.170  0.0379  0.1211  0.2387
27698W        W43167   3.900   4.125   3.913  0.1377  0.3102  0.1971
27699W        W43168  17.289   7.459  11.242  0.1025  0.2820 -0.1306
27700W        W43169   6.945  17.921  14.707 -0.2088 -0.3875 -0.1526
27701W        W43170   2.768   3.163   3.119  0.0991 -0.1298  0.1645
27702W        W43171  10.626   3.661   2.722  0.1876  0.0759  0.1996
27703W        W43172   9.590  13.028  13.138 -0.0392  0.4101  0.0244
27704W        W43173   7.887   3.825  15.222  0.1443  0.1258  0.1392
27705W        W43174  11.254   7.072  12.006  0.2913 -0.0799 -0.5454
27706W        W43175   8.174   9.573   2.180  0.1407 -0.1556 -0.3717
27707W        W43176  17.819  13.332  16.014  0.0531 -0.2642  0.3252
27708W        W43177   2.564   4.712  12.999  0.1354  0.1907 -0.1293
27709W        W43178  17.295   2.946  12.133  0.2200 -0.1911  0.4677
27710W        W43179  12.187   6.244   5.040 -0.1378 -0.3089  0.0842
27711W        W43180  11.362   7.731   5.130 -0.0613  0.2572  0.0470
27712W        W43181  15.004   0.155  14.510 -0.0250 -0.0556 -0.1114
27713W        W43182   3.859  13.244  11.430 -0.0171  0.0217 -0.0824
27714W        W43183  12.259   6.653  14.842  0.1613 -0.1740 -0.0442
27715W        W43184   1.438   4.274   0.645 -0.2361  0.2353  0.0496
27716W        W43185   8.716  16.760   4.919  0.0426 -0.1438  0.1762
27717W        W43186  13.822   1.504  15.287  0.2404 -0.2516 -0.0631
27718W        W43187  14.230   0.609   3.166  0.0355 -0.1856  0.0679
27719W        W43188   1.219  11.859  10.093 -0.1457  0.2060 -0.1451
27720W        W43189  13.524  13.052  13.684 -0.0516  0.1648  0.1728
27721W        W43190   7.142   0.522   1.646 -0.0664 -0.1875 -0.0115
27722W        W43191  17.943  11.849   1.496 -0.0763 -0.1117 -0.0544
27723W        W43192   0.968   8.822  11.669  0.1130 -0.0420 -0.0400
27724W        W43193  11.439  12.277  12.962  0.0023 -0.3479 -0.0134
27725W        W43194   7.543   3.737   6.153  0.0375 -0.1914  0.1478
27726W        W43195  13.982  14.795   3.219  0.0745  0.1333  0.0552
27727W        W43196  14.685  13.748  13.342  0.1112 -0.1073 -0.1840
27728W        W43197  10.712   7.241   0.815 -0.1150  0.1891  0.0853
27729W        W43198   3.867  18.260  15.900 -0.1130 -0.2027  0.1097
27730W        W43199   3.610   4.113  14.055 -0.3334  0.1272 -0.0589
27731W        W43200  18.048   4.677   3.562  0.0661 -0.1403  0.0699
27732W        W43201  17.474   2.457   2.605  0.1750  0.1144  0.2619
27733W        W43202  14.398   0.345   4.391  0.0371  0.0758  0.0012
27734W        W43203   3.496  14.583   3.253 -0.1143  0.1135  0.2988
27735W        W43204   5.042  15.224   3.704  0.3082 -0.2239  0.2020
27736W        W43205   8.373   1.207   2.819  0.1206 -0.2340 -0.2814
27737W        W43206  17.061  10.339   2.067 -0.0222 -0.1788 -0.1107
27738W        W43207  18.164  17.686  11.902  0.1630  0.2518 -0.0776
27739W        W43208  11.842  13.615   3.019  0.1407  0.2196  0.0862
27740W        W43209  15.313  12.923   1.044 -0.3708 -0.2419  0.0168
27741W        W43210  14.505   2.738   2.899  0.0695  0.1093 -0.0752
27742W        W43211   4.877   0.546  12.350 -0.1098  0.1014 -0.0787
27743W        W43212   6.316   3.477  14.133  0.1314  0.1925 -0.0674
27744W        W43213  15.937  10.048  10.572  0.1370 -0.1323  0.0624
27745W        W43214   7.038   3.675   5.911 -0.0661 -0.1465 -0.0314
27746W        W43215  13.796   7.017   9.763 -0.0344 -0.0767 -0.0096
27747W        W43216   8.442   7.946  14.804  0.0697 -0.1956  0.3539
27748W        W43217   6.706  14.954  13.684  0.2662 -0.1904  0.1086
27749W        W43218   1.618   0.808  13.622 -0.4947 -0.0620  0.1658
27750W        W43219  11.181   8.830   1.890  0.1779  0.3120 -0.0679
27751W        W43220  14.069   7.217  10.723  0.1678  0.1193  0.0844
27752W        W43221   6.171   3.096  15.543 -0.1521 -0.2480 -0.2440
27753W        W43222  16.388   8.594  13.222 -0.2048 -0.0189  0.0962
27754W        W43223  11.828   6.722  13.913 -0.1762 -0.0439  0.0827
27755W        W43224   7.870   8.163  15.457  0.2486  0.2989  0.0589
27756W        W43225   9.245   5.336  15.980  0.1452 -0.2973  0.2643
27757W        W43226   0.972   9.489   1.237  0.0768  0.0326  0.1269
27758W        W43227  12.775  16.534   4.045 -0.3186  0.0917  0.2081
27759W        W43228  17.173  13.294   5.059 -0.1609  0.0376  0.0925
27760W        W43229  16.489  12.677   2.454 -0.1403  0.1932  0.0242
27761W        W43230  11.525  14.024  11.859  0.2352 -0.1227 -0.0509
27762W        W43231   1.460   5.805   2.335  0.2658  0.1690  0.3068
27763W        W43232  15.278   0.375   6.321  0.1903 -0.2869  0.3423
27764W        W43233   4.885   4.500   5.130 -0.0998  0.0462  0.1458
27765W        W43234   6.414  15.626  13.530 -0.3824  0.0283  0.3160
27766W        W43235   1.347   2.626  11.995  0.1673  0.1584 -0.1108
27767W        W43236   4.207  15.281  13.541 -0.2903  0.1717  0.1077
27768W        W43237  13.264   5.382  11.669  0.2375 -0.1734  0.0336
27769W        W43238   6.727   2.536   3.962 -0.1457  0.0139  0.1398
27770W        W43239   0.005   0.339  11.974 -0.5304  0.0456 -0.0333
27771W        W43240  14.021  10.782  12.394 -0.0585 -0.1983 -0.0064
27772W        W43241  15.267  16.436   5.727 -0.0328  0.0758 -0.1354
27773W        W43242  17.199   3.926   2.643 -0.2899 -0.4009  0.2926
27774W        W43243  10.329   2.161   0.313  0.0548 -0.0918 -0.2876
27775W        W43244   8.069   4.885   3.230 -0.0714 -0.1539  0.3287
27776W        W43245   2.426   1.108  11.411 -0.0349  0.1632 -0.1014
27777W        W43246   6.388   9.991  11.032  0.2471  0.2169 -0.0231
27778W        W43247   5.699  10.545   0.210 -0.2143  0.1512  0.2384
27779W        W43248  10.945  11.647   0.407 -0.0472 -0.3535 -0.1866
27780W        W43249   0.736   6.368   2.393 -0.2657  0.0343 -0.0864
27781W        W43250   4.652   3.215   0.085  0.0875  0.6029  0.2228
27782W        W43251   0.006  17.090   2.543  0.0288  0.0716  0.2823
27783W        W43252  14.191   5.333   4.693 -0.4016  0.0580  0.0085
27784W        W43253   7.549   7.250   0.576 -0.0196  0.1910  0.0683
27785W        W43254  15.553   0.395   1.460 -0.1570 -0.2556  0.1149
27786W        W43255  14.359   0.595  11.437  0.0966  0.1300 -0.0698
27787W        W43256   0.626   1.518  13.237  0.1523  0.4559  0.1722
27788W        W43257  12.797  12.206  13.990 -0.0243 -0.2250  0.2215
27789W        W43258   9.273  14.484  14.393  0.0754 -0.0482  0.0356
27790W        W43259  14.182  10.629   2.079  0.0325  0.0928  0.1663
27791W        W43260   3.280   9.279   0.152 -0.2331 -0.0390  0.0016
27792W        W43261   2.143  14.991   1.961 -0.0538  0.1705  0.0522
27793W        W43262   8.693   5.473  15.842  0.0329  0.0427 -0.0562
27794W        W43263   2.044   9.854  13.970  0.1963  0.1675 -0.0031
27795W        W43264   3.266  16.847   3.276  0.0296  0.1607 -0.0379
27796W        W43265  10.792   2.081   1.235  0.0851 -0.2631  0.2980
27797W        W43266   4.094  14.577   4.847  0.4389  0.2124  0.2996
27798W        W43267  16.153   4.460   0.775  0.4098 -0.0857  0.1458
27799W        W43268   7.212  12.227  14.087 -0.3241 -0.0822  0.1169
27800W        W43269  11.762  17.606   1.130  0.1425 -0.1558 -0.0785
27801W        W43270  16.020   8.565   5.066 -0.0290 -0.0318 -0.0050
27802W        W43271  17.398  16.261   5.220  0.0014 -0.0937 -0.1492
27803W        W43272   5.675   9.385  11.306  0.2184 -0.0786  0.2042
27804W        W43273  13.949   9.295  16.093 -0.0686 -0.0424 -0.0439
27805W        W43274  16.888  16.916   3.133 -0.1615 -0.0841  0.0287
27806W        W43275   1.779   8.093   0.247 -0.3271 -0.1282 -0.0512
27807W        W43276  14.103  10.494   2.988  0.0433  0.0858  0.1152
27808W        W43277  17.888   4.220  13.273 -0.2112 -0.2167  0.1859
27809W        W43278  11.016  15.955   1.883 -0.1941  0.1834  0.1164
27810W        W43279   4.062   2.282   2.459  0.0316  0.0306  0.0593
27811W        W43280   3.300  12.905   3.901  0.2049 -0.0563  0.4784
27812W        W43281   6.249  14.574   1.822  0.1858  0.1790  0.0318
27813W        W43282   5.031   2.592   5.209 -0.0826  0.1528 -0.0024
27814W        W43283  16.792   2.050   3.384  0.0536 -0.2774  0.0011
27815W        W43284   0.066  12.547  11.950  0.1410  0.3561  0.0242
27816W        W43285   2.998   3.408  14.353  0.4368 -0.2048  0.0009
27817W        W43286  11.383   4.777   1.108  0.1165 -0.1336 -0.1032
27818W        W43287   0.917  11.506  12.184 -0.2541  0.1062 -0.1103
27819W        W43288  13.098   0.146  13.767 -0.1248  0.0260 -0.0230
27820W        W43289  17.193  12.094   2.423  0.2283  0.3047  0.3852
27821W        W43290   5.395  18.101  13.388  0.2294 -0.1927  0.4104
27822W        W43291   3.566   8.700   1.198  0.0892 -0.1400 -0.0158
27823W        W43292  14.675   3.272   2.136  0.0161  0.2997 -0.1207
27824W        W43293  14.111   7.979   4.891 -0.1537 -0.0194  0.3686
27825W        W43294   6.819  12.639  15.046 -0.0513 -0.0729  0.0534
27826W        W43295  12.518  14.914  11.157  0.2264  0.0543 -0.2506
27827W        W43296  11.588   4.144   0.502  0.1217  0.2053 -0.3048
27828W        W43297   9.821   6.850  11.626  0.1920  0.2125 -0.1316
27829W        W43298   6.017   8.355   2.118  0.0553  0.0902  0.0659
27830W        W43299   1.465  11.759   5.530 -0.0789 -0.2460  0.0112
27831W        W43300  11.414  17.536  14.788 -0.2158 -0.1621  0.2622
27832W        W43301  16.935   8.995   2.012 -0.0961  0.0478 -0.1173
27833W        W43302   9.150  12.808  15.860  0.4402  0.0301  0.0466
27834W        W43303  12.948   7.754   1.597 -0.2077 -0.1140 -0.2084
27835W        W43304   9.899   7.383   4.946 -0.1590 -0.1106  0.1642
27836W        W43305   1.419  18.276  14.051  0.3700  0.0734  0.0430
27837W        W43306  11.883   4.588   3.709  0.2895 -0.0454 -0.1745
27838W        W43307  16.845  15.567   3.035 -0.1058 -0.3251  0.3020
27839W        W43308  13.101  10.777  15.515  0.2944  0.0847 -0.0469
27840W        W43309   8.155   2.456   1.035  0.2660  0.2304  0.1589
27841W        W43310   5.433   5.664   1.801  0.1279 -0.1678 -0.1545
27842W        W43311  10.995   7.893   0.892 -0.1526 -0.2309 -0.1203
27843W        W43312   9.149   1.644  12.633  0.2580  0.0339 -0.0369
27844W        W43313   4.107  13.678  13.550 -0.2307 -0.3416  0.2253
27845W        W43314  15.716  14.887  16.037 -0.1986  0.3195 -0.1544
27846W        W43315   9.890   2.571   5.501 -0.1917  0.0614  0.4114
27847W        W43316  15.286   1.363  15.374  0.1324 -0.1898 -0.0198
27848W        W43317   6.527  11.789   4.731  0.0879  0.0951 -0.0909
27849W        W43318   5.034   8.340  12.160  0.2895 -0.0259  0.1335
27850W        W43319   6.115   3.606  15.612 -0.0475  0.2710  0.0483
27851W        W43320  10.036  17.702   0.952  0.2544 -0.2914  0.0719
27852W        W43321  14.832   8.650  15.061  0.0867 -0.2251 -0.0961
27853W        W43322  18.035  10.900  12.678 -0.1841  0.1299 -0.3384
27854W        W43323   7.522   4.809  12.449 -0.1096 -0.1043 -0.2059
27855W        W43324   6.621  15.140   5.217 -0.1405 -0.3608  0.0068
27856W        W43325   0.986   2.496   2.932  0.1425 -0.2786  0.0148
27857W        W43326  17.861  10.079   1.906  0.1296 -0.1352  0.2294
27858W        W43327  16.471   7.469   5.243  0.0599  0.0001 -0.0437
27859W        W43328  16.996  12.482  13.705 -0.0471 -0.1693 -0.0960
27860W        W43329  17.165  16.866   3.667 -0.0309  0.0419  0.3457
27861W        W43330   8.917   2.078  12.713  0.3086  0.1465 -0.0769
27862W        W43331   4.140   1.813   4.455 -0.0538 -0.0713  0.0860
27863W        W43332  12.732   7.480   0.039 -0.3725 -0.0442  0.3952
27864W        W43333  13.184  12.634   0.825 -0.5611 -0.1916  0.0066
27865W        W43334  10.780   6.880   3.482 -0.2477  0.2895  0.1033
27866W        W43335   8.858  16.889   1.102 -0.1087 -0.1977 -0.4512
27867W        W43336   4.401  10.350  13.319 -0.0233 -0.2408 -0.0583
27868W        W43337   7.886  12.126  11.641 -0.0184 -0.1915  0.0450
27869W        W43338   4.707  16.041   1.188 -0.4266 -0.1431 -0.1008
27870W        W43339   3.965  13.876   2.850 -0.1713  0.1042  0.2950
27871W        W43340   7.968  11.733  15.381 -0.3299  0.4499 -0.0752
27872W        W43341   4.715  14.650  16.084 -0.1520 -0.1081  0.0721
27873W        W43342   0.286   9.830  12.876  0.0813 -0.2851  0.0140
27874W        W43343   8.161  12.649   4.294  0.0946  0.1722 -0.0308
27875W        W43344  11.039   9.527   4.116 -0.1326 -0.2498 -0.0632
27876W        W43345  10.130  14.501  14.099  0.1364 -0.0163  0.1511
27877W        W43346  16.631   5.147  13.773 -0.1112  0.1070  0.1257
27878W        W43347   4.319   6.625   1.676  0.0805  0.0348 -0.1989
27879W        W43348   0.205  17.701  11.501 -0.2770  0.0762  0.0244
27880W        W43349  11.218  14.893   3.485 -0.0373 -0.0215  0.3758
27881W        W43350   5.643  16.854  11.070 -0.0068  0.0270 -0.4660
27882W        W43351  13.473  15.680  13.080 -0.0748  0.1922 -0.0257
27883W        W43352  15.219  16.460  15.288  0.0934 -0.2487  0.1238
27884W        W43353   7.144   6.277   5.104  0.1174 -0.0333 -0.0752
27885W        W43354  16.395   4.582   4.449  0.0675 -0.1874  0.2384
27886W        W43355   9.480   4.727  16.100 -0.1814  0.2226 -0.0377
27887W        W43356   6.300   3.199  15.041  0.0534  0.0081  0.0255
27888W        W43357   5.649   9.083  14.032 -0.0738 -0.3115 -0.0743
27889W        W43358  15.573  17.989   4.372 -0.2240  0.0358  0.0955
27890W        W43359   3.981  11.925   3.572 -0.0633 -0.0187 -0.1023
27891W        W43360  17.784  12.251   0.580 -0.0431 -0.0751  0.0407
27892W        W43361   0.047  14.052  12.600  0.0244  0.1623 -0.0063
27893W        W43362  11.151   2.441  14.805  0.4150  0.0406 -0.0716
27894W        W43363   6.359   5.511  14.560 -0.0980  0.1318 -0.1405
27895W        W43364  14.104  14.342   2.356 -0.1863  0.5835  0.0346
27896W        W43365  11.638   6.832   4.284 -0.0757  0.1101 -0.2275
27897W        W43366   6.420  15.644  14.144  0.1830 -0.0975 -0.1994
27898W        W43367  16.717   2.457  10.947  0.4698  0.0546  0.0624
27899W        W43368   9.573   2.613   0.371 -0.0554  0.1934 -0.0389
27900W        W43369   9.349  13.838  11.402  0.1167  0.1190 -0.1470
27901W        W43370  14.319  13.404  12.508 -0.2249  0.0236 -0.5549
27902W        W43371   0.486  16.711   0.623 -0.2948  0.0759  0.0247
27903W        W43372   7.514  10.210  10.122  0.2332  0.1189 -0.1529
27904W        W43373   9.119   7.061  13.565 -0.3801 -0.5091 -0.2423
27905W        W43374   2.321  14.801   0.169  0.0547 -0.0060  0.2044
27906W        W43375  12.698  15.431  11.231  0.0789 -0.1048 -0.2093
27907W        W43376  14.406   6.796  13.225  0.1773  0.2741 -0.0317
27908W        W43377   1.450   9.442  15.620  0.0038  0.0974 -0.1449
27909W        W43378   7.280   4.718  11.581 -0.0491  0.1750  0.0146
27910W        W43379   8.002   4.640   4.460  0.0472  0.3592 -0.2472
27911W        W43380  17.454  14.772   4.671  0.2015  0.0567 -0.1183
27912W        W43381  13.225   5.053   1.635 -0.1834  0.1466 -0.3279
27913W        W43382  13.569  17.303   1.049  0.2843  0.2871  0.4486
27914W        W43383   4.976  16.997  14.914 -0.1684 -0.0310  0.1241
27915W        W43384  14.013   2.995  14.574 -0.2915 -0.1643 -0.3996
27916W        W43385   3.116   0.841   3.734 -0.2286  0.0663  0.0419
27917W        W43386  14.014  18.054   2.733  0.0499 -0.0392 -0.1989
27918W        W43387  11.871  11.577   0.618  0.4771 -0.1591 -0.2544
27919W        W43388  12.353   1.412  16.042 -0.2098 -0.0097 -0.1575
27920W        W43389  18.051   7.277  15.078 -0.0063  0.0882  0.0899
27921W        W43390  14.249   7.890   0.128 -0.2856 -0.3375 -0.1437
27922W        W43391  13.376  11.413   6.070 -0.2419 -0.0486  0.0175
27923W        W43392  18.294   3.754  15.661 -0.1584  0.0444  0.1691
27924W        W43393  15.992   2.451  15.621  0.2587  0.3678  0.0786
27925W        W43394   9.701   5.990   3.215  0.3566 -0.1796  0.0797
27926W        W43395   0.439  10.217  10.652 -0.1271  0.0232 -0.0029
27927W        W43396   6.394   5.345  11.911 -0.3979  0.1374 -0.0018
27928W        W43397   8.250  18.222   4.097  0.1369  0.0948 -0.0159
27929W        W43398  11.207  12.703  14.410 -0.1279 -0.1324 -0.0088
27930W        W43399   4.313   0.813  14.970  0.2573  0.5916 -0.2894
27931W        W43400  14.742   7.800  15.417  0.0493 -0.1599  0.2340
27932W        W43401  16.742   0.515   3.068  0.1552  0.0682 -0.0931
27933W        W43402  12.871  16.576  11.932 -0.0472  0.1610 -0.3079
27934W        W43403  16.164   9.770   1.720 -0.1040  0.2954 -0.1462
27935W        W43404  17.052  12.601   2.746 -0.0342 -0.1778  0.0028
27936W        W43405  13.969  12.417  11.289 -0.2881 -0.0186  0.1178
27937W        W43406  13.096   9.505   2.590 -0.2156 -0.1061 -0.3787
27938W        W43407  17.030   3.477  11.375 -0.0043  0.1738  0.0784
27939W        W43408   2.081   5.196   3.815  0.1167 -0.1610  0.2414
27940W        W43409   7.269  10.683  12.277 -0.2318 -0.2630  0.0626
27941W        W43410   8.389  15.482   3.273  0.3498 -0.2296 -0.1756
27942W        W43411  11.722   7.381   2.413  0.1412 -0.0393  0.1535
27943W        W43412   1.623   2.513  11.583 -0.2606  0.0060  0.1042
27944W        W43413   0.645   4.446   2.410 -0.0351  0.2298 -0.4944
27945W        W43414   2.369  14.388  12.529 -0.1248 -0.0101  0.0185
27946W        W43415  15.243   5.601  13.101 -0.0608  0.1426  0.0237
27947W        W43416   1.799   5.585   5.489 -0.4280  0.0266  0.0625
27948W        W43417   1.578  16.552   4.908  0.3854 -0.1715  0.0296
27949W        W43418   2.470  16.844  13.658 -0.3529  0.0358  0.1960
27950W        W43419  11.102  11.180  13.858 -0.1039  0.2734 -0.1085
27951W        W43420   1.076   6.445   1.529  0.0869  0.0479 -0.2656
27952W        W43421  10.520   7.984  13.416  0.0858  0.0611  0.1748
27953W        W43422   6.047   4.238   5.565  0.0582 -0.1946  0.1019
27954W        W43423   6.183   6.384  15.675 -0.0033 -0.2049 -0.2031
27955W        W43424  10.957  15.312   1.587 -0.0626  0.0665  0.0429
27956W        W43425  15.362   4.223   2.121 -0.0497 -0.2590  0.0351
27957W        W43426  17.120  12.652   5.673  0.0316 -0.4271  0.2602
27958W        W43427  17.032   2.207  15.767 -0.2314  0.1254 -0.2188
27959W        W43428   3.697  14.504  10.266 -0.0445  0.2262  0.3016
27960W        W43429  11.712  17.919   2.759  0.1006  0.0674  0.0542
27961W        W43430  17.600   7.953   4.422 -0.0096 -0.1839 -0.0788
27962W        W43431   2.732   4.893  14.686  0.1752 -0.0185  0.0622
27963W        W43432  13.420   6.158  15.140 -0.3523  0.1426 -0.2750
27964W        W43433   8.452  12.494  10.822 -0.0595  0.2490 -0.1636
27965W        W43434   6.629  17.594   2.780  0.0465 -0.2507  0.0261
27966W        W43435   4.254   4.669   2.715  0.4671 -0.0188 -0.0154
27967W        W43436   3.884   8.028  13.892  0.0399  0.2430  0.2957
27968W        W43437  15.150   9.765  16.118  0.2640  0.3548  0.0384
27969W        W43438  13.412  14.427  15.421 -0.0025  0.2052  0.0524
27970W        W43439  18.139  16.324  13.051  0.0622 -0.3531  0.3261
27971W        W43440  17.923  10.378   1.509 -0.3734  0.2063  0.0234
27972W        W43441   2.720   5.645   4.042  0.1422  0.6777 -0.1127
27973W        W43442   0.415  16.383   3.495  0.4320 -0.1791  0.0545
27974W        W43443   6.966  15.245  12.308  0.0799  0.4453 -0.3827
27975W        W43444  16.358   6.854  11.438 -0.0043  0.4406 -0.1617
27976W        W43445  12.384  12.708  12.445  0.3589 -0.0725 -0.0226
27977W        W43446   8.985   7.193  11.268 -0.3192  0.0346 -0.1068
27978W        W43447   4.462   1.595  12.408  0.1996  0.2098 -0.2576
27979W        W43448   2.123   1.184   6.073 -0.1891 -0.1946 -0.1555
27980W        W43449  15.163   6.707  16.000  0.2201  0.2028  0.0151
27981W        W43450  10.265   8.210   3.430 -0.0998  0.2929  0.3089
27982W        W43451  16.224   9.857  13.063  0.2780 -0.0641 -0.4657
27983W        W43452   4.430   8.164  14.476 -0.1069  0.0211  0.1366
27984W        W43453   2.721   1.383  11.772 -0.0677 -0.0529  0.0981
27985W        W43454  10.937  11.375   4.714  0.2573 -0.0435 -0.2945
27986W        W43455  16.750  10.335  11.843 -0.0699  0.1471  0.1537
27987W        W43456  14.619  14.936  12.008  0.2509  0.0790  0.0413
27988W        W43457   4.132   0.689  15.498  0.0815  0.0816 -0.3068
27989W        W43458  16.511   8.090  13.925  0.0608 -0.0697 -0.2245
27990W        W43459  11.279  17.550  13.519 -0.0206  0.0209  0.0026
27991W        W43460   2.341   0.954  14.760  0.0069  0.0900 -0.0528
27992W        W43461  17.819   9.508  13.043 -0.1216  0.0227 -0.3884
27993W        W43462  14.726  11.905  12.469 -0.1838 -0.1285  0.1307
27994W        W43463  11.369  12.620   3.605 -0.0440 -0.2560 -0.3222
27995W        W43464   0.821  14.746  13.717  0.0847 -0.1821  0.0143
27996W        W43465   0.351  11.550  11.446 -0.2047  0.2696  0.2698
27997W        W43466  14.154   5.170  11.667  0.2370  0.4093  0.2324
27998W        W43467  17.667  14.401  14.076 -0.1278  0.3050 -0.0105
27999W        W43468   7.635   5.186   5.060 -0.2330 -0.0778 -0.0824
28000W        W43469  17.380   1.907  14.880  0.1317 -0.1106  0.0159
28001W        W43470  15.818   1.718  11.613 -0.1831 -0.2745  0.0074
28002W        W43471  18.285  17.070  14.487 -0.0585  0.1592  0.0518
28003W        W43472   9.620   0.706   4.792 -0.0094  0.0893  0.0630
28004W        W43473  14.313   9.283   4.872 -0.4353 -0.0363  0.2718
28005W        W43474   2.447  13.598   4.300  0.1983  0.1622  0.0870
28006W        W43475   4.920  10.720   3.822 -0.1402  0.0016  0.2138
28007W        W43476   7.131   5.196  11.515 -0.2513  0.3089  0.0824
28008W        W43477  13.144  12.498   2.355  0.1404 -0.0907  0.1453
28009W        W43478   4.056   3.901   2.673 -0.2099 -0.0906  0.2592
28010W        W43479   5.302  12.761   2.487 -0.1580  0.1359 -0.1265
28011W        W43480   1.529  16.188  14.750  0.0788 -0.3491 -0.1120
28012W        W43481  14.252   3.591   4.031 -0.0648  0.3213 -0.2938
28013W        W43482   2.240  17.122  15.711  0.0868 -0.0602  0.0881
28014W        W43483  10.764  15.103   3.377  0.1322 -0.0484 -0.1087
28015W        W43484   1.520   8.360   2.482 -0.0346  0.3244  0.5057
28016W        W43485  17.462  13.815  12.650 -0.1020 -0.1806  0.0515
28017W        W43486   3.858  17.307   5.199  0.0462 -0.0923  0.1107
28018W        W43487   9.375   4.662   2.131 -0.0310  0.0160 -0.0784
28019W        W43488  12.018  14.274   3.810  0.1494 -0.1016 -0.1055
28020W        W43489  13.059   5.194   4.170 -0.1443 -0.2896 -0.2110
28021W        W43490   4.568   7.907  12.665 -0.0835  0.0765 -0.0397
28022W        W43491   6.782  12.803   1.753  0.0351  0.1617 -0.0013
28023W        W43492  16.077   4.675   5.209 -0.0760 -0.4317  0.0111
28024W        W43493   5.371  17.404  14.236 -0.1281  0.2035 -0.0974
28025W        W43494   1.414  12.299  11.413  0.3221  0.0236  0.1857
28026W        W43495   5.310  10.824   5.504  0.3294 -0.1740 -0.2248
28027W        W43496  10.854   7.661   1.958 -0.2054  0.2409  0.0478
28028W        W43497   3.499  15.026  11.652  0.4130  0.4243  0.3388
28029W        W43498   0.759   2.006   5.586  0.1917 -0.0917 -0.3590
28030W        W43499   9.506  14.859   3.830 -0.3853 -0.0319 -0.0336
28031W        W43500  11.678  13.959   4.214  0.0419 -0.2028 -0.1008
28032W        W43501  17.924  15.745  14.399  0.1682 -0.1221  0.1296
28033W        W43502  11.565   8.007   0.796 -0.2290  0.2146 -0.1593
28034W        W43503  10.186   7.723  13.717  0.1250 -0.0852  0.0267
28035W        W43504   9.483  12.407  14.547 -0.2434  0.0317  0.0699
28036W        W43505  15.016  11.339   4.206  0.1364  0.0910 -0.1389
28037W        W43506  10.942   6.048  14.571 -0.0604 -0.0217  0.0593
28038W        W43507  13.561  18.215  12.166 -0.3300 -0.3240 -0.2693
28039W        W43508   0.115   4.002   5.974  0.1822 -0.0483 -0.2006
28040W        W43509   1.215  13.231  15.408 -0.5928  0.1208 -0.2059
28041W        W43510  15.101   3.583  13.328 -0.1171 -0.1269  0.3272
28042W        W43511  16.384   5.040  11.772 -0.0311  0.2483 -0.1574
28043W        W43512   9.739  17.677  15.270  0.0720 -0.0745  0.0203
28044W        W43513  15.985   2.114   5.165  0.0027 -0.1582 -0.2078
28045W        W43514  15.744   3.760  13.098  0.0739  0.1413  0.2834
28046W        W43515   2.984   1.323  13.781 -0.2346  0.2142 -0.1909
28047W        W43516   9.214   3.044   2.152 -0.1699  0.1581 -0.2162
28048W        W43517   0.570   4.496   5.358  0.0440  0.0360 -0.4006
28049W        W43518   7.374   9.393   1.643  0.1409 -0.1668 -0.0257
28050W        W43519  16.625   0.544  13.078  0.0813 -0.0978  0.0772
28051W        W43520   3.399   7.776  13.772 -0.2213  0.0836  0.1300
28052W        W43521  17.079   4.557  14.083  0.0674 -0.2769 -0.1276
28053W        W43522  16.117   2.832   3.602 -0.1058 -0.2808  0.0798
28054W        W43523  13.467   7.065   4.812  0.0515  0.2172  0.4895
28055W        W43524   1.040  16.809  11.925  0.0730  0.1456 -0.0701
28056W        W43525  11.233   0.647  15.993  0.0237  0.0120  0.1093
28057W        W43526  16.145  18.281  12.155 -0.0085  0.0924 -0.0903
28058W        W43527  13.829   4.208  10.780  0.0105 -0.1312  0.2185
28059W        W43528  16.420  16.162   4.399 -0.1607 -0.1716 -0.0402
28060W        W43529   9.237   6.310  11.289  0.1186  0.2427  0.1531
28061W        W43530   2.783   9.861   1.839 -0.0540 -0.1707 -0.0041
28062W        W43531   2.998  14.559   5.793 -0.1601  0.0416 -0.0425
28063W        W43532   5.821   4.154   1.061  0.0557 -0.0960 -0.4228
28064W        W43533   3.121   8.467   2.754 -0.3002  0.2265 -0.0710
28065W        W43534   4.765   0.933   2.404 -0.0251  0.0730  0.1424
28066W        W43535   8.051   7.711   5.752  0.0477 -0.0774 -0.0098
28067W        W43536  10.496  13.453   0.194 -0.1165  0.1744 -0.1876
28068W        W43537   6.986   9.658  12.207 -0.0270  0.0621 -0.1542
28069W        W43538  13.426   3.710   2.451  0.3225  0.0119 -0.2577
28070W        W43539  16.565  15.398   2.150  0.1206 -0.3041 -0.0141
28071W        W43540  16.232  11.113  14.876 -0.0611  0.1013 -0.2026
28072W        W43541  16.038  17.907  15.312  0.3644 -0.0195 -0.0055
28073W        W43542   2.283   7.559   1.576  0.0088  0.2049  0.0375
28074W        W43543  16.433   6.624   1.330 -0.0130 -0.1987 -0.2174
28075W        W43544   2.068  13.769   1.831 -0.4056 -0.0240  0.0275
28076W        W43545   8.956  15.239  12.286 -0.1515  0.1066  0.0457
28077W        W43546   9.511   3.678   2.860 -0.1000 -0.4385 -0.0121
28078W        W43547  16.132   0.419  15.509 -0.2244  0.0892 -0.0131
28079W        W43548   6.736   0.604   5.086  0.0138 -0.1262 -0.2208
28080W        W43549   3.672   6.768   0.149 -0.2134  0.0726 -0.0457
28081W        W43550   4.880   4.193  12.679  0.0357  0.0301  0.1111
28082W        W43551   9.221   7.675   2.216 -0.1695 -0.2044 -0.0656
28083W        W43552  14.071   5.693   5.104  0.2032 -0.0321  0.1093
28084W        W43553   2.702   5.315  15.373 -0.3379 -0.0957  0.1753
28085W        W43554  17.036  11.001  13.516 -0.1401  0.0731 -0.1933
28086W        W43555   1.582   8.896   2.528  0.1055 -0.1330  0.1014
28087W        W43556   4.642   5.374   5.900 -0.1616 -0.0168 -0.0126
28088W        W43557   7.592  15.924  10.210 -0.1309 -0.1419 -0.0127
28089W        W43558   1.753  11.664  12.109  0.0548  0.0193  0.0094
28090W        W43559   9.178  10.411   3.564 -0.2490  0.2119 -0.2153
28091W        W43560  10.795  10.560  15.533  0.1364 -0.0382 -0.2421
28092W        W43561   9.999   1.402   2.144 -0.0812 -0.1622 -0.0589
28093W        W43562  10.822  10.860  15.065 -0.0370  0.0543 -0.0255
28094W        W43563  10.541   3.152  11.544 -0.1379  0.0915 -0.2059
28095W        W43564  12.335  13.441   3.711 -0.2140 -0.0901  0.1759
28096W        W43565   8.165   8.552   1.010 -0.1386 -0.1028 -0.0796
28097W        W43566   0.998   1.140  11.798 -0.1664 -0.2141 -0.0412
28098W        W43567   4.931  12.878  14.825 -0.1183  0.3211  0.0653
28099W        W43568  13.521  15.980  16.151 -0.1235  0.2102 -0.0956
28100W        W43569   1.016   8.792  15.982 -0.0041  0.1074  0.3435
28101W        W43570  15.907   2.413   3.867 -0.1656  0.2376 -0.0805
28102W        W43571   9.368   8.918  11.429  0.2218  0.1531  0.0510
28103W        W43572   9.891  14.005  15.688  0.0930 -0.3030 -0.0503
28104W        W43573  11.777  11.420  15.247  0.1464  0.0039 -0.2146
28105W        W43574  11.494   8.356   2.158 -0.1432  0.3022  0.3170
28106W        W43575   9.406  15.517  12.598 -0.1671  0.0255 -0.1143
28107W        W43576  13.198   8.406   0.944  0.0271 -0.2023 -0.0478
28108W        W43577  11.978  16.497   5.607  0.2657  0.0248  0.0245
28109W        W43578   6.219   2.982  14.028  0.0559 -0.2209  0.0765
28110W        W43579  15.224  11.114  12.956 -0.2161  0.2188  0.1532
28111W        W43580  10.886  12.253  15.848  0.4624 -0.0972  0.0548
28112W        W43581  15.110   9.940   2.655  0.0780  0.2907 -0.0456
28113W        W43582   1.702  10.578   2.690  0.0735 -0.0082 -0.0352
28114W        W43583   5.652   0.283  13.494  0.2331 -0.1795 -0.0126
28115W        W43584  15.553   8.610  13.368 -0.3024  0.0290 -0.0689
28116W        W43585   3.902  14.854  10.543  0.0596 -0.0581  0.0803
28117W        W43586  14.249   1.502  15.568 -0.0996 -0.1263  0.2270
28118W        W43587   9.179  17.144  12.390  0.2623 -0.1136 -0.0078
28119W        W43588  15.346   5.878  15.630 -0.0254 -0.1196 -0.0194
28120W        W43589   3.054   6.870   6.324  0.0491 -0.2501 -0.4389
28121W        W43590  12.369  12.932   3.490  0.1332  0.1056  0.2441
28122W        W43591   4.388   2.534  12.594 -0.2457 -0.0258 -0.0411
28123W        W43592  11.364   4.323   2.704  0.0998 -0.0179 -0.1660
28124W        W43593  14.275  11.996   0.998  0.1074 -0.1237 -0.0684
28125W        W43594   1.413  12.220   2.280  0.2042 -0.2733  0.1790
28126W        W43595   4.755   8.498   0.542 -0.1411  0.2375 -0.0099
28127W        W43596   9.944  15.638   2.642  0.3600 -0.0517 -0.4596
28128W        W43597   2.161   5.156  11.748 -0.0629 -0.1153 -0.3202
28129W        W43598  15.541   7.053   4.436 -0.1093  0.0372  0.2711
28130W        W43599   6.145  13.019   0.152 -0.1904  0.1261  0.4044
28131W        W43600   8.077  13.275  13.764  0.0606 -0.1528  0.1567
28132W        W43601  17.276  13.455  12.360 -0.2467 -0.0066 -0.0711
28133W        W43602   8.948  15.228   0.053  0.2075 -0.0694 -0.0561
28134W        W43603   6.810   5.022  13.221 -0.1831  0.0460 -0.4833
28135W        W43604  14.624   7.816   4.797 -0.1312 -0.3771 -0.0646
28136W        W43605  16.217  15.164  12.332 -0.1993 -0.0064 -0.2953
28137W        W43606   0.860  16.551   2.439  0.0243  0.0858 -0.0797
28138W        W43607   0.128   3.920   3.224 -0.4341 -0.0872 -0.1326
28139W        W43608   1.479  16.270   1.630  0.0400 -0.1596 -0.3258
28140W        W43609   7.134   0.911  15.668 -0.2680 -0.1364 -0.1214
28141W        W43610   3.419   5.449  11.450 -0.1872 -0.1897  0.0095
28142W        W43611  17.507   3.319   2.814  0.0268  0.0520 -0.4459
28143W        W43612  17.532   9.985  11.339 -0.0745 -0.0424  0.2629
28144W        W43613   9.197  11.874   0.197 -0.2763 -0.1523 -0.0586
28145W        W43614  12.824  14.203   1.642  0.1873 -0.2818  0.0192
28146W        W43615   2.913   0.807  12.564  0.0409 -0.1029  0.0890
28147W        W43616  12.722  18.273  13.315  0.3155 -0.1813 -0.2886
28148W        W43617  15.631  12.859  13.193 -0.0341  0.1241 -0.0858
28149W        W43618   4.356   2.088   1.241 -0.1935  0.0125 -0.2199
28150W        W43619  16.072   5.178   5.020  0.1731 -0.1531  0.0278
28151W        W43620  10.155  13.947   1.534 -0.2565 -0.0015  0.0068
28152W        W43621   3.549  16.682  12.561 -0.1560 -0.1327  0.1748
28153W        W43622   7.409  13.305   3.295 -0.0449 -0.2921  0.2081
28154W        W43623   5.726   2.316  14.275  0.0660 -0.0601 -0.1625
28155W        W43624  12.964   7.800  15.841  0.2415 -0.1158 -0.1219
28156W        W43625  13.897  16.128  11.899 -0.0865  0.1735 -0.1686
28157W        W43626  16.758   1.403   3.965 -0.0026  0.0392 -0.1538
28158W        W43627   2.317  13.021  12.422  0.2240  0.0325 -0.0742
28159W        W43628   7.577   8.571  11.452 -0.0714  0.1598  0.0576
28160W        W43629   4.017   0.519   3.016  0.1366 -0.2186 -0.0328
28161W        W43630  15.077  11.489  11.696  0.3299  0.1707 -0.0248
28162W        W43631  15.549  17.439   4.180 -0.2470  0.0645 -0.0587
28163W        W43632  11.470   2.028   5.111  0.0893  0.0340 -0.3920
28164W        W43633   9.334  17.137   5.451 -0.1363  0.3016  0.1590
28165W        W43634  14.778   2.540  11.364  0.1481  0.0682  0.0593
28166W        W43635   4.267  16.140   1.036 -0.0370 -0.0276 -0.2446
28167W        W43636  17.384  11.964   1.859  0.0138  0.2354 -0.3619
28168W        W43637  13.315   2.811  10.768  0.1207 -0.2262 -0.0009
28169W        W43638  12.383  11.959  11.765 -0.0170  0.0191  0.2204
28170W        W43639   5.010   8.235   2.677  0.1463 -0.0515 -0.0440
28171W        W43640  16.739   5.954  14.792  0.0718 -0.1239 -0.1671
28172W        W43641   0.996   3.219  12.485 -0.1244 -0.0891 -0.3491
28173W        W43642   2.027  14.494   1.740 -0.0886  0.2562  0.0567
28174W        W43643   0.325  13.642   0.393 -0.0100 -0.1780 -0.3274
28175W        W43644   0.654  15.441   4.855  0.0166 -0.2464  0.2872
28176W        W43645   2.087  10.136   4.549  0.2949  0.0766 -0.2146
28177W        W43646  14.295   0.181   5.192 -0.1599  0.0386  0.0596
28178W        W43647   8.911   5.576   2.462 -0.4530  0.1399  0.2945
28179W        W43648   3.217  15.067   3.212  0.0763 -0.2312 -0.0203
28180W        W43649   5.415  10.836  14.207 -0.0746  0.0294  0.2743
28181W        W43650   9.146  15.701  12.126  0.0514  0.2483  0.0941
28182W        W43651   5.554   0.075  12.540 -0.0411  0.2289  0.1695
28183W        W43652   3.027   4.774   1.001 -0.4443 -0.3048  0.1055
28184W        W43653  18.275  13.122   0.712  0.1160 -0.1370  0.3928
28185W        W43654  16.432   1.366  12.773  0.0114 -0.0070 -0.1699
28186W        W43655  17.360  12.651   3.178 -0.0936  0.0438 -0.0102
28187W        W43656   5.597   7.939   3.365  0.0074  0.0813 -0.0217
28188W        W43657   8.414   2.739  13.444 -0.1195 -0.1165 -0.2354
28189W        W43658   3.538   6.980  12.505  0.0078 -0.0535 -0.2018
28190W        W43659   7.151  13.434   0.115  0.2983  0.1630  0.0581
28191W        W43660   5.252  15.850   4.617  0.0353 -0.0017 -0.0695
28192W        W43661  11.011   3.139   3.963  0.0504 -0.2520  0.0185
28193W        W43662  16.318   4.160   4.074  0.1829  0.2376  0.1624
28194W        W43663  16.591   4.316  14.719  0.0629 -0.1318 -0.3072
28195W        W43664   4.003   7.599   2.226  0.1194 -0.3173  0.3251
28196W        W43665  16.165  15.951   0.001  0.1323 -0.2210  0.1381
28197W        W43666   4.210   5.009  16.161  0.0849 -0.0461 -0.3016
28198W        W43667  11.798   8.962  14.094 -0.1445  0.1408  0.1618
28199W        W43668   3.818  12.093  12.250  0.2275 -0.0770 -0.0777
28200W        W43669  15.580  12.226   1.778  0.0265 -0.0057 -0.0571
28201W        W43670  13.907  11.706   5.230  0.2095  0.2030  0.1713
28202W        W43671  13.591   0.561   1.387 -0.1053 -0.0822  0.3960
28203W        W43672   2.895  13.176   1.748  0.2658 -0.2832 -0.1228
28204W        W43673  14.502  11.849  14.458 -0.1354 -0.0198 -0.1314
28205W        W43674   2.390   5.267  11.243 -0.0601 -0.0106  0.1346
28206W        W43675  17.544  16.929  11.951 -0.0678  0.2330  0.0826
28207W        W43676  13.242  16.708  14.071 -0.1009  0.1814  0.2340
28208W        W43677  17.952   1.257  13.921 -0.2610  0.1257 -0.1344
28209W        W43678   6.661  16.948  13.814  0.2370 -0.3356 -0.0997
28210W        W43679  11.686  15.680  12.906  0.3294 -0.0232  0.2765
28211W        W43680  12.791   7.481   0.551  0.2321 -0.4716  0.2198
28212W        W43681  17.592  10.887  12.313 -0.0896 -0.0728 -0.1110
28213W        W43682  12.255  10.801   0.891  0.1747 -0.1021 -0.2114
28214W        W43683  13.393  14.518   3.807 -0.0543 -0.0544  0.0961
28215W        W43684   5.498  12.624   1.987 -0.1046  0.2082  0.2195
28216W        W43685  12.566  16.624  10.321 -0.1499 -0.1512 -0.1833
28217W        W43686  15.467   9.720   4.607  0.3016 -0.1827  0.1658
28218W        W43687   1.872  17.257  13.893  0.0558 -0.0271  0.0387
28219W        W43688   6.414  10.147  15.557  0.1629 -0.1018 -0.1001
28220W        W43689  16.368  15.998   5.852 -0.2188 -0.5040  0.3302
28221W        W43690   8.063   2.079   1.344  0.4544 -0.1210  0.4637
28222W        W43691   5.084  15.583   1.290  0.0435 -0.2478  0.2625
28223W        W43692   1.718   4.329  11.873 -0.1408  0.3639 -0.1624
28224W        W43693  17.698   1.299   3.458  0.2730  0.1185  0.2992
28225W        W43694   2.002   1.881   1.626 -0.0338  0.1511 -0.0383
28226W        W43695  16.509  11.849   4.054  0.1327 -0.1538 -0.2884
28227W        W43696   3.340   2.165   4.067  0.1121  0.0451  0.0829
28228W        W43697  14.704   2.370  15.727 -0.1331  0.1003  0.0004
28229W        W43698   5.704  16.239  12.757 -0.2826  0.2630  0.4024
28230W        W43699  18.023  14.747  12.809 -0.2232  0.1058 -0.1778
28231W        W43700   3.545   5.303   2.419  0.3991  0.0980 -0.0781
28232W        W43701   9.387   3.549   5.092  0.2332  0.0118 -0.4705
28233W        W43702  16.812   1.678  12.715  0.0993  0.0870  0.0198
28234W        W43703   0.607  11.555   1.248  0.1629 -0.0026  0.1228
28235W        W43704  11.472   0.187  14.595 -0.3057  0.2873  0.0386
28236W        W43705  16.848   1.449   2.157  0.0794  0.1364  0.0030
28237W        W43706  10.915  13.375   2.018 -0.0439 -0.2268  0.0149
28238W        W43707   4.182   0.517   5.180  0.1810 -0.0993  0.0521
28239W        W43708  10.574  12.486  15.398  0.1805  0.1525  0.1845
28240W        W43709   4.096   0.692  14.443  0.1045 -0.1101 -0.1131
28241W        W43710   3.717  12.430  16.096 -0.1243 -0.0031  0.2619
28242W        W43711   2.127   0.112  12.979 -0.0270 -0.2861 -0.0323
28243W        W43712  15.201  11.731  12.629 -0.0005 -0.0240  0.2534
28244W        W43713  11.108  13.727  14.031 -0.0194 -0.1439  0.1354
28245W        W43714   3.310   7.728  13.177  0.3210 -0.0474  0.0710
28246W        W43715  10.223   8.959  12.073  0.0669  0.0866 -0.3195
28247W        W43716   2.172   0.654  15.152 -0.0790  0.1522 -0.3231
28248W        W43717   0.951   9.241  15.815 -0.1343  0.1241  0.0059
28249W        W43718   0.698   7.959   0.478  0.2244  0.1250 -0.0902
28250W        W43719  17.912   8.917   3.451 -0.0753 -0.1523  0.1326
28251W        W43720   2.008  16.815  14.110 -0.2025  0.0323  0.0463
28252W        W43721   6.756  11.414  16.002  0.2124  0.0162  0.4974
28253W        W43722   7.318   0.089   4.159  0.1282 -0.3589  0.0256
28254W        W43723   1.180   2.346  15.627  0.1036  0.1131 -0.0481
28255W        W43724   9.394   5.052  14.458  0.2394 -0.0906 -0.0970
28256W        W43725  13.951   7.792  11.985 -0.3275 -0.0938 -0.1902
28257W        W43726   6.492   1.667  14.367 -0.0836 -0.2279  0.0264
28258W        W43727   8.022   1.225  12.037 -0.1796 -0.0449  0.0049
28259W        W43728   4.267  15.530  16.108  0.0969 -0.1997  0.0139
28260W        W43729  14.177  12.458   4.569  0.0260  0.0614  0.0815
28261W        W43730  16.761   8.265  10.971  0.3510  0.2151 -0.0181
28262W        W43731   4.216   7.431  13.240  0.2256 -0.1162  0.2418
28263W        W43732  15.775   9.497  14.036  0.1710  0.1613  0.0274
28264W        W43733   5.364  13.057  15.959 -0.4668 -0.1393  0.0268
28265W        W43734   5.926  16.782   0.168  0.0875  0.1361  0.1662
28266W        W43735   6.962  10.153   4.584  0.0740 -0.1463 -0.0069
28267W        W43736   5.577   6.544  12.406 -0.0444  0.2473  0.0351
28268W        W43737  17.205   4.653  15.416 -0.3923  0.3374  0.3478
28269W        W43738   4.085   4.557   3.795 -0.0545 -0.1453  0.0272
28270W        W43739  10.662  15.529  12.667  0.1221  0.0346  0.2529
28271W        W43740  10.163  10.160   5.398 -0.4165  0.4048  0.0823
28272W        W43741   7.283   9.322   5.379  0.0596  0.0746 -0.0497
28273W        W43742  11.545   8.419  11.942  0.1987 -0.1919  0.0167
28274W        W43743   0.389   8.636  10.581  0.1882 -0.1666 -0.2079
28275W        W43744   4.698  11.440   3.838 -0.1958 -0.4225  0.1431
28276W        W43745   7.598  10.693   4.318  0.0935 -0.1295  0.1480
28277W        W43746  17.411  10.212  16.147 -0.0709  0.2962 -0.1346
28278W        W43747   1.097  12.618  11.136  0.0323 -0.1148  0.0358
28279W        W43748  13.904  13.920  14.397 -0.0568 -0.0265 -0.7122
28280W        W43749   9.848  11.811   3.323  0.1239  0.0035  0.0547
28281W        W43750   4.603  15.160  16.012 -0.2484 -0.0492  0.0657
28282W        W43751  15.136  15.376   2.600 -0.2045  0.2108  0.1351
28283W        W43752  11.532  17.831  15.809  0.0653 -0.1864 -0.1602
28284W        W43753  11.192  11.903  14.490 -0.1456  0.0942  0.1267
28285W        W43754  17.439   5.110  13.343 -0.0116  0.1333 -0.0386
28286W        W43755  10.953  10.064   5.938 -0.0125 -0.1868 -0.0091
28287W        W43756   3.285   4.879   3.785 -0.1339 -0.1403 -0.3483
28288W        W43757   3.582   8.021   3.852 -0.1850 -0.0724 -0.2968
28289W        W43758  16.434   6.608  14.343  0.1910  0.2964 -0.1253
28290W        W43759  14.421   9.371  14.226  0.0456  0.1500  0.2473
28291W        W43760   8.676  15.044  15.291 -0.1019  0.2181  0.0427
28292W        W43761  12.196   8.620   0.942 -0.1101 -0.2942 -0.3650
28293W        W43762   7.745   7.201  13.483 -0.0380  0.0863  0.1434
28294W        W43763   4.209  10.867  11.796  0.0246  0.2532 -0.0308
28295W        W43764   7.106   9.864  14.892  0.1672  0.2169 -0.1830
28296W        W43765  15.967  17.650   4.286  0.0332  0.0824  0.1052
28297W        W43766  11.536  13.156  12.355  0.2897  0.0808  0.1228
28298W        W43767   3.237   1.731  12.355  0.4149 -0.0447 -0.2383
28299W        W43768   3.716  12.568  15.516 -0.2257  0.0655  0.2338
28300W        W43769   3.848  14.765   1.280  0.0574 -0.0749 -0.0706
28301W        W43770   4.157  15.557  12.756  0.1278  0.2076 -0.2479
28302W        W43771   4.571  12.635  11.672  0.0914  0.0977 -0.0020
28303W        W43772   9.822   2.099   0.502 -0.0790 -0.2172  0.2977
28304W        W43773   6.126   6.525   4.823 -0.0755 -0.3841 -0.0645
28305W        W43774  13.829   2.730   2.100  0.3146  0.0192 -0.1229
28306W        W43775   8.785  16.039  12.175 -0.1903 -0.1058  0.4391
28307W        W43776  14.061   2.626  10.229 -0.2693  0.1344  0.2486
28308W        W43777   0.532   6.642  14.488  0.0933  0.2146 -0.0507
28309W        W43778  16.509  12.661  12.100  0.2960 -0.1069  0.4481
28310W        W43779  15.057  12.368  11.122 -0.0568  0.2067 -0.2001
28311W        W43780  12.141   4.747  13.989  0.2795 -0.1446  0.2738
28312W        W43781  10.002   9.297  10.904  0.0852  0.1399  0.1166
28313W        W43782   9.815  10.990  15.211  0.1613  0.2165 -0.1527
28314W        W43783   4.450  12.363  10.498 -0.3481  0.0492 -0.1269
28315W        W43784   0.978  12.186  10.985 -0.1471 -0.2293  0.0473
28316W        W43785   7.044   7.522   5.205 -0.1461 -0.0033  0.4150
28317W        W43786  13.573   1.777   4.528  0.0299  0.2508  0.0082
28318W        W43787   8.012  14.365  15.255 -0.1142  0.3382  0.0637
28319W        W43788   0.588   1.092   2.941  0.0654  0.0078 -0.0876
28320W        W43789  13.896  13.235   5.947  0.2742  0.1439  0.1664
28321W        W43790   4.685  14.983  11.775  0.0294  0.1442 -0.1516
28322W        W43791   0.027   2.267   4.588 -0.1646  0.1476 -0.4607
28323W        W43792   3.060   3.208   5.896  0.2160 -0.1743  0.2103
28324W        W43793   2.596   7.047  15.632  0.0538  0.1402 -0.1992
28325W        W43794   3.386   5.388   3.720 -0.0917 -0.1723 -0.0093
28326W        W43795  12.543  17.787  13.269  0.1022  0.0456 -0.0732
28327W        W43796   3.619  10.236  15.473  0.2136  0.3066 -0.0953
28328W        W43797   0.208   3.081  11.174 -0.2086  0.1496 -0.0249
28329W        W43798   7.582  16.574  12.658 -0.3816  0.0644 -0.1098
28330W        W43799  10.884  12.265  14.574 -0.0668 -0.0093  0.0052
28331W        W43800   7.890   7.727   5.054 -0.0691  0.3097 -0.1133
28332W        W43801  15.171   1.774   5.323 -0.2108  0.0883 -0.0444
28333W        W43802   9.136  11.777   1.205 -0.0312 -0.2172  0.0534
28334W        W43803  10.574  11.710   1.187 -0.1697  0.2950  0.1438
28335W        W43804   0.834   8.788   4.494  0.1708 -0.0840 -0.0388
28336W        W43805   8.876  11.417  13.679 -0.1905 -0.1944  0.1818
28337W        W43806   0.662  12.677   0.841  0.0314  0.0962 -0.2219
28338W        W43807  11.404   7.703  12.588  0.0770  0.1143  0.0982
28339W        W43808  16.947   5.229   3.429 -0.1838 -0.1551 -0.3774
28340W        W43809   7.276   5.504   5.030  0.1743 -0.3929 -0.0055
28341W        W43810   7.799   4.344   0.282 -0.0739  0.0398  0.0949
28342W        W43811   6.151   8.673   3.768 -0.3064  0.0956  0.2982
28343W        W43812   5.663  16.454   3.081 -0.2463 -0.0709 -0.0151
28344W        W43813   5.900   3.145   5.476  0.1997 -0.1020  0.2215
28345W        W43814   2.722  11.108  11.388 -0.0149  0.0570 -0.0442
28346W        W43815   2.101   0.445  15.990  0.1032 -0.2244  0.0668
28347W        W43816  18.202  14.184  12.117  0.0164 -0.1585  0.2716
28348W        W43817  16.906   9.992   2.918  0.2556 -0.1191 -0.0584
28349W        W43818   4.397  14.405  15.028 -0.0941 -0.0292 -0.1743
28350W        W43819   7.162   1.971  15.396  0.1901  0.0405 -0.2034
28351W        W43820   9.095  13.261   2.123  0.1608  0.1810 -0.1562
28352W        W43821   7.097  18.233   5.133  0.0592  0.0844  0.0253
28353W        W43822   7.115   5.029   0.586  0.3817 -0.0900 -0.1220
28354W        W43823   6.209   9.039  11.940  0.2849 -0.0257 -0.1059
28355W        W43824  16.617  16.603  15.215 -0.1652  0.0261  0.0716
28356W        W43825   8.348  12.962   0.877 -0.1071 -0.1582  0.2634
28357W        W43826  11.557  10.529   3.299 -0.2548  0.0756  0.0110
28358W        W43827  17.070   5.514  14.984 -0.0599 -0.2550 -0.0478
28359W        W43828  17.967   0.926   1.036 -0.1963  0.0193 -0.0717
28360W        W43829   1.054  15.892  12.033 -0.1914  0.1081 -0.3045
28361W        W43830  14.503  14.350  15.119 -0.0196  0.4623  0.0809
28362W        W43831   5.768   9.883   2.447  0.1742  0.1150  0.2068
28363W        W43832   6.748   5.519   5.488 -0.1690 -0.1144 -0.0421
28364W        W43833  11.105   6.240  15.097  0.1463 -0.3097  0.2323
28365W        W43834   4.975   2.842  13.896 -0.1922 -0.3316 -0.2032
28366W        W43835  15.428  11.126  15.802 -0.1867  0.0577  0.1847
28367W        W43836  10.992  17.441  12.671  0.5420  0.1481 -0.1528
28368W        W43837   5.027   5.408   3.039 -0.1371  0.0420 -0.2645
28369W        W43838   8.004   0.242   0.719 -0.0802 -0.0899 -0.0266
28370W        W43839   8.215   2.872   5.335  0.2879 -0.1913  0.2759
28371W        W43840  17.937  16.780   2.811 -0.0644  0.3043 -0.1135
28372W        W43841   6.747   3.111  15.895 -0.0371 -0.2172 -0.1289
28373W        W43842   4.317   2.642  10.013  0.1110  0.0349 -0.1338
28374W        W43843   5.751  17.127   0.523  0.2163 -0.1376 -0.0706
28375W        W43844  12.969   2.043  11.273 -0.0893  0.1411 -0.2194
28376W        W43845  10.116  13.205   4.582  0.2150 -0.1554  0.0439
28377W        W43846   7.498  17.383  15.649 -0.1528 -0.0338  0.1482
28378W        W43847   7.502  15.835  11.099 -0.0247 -0.0706  0.1957
28379W        W43848   9.638  17.424   6.227  0.1302  0.1555 -0.1579
28380W        W43849  12.229   3.669   4.559  0.1612 -0.0507  0.2772
28381W        W43850  12.369   6.084  14.812 -0.0374  0.2524 -0.1184
28382W        W43851   8.614   8.237  14.312 -0.1519 -0.1140 -0.1690
28383W        W43852   9.678  11.834  15.195 -0.0005 -0.2858 -0.0631
28384W        W43853  16.201  10.860   2.795  0.3190 -0.0291  0.0729
28385W        W43854   0.132  14.716  14.125 -0.0034  0.2496 -0.2119
28386W        W43855  13.084   8.161  15.083 -0.3338 -0.1329 -0.1591
28387W        W43856   2.530  14.695   1.860  0.2549 -0.1503 -0.1461
28388W        W43857  17.528   9.283  12.215  0.0902 -0.1029 -0.3243
28389W        W43858  16.216  17.676   3.067  0.0995  0.0799 -0.0124
28390W        W43859   1.088  16.975   2.232 -0.4164  0.2527  0.1594
28391W        W43860   7.345  15.108  16.079 -0.1250  0.1767  0.3556
28392W        W43861   5.194   1.570  14.644 -0.0597  0.0306 -0.0333
28393W        W43862   8.198  12.009  14.030  0.2295 -0.1638  0.0882
28394W        W43863  12.002   7.792  11.233 -0.0329  0.0298 -0.3390
28395W        W43864   8.185  18.079  13.077  0.2454  0.2277 -0.1149
28396W        W43865   4.047   4.383   5.646 -0.0492 -0.2086 -0.0847
28397W        W43866   8.160   1.914  13.041 -0.1947  0.0166 -0.3601
28398W        W43867   1.612   9.422   1.382 -0.2499 -0.0321 -0.1787
28399W        W43868   6.627  17.746   3.668  0.2737  0.3576  0.1348
28400W        W43869  17.089   3.859  11.678  0.1703  0.1615 -0.1155
28401W        W43870  11.087  10.034   4.274 -0.1457  0.0856 -0.2319
28402W        W43871   8.028  14.068  11.122 -0.2153  0.1870 -0.1361
28403W        W43872  11.854  10.683  14.782 -0.2149  0.0106  0.1279
28404W        W43873   6.019  11.515   1.545 -0.1763 -0.3569  0.0437
28405W        W43874   2.359  12.325  11.552  0.2639  0.2162 -0.0528
28406W        W43875  12.642   7.673  12.066  0.1442  0.0342  0.0733
28407W        W43876  10.783   6.957  15.549 -0.2610  0.0650  0.0314
28408W        W43877  15.118  17.641  14.578 -0.2400  0.0255  0.0816
28409W        W43878   2.125   0.327   0.793  0.0600 -0.3447  0.2007
28410W        W43879   9.550  12.568   3.098 -0.1655 -0.1663  0.2324
28411W        W43880  14.658  14.051   3.080 -0.0856  0.0251  0.1394
28412W        W43881  13.646   5.413  13.890  0.0481 -0.0253 -0.0560
28413W        W43882  12.099  10.822  11.062 -0.0810 -0.2148  0.1958
28414W        W43883  14.514  13.317  15.675 -0.1192 -0.2288 -0.0751
28415W        W43884  12.446  14.363  12.900  0.4761 -0.0353  0.1803
28416W        W43885   5.939  16.449  11.075  0.1242 -0.1442  0.2350
28417W        W43886   2.563   5.340   4.469 -0.0706 -0.0836  0.1114
28418W        W43887   2.392   2.328   2.949  0.0458  0.1243 -0.0193
28419W        W43888   6.652  10.066  14.854 -0.0490 -0.1770  0.1361
28420W        W43889  11.063  10.534   4.386  0.0414 -0.0204 -0.0546
28421W        W43890  13.266  10.256   6.099 -0.1661 -0.3069 -0.0832
28422W        W43891   3.671   6.545  11.593 -0.0366 -0.1381 -0.0518
28423W        W43892  11.808  17.653   0.632 -0.1271  0.1479  0.0577
28424W        W43893   4.221  11.856  10.492 -0.1301  0.0476 -0.0088
28425W        W43894  14.369  12.239  15.870  0.0116 -0.0152  0.2069
28426W        W43895   9.382   9.696  15.039 -0.1521  0.0653 -0.0642
28427W        W43896   4.955   3.226   4.413 -0.2174 -0.1918 -0.2113
28428W        W43897   9.493   9.582   4.761 -0.0629 -0.2948  0.2093
28429W        W43898   5.606   5.687  14.692  0.0749  0.3009  0.0229
28430W        W43899   8.025  14.823   0.076 -0.1040 -0.0409 -0.2125
28431W        W43900  17.557   3.663  15.436 -0.1177  0.0734  0.3671
28432W        W43901   1.200   6.092  11.141 -0.2417 -0.4593  0.0616
28433W        W43902   0.628  10.575   5.520  0.2602  0.0164 -0.0763
28434W        W43903   0.450  13.124   1.460 -0.1863  0.1737 -0.1618
28435W        W43904   5.071   0.358  11.071 -0.1378 -0.0753  0.0173
28436W        W43905   2.199   4.707  12.241  0.1317  0.1165  0.0171
28437W        W43906   4.416  12.140  14.787 -0.2891 -0.1364  0.1055
28438W        W43907   2.282   3.116   0.294 -0.3065 -0.0324  0.1848
28439W        W43908   5.648   8.098   0.832 -0.1018 -0.3544 -0.2708
28440W        W43909   1.608  17.857  14.939  0.2469  0.0339 -0.2017
28441W        W43910  11.756  17.143  14.492  0.2994 -0.1543 -0.0733
28442W        W43911  17.019  13.444   1.892  0.0458 -0.0766  0.1503
28443W        W43912   4.466   6.986  12.835  0.2245  0.0765  0.0283
28444W        W43913  17.528  12.441  14.666  0.1342 -0.1601 -0.0564
28445W        W43914  13.051  11.016   0.430 -0.1358  0.0979  0.2580
28446W        W43915  12.219   1.041   2.801 -0.1803  0.1763 -0.0482
28447W        W43916   3.831   8.526  15.673  0.2080  0.2185  0.1513
28448W        W43917  17.883  18.020   3.117  0.0527  0.0742  0.1268
28449W        W43918  15.135   6.544  10.712 -0.0450  0.3631 -0.0617
28450W        W43919  17.691   8.619  11.927 -0.3568  0.0258 -0.2751
28451W        W43920  13.784  16.203   4.785  0.0118  0.1267 -0.2091
28452W        W43921   5.976  14.678  10.491 -0.2374 -0.4342  0.1879
28453W        W43922   2.721  16.315  15.617  0.2640 -0.3344  0.2482
28454W        W43923  16.988  15.270   4.655 -0.2243 -0.0084  0.2380
28455W        W43924   4.075  16.251  14.318 -0.0523  0.0228  0.0937
28456W        W43925  12.505   2.998  13.862 -0.0937  0.2642  0.3196
28457W        W43926   5.253   1.642  13.085 -0.3280 -0.1737 -0.0519
28458W        W43927  15.807  14.550  15.690 -0.0182 -0.0790  0.3376
28459W        W43928  17.064   3.627  15.421  0.0604  0.2054 -0.3528
28460W        W43929   4.622   2.463   0.582  0.0558 -0.0015  0.1493
28461W        W43930  12.149  17.485   1.538 -0.1424  0.0618  0.1955
28462W        W43931   7.076  17.531   4.403 -0.1317 -0.2179  0.0166
28463W        W43932  10.698  11.254  12.103 -0.1462 -0.2170  0.2858
28464W        W43933  15.129   1.193   5.352 -0.0380  0.1775 -0.2864
28465W        W43934   8.366   7.624   0.056 -0.0030  0.1143  0.1417
28466W        W43935   7.358  10.365   0.785  0.1027  0.1408 -0.1836
28467W        W43936  10.733  15.003   5.137  0.1463 -0.0226  0.2535
28468W        W43937   1.416  11.551   0.973 -0.2309  0.1041  0.0103
28469W        W43938   3.679  13.960  13.408  0.1183  0.0154  0.1106
28470W        W43939   6.163   0.503   1.901  0.0376 -0.0902 -0.0906
28471W        W43940   1.194   9.876   0.267  0.2789  0.1320 -0.0245
28472W        W43941  11.320  10.676  14.933 -0.1233  0.3358 -0.5140
28473W        W43942   0.077   0.918  14.751  0.0255 -0.1939 -0.0079
28474W        W43943   8.016   4.398   3.399  0.2264  0.0605 -0.0202
28475W        W43944  11.636   6.770   3.161  0.1370  0.0379  0.1410
28476W        W43945   5.225  13.224  13.100 -0.1476 -0.3059  0.4685
28477W        W43946  16.752   7.211  11.403  0.1621 -0.2175  0.2451
28478W        W43947   8.435   5.132  13.783 -0.0334  0.3772 -0.0279
28479W        W43948  15.986  10.694  14.969 -0.0205 -0.0362 -0.3244
28480W        W43949   0.085   4.385  13.979 -0.1152 -0.0741  0.0674
28481W        W43950  12.066   7.231  11.935 -0.2983  0.2678 -0.1437
28482W        W43951   7.629   3.521   4.133 -0.0732  0.3223  0.1449
28483W        W43952   1.721  14.394   0.752 -0.0235 -0.2675 -0.0747
28484W        W43953   3.393  15.724   1.207 -0.0289 -0.0571 -0.0718
28485W        W43954   3.389  15.451   1.812 -0.0689 -0.0479 -0.2036
28486W        W43955   5.328  16.222   2.357  0.1634 -0.1066  0.1648
28487W        W43956  14.841  15.451  14.074 -0.2610 -0.1443  0.1676
28488W        W43957  11.853  16.151  13.190 -0.0582 -0.0838 -0.0073
28489W        W43958  11.084  10.740  12.731  0.0720  0.0080 -0.1486
28490W        W43959   4.410   4.734   2.168 -0.2093  0.1259 -0.0580
28491W        W43960  14.404   5.529   2.345 -0.0237  0.0680 -0.0226
28492W        W43961  16.131  16.827   5.301  0.0694  0.0580 -0.1530
28493W        W43962   4.936  12.475  10.704 -0.3328  0.2737  0.1050
28494W        W43963   1.426  17.729  13.277  0.2465 -0.0273  0.0683
28495W        W43964  12.018  14.077   2.803  0.0045  0.1783 -0.0665
28496W        W43965   6.657   7.972   5.875 -0.0572  0.3414  0.1973
28497W        W43966   4.677   7.959   1.547 -0.3431  0.1632  0.0153
28498W        W43967   0.086   5.467  13.195  0.0812  0.1373  0.1571
28499W        W43968  12.857   8.787   0.571 -0.1521  0.3363  0.0299
28500W        W43969  10.840   9.257  13.846  0.2186  0.0649  0.1731
28501W        W43970   2.789   4.829   5.319  0.2205  0.0288 -0.0254
28502W        W43971   9.972  11.200  12.864  0.2833  0.1447  0.1465
28503W        W43972   3.108  17.882   4.767 -0.0822  0.0209 -0.0636
28504W        W43973  16.877   3.364   3.980 -0.2642  0.0945  0.1942
28505W        W43974  12.560   4.949  11.154 -0.0367 -0.0842 -0.0384
28506W        W43975  13.344   0.448  10.757 -0.1174  0.1741 -0.1820
28507W        W43976   7.729  15.834   1.040 -0.0683  0.1178 -0.0564
28508W        W43977   2.455  18.001   4.326 -0.0103  0.0440 -0.0415
28509W        W43978   7.677   7.136   2.316  0.1564 -0.2609 -0.1395
28510W        W43979  10.689  11.739  16.160  0.2156 -0.2590 -0.1493
28511W        W43980   9.671  17.244  10.684 -0.3206  0.0493 -0.3050
28512W        W43981   5.675   8.749   3.795 -0.1501 -0.4426 -0.3567
28513W        W43982  16.244  13.058   2.650 -0.1052 -0.1345 -0.0355
28514W        W43983  17.586   3.850  11.857  0.2857  0.2650 -0.1775
28515W        W43984   4.094  15.111   2.767  0.3436 -0.6163 -0.0586
28516W        W43985  11.714  11.423   2.147 -0.1334  0.1451  0.3900
28517W        W43986   0.787  13.568   0.401 -0.4346 -0.1918  0.0017
28518W        W43987   3.862  15.852   0.846  0.0683  0.1881 -0.1160
28519W        W43988   1.584   7.213   4.669 -0.0629 -0.3189  0.1336
28520W        W43989   8.586   6.933   5.853  0.1343  0.0139  0.0145
28521W        W43990  15.922  16.466  15.815  0.0307 -0.0868 -0.0158
28522W        W43991   2.184   1.778  12.285  0.1816  0.1270  0.0759
28523W        W43992  13.196  18.232  14.569 -0.2317 -0.3497 -0.0533
28524W        W43993   1.633  10.534  15.024 -0.0293 -0.0481 -0.1665
28525W        W43994   9.105  14.730   3.098 -0.3897  0.0364  0.1778
28526W        W43995   0.239   9.462  14.748  0.3628  0.2143  0.4271
28527W        W43996   0.056   5.810   5.074  0.1344 -0.1045 -0.0455
28528W        W43997  18.059   8.832   5.610 -0.2268  0.0474  0.2484
28529W        W43998   9.921  16.669  12.607  0.4329 -0.0931  0.0126
28530W        W43999  13.868  16.189   1.810  0.0655 -0.1134  0.1978
28531W        W44000  17.716   9.822  14.365 -0.0650  0.0336 -0.0349
28532W        W44001   1.188   8.062   1.114  0.0466  0.2198 -0.0262
28533W        W44002   3.464   4.479  11.623 -0.0473 -0.2511  0.0112
28534W        W44003   5.855  14.147  14.551  0.0261 -0.0618 -0.1748
28535W        W44004   9.549  17.114   2.108  0.0542  0.2495 -0.1403
28536W        W44005  17.492   5.519  10.219  0.2099 -0.0195  0.2117
28537W        W44006   0.191   7.197   1.259  0.0776 -0.0774 -0.2597
28538W        W44007   3.357   5.884  11.218  0.2461 -0.4828  0.1389
28539W        W44008  16.190  11.241  12.947 -0.0816 -0.1870  0.2457
28540W        W44009   8.749   8.271  15.270  0.3081  0.1690 -0.0498
28541W        W44010  12.521   1.414   2.984  0.2199  0.1792  0.0726
28542W        W44011   3.165   5.086   1.776 -0.3274  0.1272 -0.2612
28543W        W44012   0.283  15.104  14.564 -0.1077 -0.1514 -0.3142
28544W        W44013  10.985  17.077   4.722 -0.3085  0.2119 -0.1439
28545W        W44014  18.040  16.847  11.842 -0.1183 -0.0620  0.2634
28546W        W44015  12.279   1.944   0.731 -0.1940  0.0203 -0.0702
28547W        W44016   6.377   8.804  10.089 -0.0601 -0.1464  0.1690
28548W        W44017  16.417   2.291  14.308  0.3827 -0.1610 -0.3579
28549W        W44018   5.228   5.861  15.577 -0.3230  0.1446 -0.1508
28550W        W44019   8.413   2.857   4.180  0.0583  0.2038  0.0118
28551W        W44020   4.183   0.967  11.213 -0.1449 -0.0227  0.2345
28552W        W44021  15.207   1.790   4.357 -0.0817 -0.0080 -0.0879
28553W        W44022   3.747  14.171  15.809 -0.0393  0.0473  0.0325
28554W        W44023  10.264  12.508  10.845 -0.1539 -0.3132 -0.3228
28555W        W44024   9.974   7.700   2.490 -0.0307 -0.0987  0.0220
28556W        W44025  14.607   5.306   0.592  0.0598 -0.3127 -0.2262
28557W        W44026  10.972  14.722  12.378 -0.0136  0.3563  0.1152
28558W        W44027  15.752   5.611  15.821 -0.5623 -0.1259 -0.5280
28559W        W44028   6.378  13.095   9.695 -0.0815 -0.1229  0.1782
28560W        W44029  10.947   4.569  15.953  0.2524 -0.0875 -0.1528
28561W        W44030  14.782  17.269  12.903 -0.0958 -0.3067 -0.0146
28562W        W44031   8.131  10.753   4.270 -0.2169  0.0838  0.0162
28563W        W44032   2.594  17.864  14.336  0.0364 -0.1068  0.1922
28564W        W44033   2.333  11.266   0.104 -0.0539 -0.3119 -0.1025
28565W        W44034  10.337  12.807   3.677 -0.2074  0.1517  0.3476
28566W        W44035  11.029   8.512   4.901 -0.0618 -0.1929  0.0039
28567W        W44036   7.695   8.135   4.764 -0.0023  0.0285 -0.2755
28568W        W44037   8.722   5.420  15.009  0.0805 -0.0255  0.0192
28569W        W44038  13.282   3.668   5.708 -0.1925  0.4778  0.3090
28570W        W44039  10.454  10.132   3.590 -0.0268 -0.0036  0.0790
28571W        W44040  11.307   1.736  12.706 -0.1344  0.2002  0.0489
28572W        W44041   6.753   0.311  12.890  0.0276 -0.0473  0.0916
28573W        W44042   3.933   3.029   5.881  0.1603 -0.2181 -0.1262
28574W        W44043   2.382   7.242   3.459  0.0165  0.2973 -0.3718
28575W        W44044  15.596  16.249   3.680  0.0105  0.3456  0.1858
28576W        W44045  13.546  13.366  12.021  0.2393 -0.0127  0.0779
28577W        W44046  13.814   6.945  12.463  0.0580  0.0407 -0.1676
28578W        W44047  14.342   9.101  12.388 -0.2565  0.1580  0.2675
28579W        W44048   4.861  14.354   0.293 -0.2241  0.2579  0.0690
28580W        W44049  11.102  13.271   1.097 -0.4893  0.2686  0.4302
28581W        W44050   7.681  10.446  12.118  0.0933 -0.1066 -0.0756
28582W        W44051   9.054  11.065   2.821 -0.1301  0.0993 -0.0603
28583W        W44052  13.579  16.776  11.550  0.0257 -0.1488 -0.0372
28584W        W44053   3.239   5.377   5.676 -0.1367 -0.1586  0.0811
28585W        W44054  15.111   1.886  12.228  0.1134 -0.0637  0.2618
28586W        W44055  15.456  16.703  11.856 -0.0623  0.6149 -0.2097
28587W        W44056   9.580  12.563  15.061 -0.0558  0.0119 -0.2202
28588W        W44057   1.105  13.224  13.722 -0.2194  0.1265 -0.0090
28589W        W44058  12.895   4.776  10.698  0.0160  0.0869 -0.3562
28590W        W44059  16.560  14.432   6.247  0.0016  0.3561 -0.1906
28591W        W44060   5.636   4.064  12.094  0.1340 -0.2944 -0.2525
28592W        W44061   0.805   6.465  16.002  0.0181  0.0081 -0.0855
28593W        W44062   7.159   7.641  15.503 -0.0662 -0.2099 -0.1044
28594W        W44063  10.664   5.689  14.114 -0.0412 -0.1288 -0.0581
28595W        W44064   4.369   3.917  13.363  0.1387 -0.0214 -0.2295
28596W        W44065   4.909  13.849  14.104 -0.2618  0.0364  0.2591
28597W        W44066   6.462   4.897   1.211 -0.3348 -0.3181  0.0214
28598W        W44067  11.316  12.114  12.479 -0.0961 -0.0336 -0.2330
28599W        W44068   2.506   3.010  16.027  0.0170 -0.0494 -0.3354
28600W        W44069   3.771   2.844  12.047  0.1292  0.0737  0.0293
28601W        W44070  12.416  13.663  11.341 -0.0256  0.0262 -0.1938
28602W        W44071  15.155   6.444  13.628  0.0628 -0.0886 -0.0652
28603W        W44072   7.486  17.727  14.570 -0.1897 -0.1010  0.1633
28604W        W44073  17.784   7.991   2.949 -0.2025 -0.1532 -0.2442
28605W        W44074   1.107  11.986  14.053 -0.1685 -0.1166  0.1291
28606W        W44075   6.620   0.034  14.528  0.0846  0.0825  0.0565
28607W        W44076   7.028  12.461  11.158 -0.3113  0.3015  0.0298
28608W        W44077  15.876   9.097   3.259  0.2044  0.1385 -0.0736
28609W        W44078  15.951   0.008  11.293  0.0691  0.0010  0.2609
28610W        W44079  17.248   9.221   5.618  0.0729  0.0899 -0.1938
28611W        W44080   7.358  17.311   5.195 -0.2415  0.1674  0.0449
28612W        W44081   0.801   9.674  11.530 -0.0145 -0.1112 -0.3096
28613W        W44082  16.222  12.828   2.056 -0.0164 -0.0636  0.3263
28614W        W44083   2.532   4.221   0.491  0.0976  0.5051 -0.1438
28615W        W44084   5.862  17.601   2.776 -0.3382 -0.0739 -0.0392
28616W        W44085   4.443   4.047  11.777  0.1687  0.0558 -0.0771
28617W        W44086   1.725  17.136   4.622  0.6128 -0.1791 -0.0199
28618W        W44087  14.743   5.802  11.901 -0.0127 -0.0008  0.1031
28619W        W44088   6.392  14.509   2.383 -0.1591  0.1310 -0.0832
28620W        W44089   2.602  15.338   1.353  0.2899  0.0486 -0.0169
28621W        W44090   4.916   7.512  11.328  0.1042 -0.0428 -0.0975
28622W        W44091   1.297   6.747  14.275  0.0117 -0.0838 -0.1892
28623W        W44092   9.079  11.855  11.819  0.0402  0.0255 -0.0173
28624W        W44093   8.493  10.384  13.210  0.1819  0.0202 -0.0560
28625W        W44094   2.779  15.413  14.778  0.2777  0.1832  0.0098
28626W        W44095   1.363   3.483  12.229 -0.0442  0.4211 -0.1200
28627W        W44096  16.391   0.009  11.687 -0.1546 -0.0377 -0.0808
28628W        W44097   3.293   7.782   4.907 -0.2443 -0.0956  0.0239
28629W        W44098   7.762  17.548   0.731 -0.1548 -0.1416  0.1470
28630W        W44099   8.353  14.138  13.845 -0.0289 -0.2095  0.0503
28631W        W44100   9.079   2.291   3.936  0.0779  0.1053 -0.4316
28632W        W44101  17.167  15.792   1.013 -0.2248  0.1315 -0.2529
28633W        W44102  16.887  12.919   5.138  0.2037  0.0815 -0.0341
28634W        W44103   7.869  14.312   0.109 -0.1319 -0.3010  0.1520
28635W        W44104  13.626   8.511  15.859  0.0060  0.0454 -0.0198
28636W        W44105  17.187   9.216  15.723  0.0988  0.2752  0.0979
28637W        W44106   1.037   2.274   3.878 -0.1115 -0.1116  0.0811
28638W        W44107  15.341  13.172   3.837  0.1435  0.1035  0.0203
28639W        W44108  10.426   5.068   0.892  0.0031  0.3057  0.0220
28640W        W44109  15.818  16.974  15.930 -0.1891 -0.2866  0.1762
28641W        W44110   8.452   6.476  12.449  0.1434  0.0926 -0.3063
28642W        W44111  15.020   7.139   3.261 -0.0364  0.1293  0.0870
28643W        W44112  10.730  17.109   1.418 -0.1189  0.1039  0.2267
28644W        W44113   2.828  11.868   2.873 -0.0172 -0.0304  0.1355
28645W        W44114  11.501   7.719   1.980 -0.0397 -0.1503 -0.2006
28646W        W44115   8.377  10.085  12.517  0.4440  0.1570  0.3177
28647W        W44116   6.990  10.775   1.465 -0.0846 -0.0139 -0.2323
28648W        W44117  16.513   4.908   4.812 -0.2455 -0.0535  0.0953
28649W        W44118  12.550   7.598  12.533  0.0677 -0.1669  0.0926
28650W        W44119  15.739  11.946  11.688 -0.2782  0.0466 -0.2513
28651W        W44120   0.060   7.362   0.750  0.0882  0.2194 -0.0987
28652W        W44121  11.303   2.969   1.672 -0.0614 -0.1094  0.0983
28653W        W44122  10.952  16.412  14.965  0.0192  0.0587 -0.0348
28654W        W44123  18.219  14.292   2.001  0.0528 -0.0440  0.1262
28655W        W44124   2.199  14.551   4.612  0.0864 -0.0802 -0.0336
28656W        W44125   8.800  17.148  13.198  0.3949 -0.1905 -0.0776
28657W        W44126  15.979  13.976  13.372 -0.1516 -0.0894  0.0057
28658W        W44127   9.187  13.028   1.443 -0.1018  0.1970  0.0494
28659W        W44128   3.218   2.582  14.579 -0.2498 -0.3304 -0.0256
28660W        W44129   4.958  15.619   0.032  0.0448 -0.1020 -0.2076
28661W        W44130   9.100  16.588   1.411  0.0342 -0.2363  0.0475
28662W        W44131   4.185  14.989   0.008 -0.1842 -0.1868 -0.1106
28663W        W44132  15.604   9.970   3.322  0.0198 -0.0251 -0.1584
28664W        W44133  16.408  10.950   5.197  0.0430  0.2427 -0.0205
28665W        W44134  10.876  16.327   2.194 -0.2412 -0.1730  0.0749
28666W        W44135   2.033   7.901   4.024 -0.1341 -0.0187  0.1764
28667W        W44136  12.417   4.641   0.162  0.0864  0.1103  0.0599
28668W        W44137  11.297   5.097  14.425  0.1426  0.0335 -0.3784
28669W        W44138  14.501  14.959  14.138 -0.0187 -0.1860  0.2259
28670W        W44139   0.687   2.198  15.512 -0.0393 -0.2460  0.3124
28671W        W44140  12.293  16.627   0.454  0.1111  0.1524  0.0203
28672W        W44141  16.899  10.260   0.800  0.1323  0.2302  0.1388
28673W        W44142  15.961   6.717   1.240 -0.0510  0.3520  0.1086
28674W        W44143   5.055   1.482   3.612  0.3024 -0.0051 -0.0598
28675W        W44144  15.174   6.043   4.264 -0.1847 -0.1368 -0.1581
28676W        W44145  14.823   6.564   4.255  0.1161  0.1639  0.1073
28677W        W44146  14.934   2.279  15.238  0.0216 -0.0890  0.1965
28678W        W44147   1.113  14.858  15.112  0.3532  0.0327 -0.2120
28679W        W44148  11.674  12.512  11.235  0.0501 -0.1020  0.0120
28680W        W44149   2.125   0.805   3.104 -0.1235  0.4775  0.3609
28681W        W44150   5.981   4.251   4.441  0.0464  0.0411  0.0877
28682W        W44151  16.040   2.140  16.010 -0.2860 -0.0692  0.0502
28683W        W44152  10.447   2.715   2.308  0.0936  0.1647 -0.5136
28684W        W44153  10.177   2.518  14.199 -0.0915 -0.2811 -0.0990
28685W        W44154  15.606  16.063  11.149  0.0929 -0.2360  0.1799
28686W        W44155  16.812   5.534   3.005 -0.3413  0.1405  0.1010
28687W        W44156  11.680   4.891  13.773 -0.0243 -0.0140  0.1729
28688W        W44157   0.415   2.036  13.650  0.1266 -0.1548  0.1743
28689W        W44158   3.150  15.761   4.431 -0.0519 -0.0926  0.1036
28690W        W44159   9.488  14.510   0.859  0.2851 -0.0979 -0.0016
28691W        W44160  10.054   7.931   4.927 -0.2728  0.2952 -0.1087
28692W        W44161  16.305  13.347  11.097  0.0607 -0.1674 -0.0831
28693W        W44162   5.608   5.950  11.444 -0.1289  0.2113 -0.0180
28694W        W44163  13.005  15.326   1.404 -0.1726  0.2870 -0.0208
28695W        W44164  14.579   3.517  11.133 -0.0444 -0.1038  0.2018
28696W        W44165   6.162  14.364  13.307 -0.0566  0.1636 -0.2620
28697W        W44166   3.166  17.835   1.255 -0.1292  0.0359  0.0645
28698W        W44167  17.687   1.541  13.594 -0.1917  0.1790 -0.1788
28699W        W44168  18.144   3.950  11.903 -0.1899 -0.1379 -0.3156
28700W        W44169  14.518  18.117   2.662 -0.3954  0.2182  0.5289
28701W        W44170  17.459   9.956   0.667 -0.1071 -0.0409 -0.2680
28702W        W44171  15.168  12.540  14.964 -0.0896 -0.0260  0.2274
28703W        W44172  15.304  16.980   5.636 -0.3174 -0.1997  0.3628
28704W        W44173  10.078  16.694   4.603  0.0214  0.4115 -0.1101
28705W        W44174  17.521  10.125  12.374  0.0249 -0.2930  0.1156
28706W        W44175  17.964  18.129   4.494 -0.0073 -0.0842 -0.1718
28707W        W44176  15.633  15.796  11.963  0.1567  0.4454  0.0750
28708W        W44177  18.089  14.048   5.827  0.1572 -0.0297 -0.0749
28709W        W44178  16.232  10.583  13.976  0.0950  0.2116  0.0710
28710W        W44179   6.663   8.917  11.790 -0.3925  0.0383  0.0540
28711W        W44180   5.981  17.413  13.342 -0.0731 -0.1067 -0.2807
28712W        W44181  15.720  11.739   0.648  0.0264  0.0977 -0.0049
28713W        W44182   2.221  13.259   4.763 -0.0814  0.5057 -0.2093
28714W        W44183  15.052  13.435   4.293 -0.0809 -0.1706  0.2643
28715W        W44184  12.318   8.502  10.910  0.1692  0.0216 -0.3535
28716W        W44185   4.912  15.724  12.794 -0.1163  0.0076  0.0598
28717W        W44186  12.453   4.359  11.394  0.4172  0.1082 -0.0929
28718W        W44187  16.794  14.071  11.061  0.0070 -0.0192  0.1211
28719W        W44188   9.974   2.813   3.047  0.1345 -0.1662 -0.0694
28720W        W44189   6.228   0.730  13.904  0.1051  0.1419  0.2681
28721W        W44190   8.066  11.736  10.835  0.0297 -0.2939 -0.1959
28722W        W44191  15.755   2.053  12.694 -0.0543  0.3157 -0.0814
28723W        W44192  12.901  10.773   2.897 -0.2178 -0.2366 -0.2335
28724W        W44193  15.500  11.785  14.551 -0.3053  0.0146  0.1653
28725W        W44194   8.590   3.199   2.293 -0.3668 -0.0730 -0.1805
28726W        W44195  16.725   6.485  13.991 -0.2901  0.4315 -0.1627
28727W        W44196   7.842  17.332  13.335  0.0173  0.0551  0.1366
28728W        W44197   2.032  10.198   1.992 -0.3312  0.2155 -0.0748
28729W        W44198   8.801   5.213   1.846 -0.0525 -0.1771  0.0769
28730W        W44199   7.577   1.650   5.411 -0.0172  0.0880  0.1848
28731W        W44200   7.797   5.051  10.222 -0.2553 -0.2225  0.1021
28732W        W44201  13.983  17.412  12.667 -0.0667  0.1912  0.1181
28733W        W44202   9.273  18.274   4.316 -0.1922 -0.1749 -0.3940
28734W        W44203   0.455   6.892   4.505 -0.2575 -0.1952 -0.1044
28735W        W44204   8.583  12.601   0.118 -0.0441  0.0932 -0.1143
28736W        W44205   8.101   9.505  12.870  0.3893  0.1189  0.0152
28737W        W44206  15.437   5.365   0.013 -0.2772  0.0219 -0.0539
28738W        W44207  14.289   0.021   1.766 -0.2120 -0.0663  0.1697
28739W        W44208  12.012  10.600  11.823  0.3895 -0.1026  0.0236
28740W        W44209   1.975   5.786  15.833 -0.1228  0.0997 -0.1378
28741W        W44210  12.592   2.786  11.437 -0.4529 -0.2174  0.6037
28742W        W44211  14.552  12.609   2.479  0.0132  0.1302 -0.3178
28743W        W44212  14.193  16.332   3.038  0.1888 -0.2160 -0.3524
28744W        W44213   5.049   0.203   1.067 -0.1471  0.0280  0.1501
28745W        W44214   2.944  16.796  12.818  0.3419  0.0252  0.0159
28746W        W44215  13.769   6.005   3.945  0.0287 -0.0092  0.1047
28747W        W44216   6.970   0.758  15.100  0.2217  0.0993  0.1134
28748W        W44217   9.851  13.725  11.150 -0.0603 -0.1037  0.1802
28749W        W44218   6.494   7.646   4.532 -0.0404 -0.0837  0.1158
28750W        W44219   0.674   2.018   3.399  0.4379  0.2121 -0.0396
28751W        W44220   6.429   3.993  14.239  0.0130  0.2263  0.0850
28752W        W44221   7.810  16.683   5.862 -0.0892 -0.1831  0.0521
28753W        W44222  15.914   1.581  12.936  0.0717 -0.0150 -0.1815
28754W        W44223  14.293  15.243   3.269 -0.1000 -0.2610 -0.1231
28755W        W44224  12.811   1.870  10.451  0.0035 -0.0394 -0.0672
28756W        W44225  10.333  15.198  13.565 -0.0329 -0.1391  0.0747
28757W        W44226  17.919  16.307   0.116 -0.0702 -0.0990  0.0660
28758W        W44227   9.049   4.115   5.370  0.3514  0.2560  0.1092
28759W        W44228   7.261   5.549   5.655 -0.6116  0.0042 -0.1352
28760W        W44229   7.561  13.207  12.069 -0.0552  0.0832 -0.0556
28761W        W44230   1.877  12.106  15.928 -0.0309 -0.0201 -0.0405
28762W        W44231   8.248  13.919   0.951  0.0006  0.0205 -0.0571
28763W        W44232   3.355  10.156   1.147 -0.2074  0.3287  0.0643
28764W        W44233   0.164  15.649  13.739  0.1535  0.3259 -0.4463
28765W        W44234   3.189   2.753   2.353 -0.1460  0.0137 -0.1180
28766W        W44235   6.431  18.177   1.086  0.1840  0.3488 -0.1388
28767W        W44236  12.124  14.745  12.742  0.1318 -0.2528 -0.1589
28768W        W44237   5.276  14.786  10.437  0.3222  0.0682 -0.0619
28769W        W44238   1.216  17.777   5.044  0.1023  0.0239 -0.2376
28770W        W44239   6.544  15.101   2.369  0.0840 -0.0478  0.2213
28771W        W44240  13.029  11.428  11.607  0.1980 -0.0225 -0.4166
28772W        W44241   2.819   6.877   1.906  0.5134 -0.1492 -0.2882
28773W        W44242   8.482  13.681  11.961 -0.0166  0.0393 -0.0504
28774W        W44243   2.750  13.123  13.211 -0.0024 -0.0112 -0.2798
28775W        W44244  15.868   4.416   2.920  0.1872 -0.0135 -0.0252
28776W        W44245  13.894   9.502   4.980  0.0190  0.2445  0.0972
28777W        W44246   8.137   7.213  12.269 -0.1743 -0.1105  0.0608
28778W        W44247  11.177  10.712  14.094 -0.0186 -0.0475 -0.0182
28779W        W44248   0.795   6.074   5.364 -0.0091 -0.1318 -0.0915
28780W        W44249  11.918   1.493   1.918 -0.2895 -0.4524  0.0377
28781W        W44250  16.876   5.932   3.270  0.0607 -0.2204  0.0871
28782W        W44251  13.738   2.628  14.255  0.1668 -0.0310  0.0838
28783W        W44252   3.783   3.550  13.194 -0.0980  0.1474 -0.0023
28784W        W44253  13.817  11.562   4.716 -0.1122  0.0909  0.2415
28785W        W44254  18.077  11.373  15.045 -0.1359  0.1485  0.2746
28786W        W44255   7.850  14.181  13.048  0.2047 -0.2154  0.0160
28787W        W44256   2.737  14.794  15.451 -0.0835  0.2283 -0.1470
28788W        W44257   9.992   8.433   4.139 -0.0324 -0.1250 -0.0057
28789W        W44258   3.438   6.514  12.748 -0.0348  0.2037 -0.1017
28790W        W44259  15.864  17.005  15.047  0.0983  0.0578  0.1190
28791W        W44260   1.006  15.796   2.511 -0.0517  0.1519  0.0085
28792W        W44261   5.877   9.340  12.731  0.0132  0.1135 -0.0664
28793W        W44262  17.070  14.643   0.520 -0.2173  0.2403  0.0138
28794W        W44263   7.960   4.292  14.990  0.1712  0.1059 -0.0606
28795W        W44264   9.877  14.900  13.303  0.2817  0.0048  0.1513
28796W        W44265   6.579  10.866   5.225 -0.1635  0.4081  0.0770
28797W        W44266  14.657   0.992  13.800  0.2190 -0.0069  0.0319
28798W        W44267   6.465   3.779  11.163 -0.1925 -0.0871 -0.1710
28799W        W44268  17.675   8.158   1.787  0.1394 -0.0618 -0.0957
28800W        W44269  15.310  13.503  14.727  0.0687  0.1741  0.0485
28801W        W44270   2.365  15.789   0.141  0.0371 -0.1887 -0.2387
28802W        W44271   0.938   6.116   4.679  0.0588  0.2873  0.1127
28803W        W44272  17.458  14.545  15.453 -0.0476  0.2892  0.0131
28804W        W44273  16.156  12.361  14.337  0.0173  0.1631  0.0910
28805W        W44274  17.748  13.923  10.857 -0.2371  0.0051 -0.1084
28806W        W44275  11.754   4.402   2.406 -0.0607 -0.0703 -0.4558
28807W        W44276  13.147  13.116   0.772  0.0017  0.0162 -0.0436
28808W        W44277   6.287   2.986  13.232  0.0044 -0.0968  0.0081
28809W        W44278   1.735  15.102   1.566 -0.0356 -0.2644  0.2281
28810W        W44279   1.540   1.591   1.573  0.1128 -0.3031 -0.4158
28811W        W44280   6.844  13.090   1.354  0.2907  0.1961  0.0271
28812W        W44281  15.251  14.939   4.395 -0.0994  0.2223 -0.2227
28813W        W44282  10.727  11.604   3.079 -0.0442 -0.2405 -0.1667
28814W        W44283  13.198   7.758  12.928 -0.1145  0.0726 -0.2429
28815W        W44284  17.188   4.063  12.752  0.1838 -0.1028  0.1027
28816W        W44285  16.127   9.963  15.299 -0.0466  0.1293  0.1592
28817W        W44286   1.948   5.486   5.022 -0.0074 -0.0949  0.0068
28818W        W44287   9.812   5.365  13.873 -0.0287 -0.2286  0.3319
28819W        W44288  15.251  11.169  12.460 -0.1697  0.0199 -0.0797
28820W        W44289  15.156  12.879  13.141  0.3226 -0.3391 -0.0939
28821W        W44290  14.642  11.025   5.037  0.1350 -0.1072  0.0251
28822W        W44291  14.066  11.571   1.151  0.3897  0.0131 -0.0595
28823W        W44292   1.569  14.314  13.002 -0.1558  0.0010 -0.0068
28824W        W44293  14.826  10.827  12.463 -0.0316  0.1888  0.3199
28825W        W44294   6.766  14.978   1.264  0.3411  0.0263 -0.4726
28826W        W44295   6.271   0.986   3.373 -0.2616 -0.2069 -0.2252
28827W        W44296   3.211  17.213  14.298  0.3331 -0.1647 -0.0774
28828W        W44297   6.463  13.209   4.825  0.0903 -0.2159 -0.1323
28829W        W44298   5.234   4.192  11.307 -0.1372 -0.0004  0.2172
28830W        W44299   3.479   6.048   1.848 -0.0805 -0.1883  0.0272
28831W        W44300   2.631   5.689  15.723  0.0540  0.0475  0.3504
28832W        W44301  14.380  13.081   2.720  0.1095  0.0222  0.0034
28833W        W44302   2.649   3.916  11.749  0.1158 -0.2154 -0.1324
28834W        W44303  15.049  16.979   2.074  0.1158  0.0157 -0.1328
28835W        W44304  12.958  18.267  12.264  0.1887  0.0732  0.2582
28836W        W44305   4.762   7.900   2.418  0.1961  0.1911 -0.1108
28837W        W44306  18.075   2.559   3.442  0.0058  0.0051 -0.1021
28838W        W44307  13.119  16.162   5.408 -0.2487 -0.0033 -0.0012
28839W        W44308   0.579   1.204  12.103  0.1430  0.1579  0.0737
28840W        W44309  11.341   5.715  10.245 -0.1630  0.1001 -0.0139
28841W        W44310   3.357  13.638   0.458  0.1104  0.0633 -0.2821
28842W        W44311   7.375  11.302   4.123 -0.1827 -0.0342 -0.0895
28843W        W44312   4.880   4.554  11.621  0.0391  0.0121  0.0465
28844W        W44313  16.880  16.974   0.753  0.5502  0.1215  0.1223
28845W        W44314  11.925   9.224   5.194 -0.2809  0.0481  0.0371
28846W        W44315   7.834  14.520   2.687  0.1635  0.0600  0.2469
28847W        W44316   9.640  14.266  14.128 -0.4200 -0.4014 -0.1485
28848W        W44317  10.922   9.011  14.806 -0.0229  0.1451  0.1483
28849W        W44318  17.603  11.109  13.580  0.1522  0.0734  0.2222
28850W        W44319   0.966   4.814  12.935 -0.2015 -0.0171  0.3536
28851W        W44320   7.911  18.078  11.012 -0.0927  0.0996 -0.0611
28852W        W44321  11.314   8.969  12.349  0.3453  0.0245 -0.0070
28853W        W44322  13.511   6.670   0.787  0.1746 -0.1892 -0.0668
28854W        W44323  10.730   2.162  14.785 -0.2097 -0.0623  0.0079
28855W        W44324  16.157  16.296  14.415 -0.0720  0.2846  0.0602
28856W        W44325   9.698  18.041  12.356  0.2042  0.2413  0.1402
28857W        W44326  11.148   3.296  14.399 -0.2102 -0.1577  0.2716
28858W        W44327   1.379   0.891   3.286 -0.0488 -0.0332 -0.0797
28859W        W44328  14.511   0.081  13.074 -0.0511 -0.2816 -0.4620
28860W        W44329   5.625  11.674   5.455 -0.1806  0.0509 -0.2958
28861W        W44330   1.018   1.882  11.422  0.2901 -0.0212  0.1619
28862W        W44331  11.819  12.661  10.762  0.2895 -0.1654 -0.2224
28863W        W44332  15.512  10.666  12.420  0.0113  0.0763  0.1752
28864W        W44333   7.349   7.491  16.056  0.1912 -0.1148  0.1605
28865W        W44334   6.171  14.998  12.534  0.1625  0.4438  0.1883
28866W        W44335  15.375  12.047   3.296 -0.0785 -0.0258 -0.2110
28867W        W44336  14.521  15.727   1.088 -0.0359  0.0008  0.1733
28868W        W44337   1.274   4.451  11.874 -0.1539  0.0617 -0.1151
28869W        W44338  11.063   3.398  11.486  0.0983  0.0196  0.2007
28870W        W44339   8.659   0.841   2.651  0.1859 -0.2790  0.0642
28871W        W44340  10.154   8.203  16.007 -0.0785  0.1098 -0.1120
28872W        W44341  17.395   4.046   2.164  0.1067  0.2477  0.1805
28873W        W44342   1.296   9.633   3.377 -0.0567  0.2668 -0.1189
28874W        W44343  13.216   6.948  13.131  0.1004 -0.0523 -0.2562
28875W        W44344   9.860   5.909   2.634  0.0390 -0.1625 -0.0189
28876W        W44345  11.116  15.772  12.101 -0.2104 -0.1519 -0.2104
28877W        W44346   3.040   7.442   4.680  0.1668 -0.0057  0.2757
28878W        W44347  17.630   6.801  13.764  0.1391  0.0906  0.0876
28879W        W44348   1.331   2.897  15.519  0.4625 -0.1378 -0.0547
28880W        W44349  14.707   1.307  15.347 -0.1814  0.0567 -0.1142
28881W        W44350  11.891  14.372  13.013 -0.2060  0.2215 -0.0989
28882W        W44351   5.838  16.283  11.919 -0.2865  0.2098 -0.0026
28883W        W44352  12.518  13.536  11.824 -0.0709 -0.0097  0.0662
28884W        W44353  15.556  10.344  12.052 -0.0144 -0.2282 -0.1721
28885W        W44354  10.370  10.149  12.551 -0.1380 -0.0481 -0.1269
28886W        W44355   8.807  10.002   3.979  0.1675 -0.0434 -0.1354
28887W        W44356   4.366   0.586   2.242  0.0770  0.2295  0.0493
28888W        W44357  12.574  10.585   4.132  0.3479 -0.1022  0.1578
28889W        W44358   7.296   3.651  11.572 -0.0171 -0.0584 -0.2289
28890W        W44359   5.791  11.881  10.303 -0.2269 -0.3423 -0.4996
28891W        W44360   9.884  12.543  13.588 -0.0377 -0.1256  0.0769
28892W        W44361   2.238   9.027  15.730 -0.2641  0.2257 -0.2142
28893W        W44362  12.510  11.659   4.217  0.0975 -0.1136  0.1300
28894W        W44363  12.232   7.689   5.921 -0.0733  0.2096  0.0935
28895W        W44364  12.335  12.631   1.308  0.1257  0.0584 -0.1697
28896W        W44365   1.806   9.865   5.862  0.0917  0.1473  0.0020
28897W        W44366  10.258   9.938  15.129 -0.2718 -0.2774  0.0332
28898W        W44367  16.889  17.475  11.116 -0.1029  0.0482 -0.3061
28899W        W44368  10.927   8.098   4.547 -0.1481 -0.4016  0.3775
28900W        W44369  13.462   1.383   5.535 -0.1108  0.0113 -0.1342
28901W        W44370  14.385  14.604  16.014  0.1767  0.0935  0.1974
28902W        W44371   9.806   3.809  13.384 -0.0921  0.2685  0.0554
28903W        W44372  12.444   9.976  11.268 -0.0818 -0.0561  0.0493
28904W        W44373   0.940  12.803   1.638 -0.1949 -0.5233  0.3842
28905W        W44374  12.634  13.319  13.327  0.3542  0.1884  0.1238
28906W        W44375   8.333   1.281  12.527  0.1051  0.2661 -0.0674
28907W        W44376   0.265  12.520  14.748 -0.1886  0.1147 -0.0533
28908W        W44377  14.337  13.726  14.134 -0.1611 -0.1778 -0.0736
28909W        W44378   2.829   8.919  15.753  0.0939 -0.0939 -0.2363
28910W        W44379   5.498   4.997  11.976  0.2025  0.1863  0.1785
28911W        W44380   9.578   0.550  14.129  0.3390  0.4427 -0.1790
28912W        W44381  13.369   1.893  15.251 -0.3910  0.0727 -0.0637
28913W        W44382   0.711  14.388   2.886 -0.0080  0.0036  0.0609
28914W        W44383  11.637   5.929  12.260  0.2635 -0.2994  0.1659
28915W        W44384  14.657  16.005   5.200  0.0156  0.0136  0.0208
28916W        W44385  10.787  11.074   2.949 -0.0554 -0.0473 -0.1322
28917W        W44386   7.839   1.790  11.235 -0.2159 -0.2505 -0.0893
28918W        W44387  14.132   5.460  15.301  0.2974 -0.1382  0.3282
28919W        W44388   1.369   6.679  13.740 -0.0639  0.2051  0.1818
28920W        W44389   5.037   4.748   5.590 -0.0371 -0.2273  0.0374
28921W        W44390  16.004  13.106  15.110 -0.0484  0.0520 -0.1265
28922W        W44391   1.999   4.312   3.044 -0.0901 -0.2092  0.0701
28923W        W44392  17.493   1.364   4.881 -0.2369 -0.0233 -0.2081
28924W        W44393   0.381   1.430   1.742  0.1115 -0.2913 -0.0811
28925W        W44394  12.056   0.715   3.248  0.1523  0.2440 -0.1857
28926W        W44395  12.019  13.084   4.920 -0.0849  0.1613 -0.1682
28927W        W44396  12.403   6.903   1.582 -0.0595  0.2507  0.0944
28928W        W44397  17.355   4.185  12.167  0.0582  0.2481  0.0455
28929W        W44398  13.779  12.856  10.427 -0.2311  0.1566 -0.0867
28930W        W44399  10.381  11.776  11.744 -0.0035 -0.2499  0.3281
28931W        W44400   1.075   1.829   6.335  0.1283 -0.0131  0.0470
28932W        W44401  10.888  13.456  12.882  0.0197 -0.1186  0.1072
28933W        W44402  11.626  16.134  15.156 -0.0118  0.0905 -0.0025
28934W        W44403   2.923  10.312   1.364  0.2012 -0.2245 -0.1816
28935W        W44404   0.792  13.020  15.597  0.1038  0.2180 -0.0393
28936W        W44405  11.724  16.271  11.195 -0.0066  0.0537  0.4424
28937W        W44406  13.173  14.897   1.514  0.1103  0.2023 -0.2304
28938W        W44407   4.917   0.469  13.919 -0.1488  0.2071  0.0183
28939W        W44408   1.338   7.915  12.775  0.0565  0.2265 -0.1643
28940W        W44409   0.809  11.102  14.656 -0.0866 -0.1628  0.0916
28941W        W44410  13.081   5.347  15.341 -0.0594 -0.0364 -0.1550
28942W        W44411   9.230  15.904   4.872 -0.0699  0.1654 -0.1465
28943W        W44412  12.726  12.315  14.865  0.2740  0.1153  0.1084
28944W        W44413  16.364  17.042   2.808 -0.0926  0.2999  0.2692
28945W        W44414   8.149   8.187  13.930 -0.0945  0.2654  0.1378
28946W        W44415   3.730  11.241   0.289  0.0192 -0.3115  0.2493
28947W        W44416   7.649   3.662  14.300 -0.1583 -0.2544 -0.0459
28948W        W44417   0.125   6.086   2.100  0.1624 -0.1029 -0.2198
28949W        W44418  12.516  16.421  12.291 -0.2581 -0.3274  0.0525
28950W        W44419  10.865   7.073  12.469 -0.3083  0.3912 -0.0586
28951W        W44420   6.289  17.023   0.525 -0.2918  0.1259  0.1717
28952W        W44421   9.924   9.258   1.473  0.0871 -0.3510  0.0179
28953W        W44422  13.571   5.582  13.022 -0.1575  0.1875  0.2574
28954W        W44423   3.948   3.656  13.955  0.0648  0.0685 -0.1152
28955W        W44424   7.682   3.480  10.611 -0.1548 -0.0200  0.1440
28956W        W44425   6.490  10.806   1.424 -0.0907 -0.0820 -0.1143
28957W        W44426   6.444   2.030  12.796  0.1908 -0.0012 -0.1607
28958W        W44427  13.200  17.378   0.353  0.4638  0.0838  0.2906
28959W        W44428  13.937  16.686   4.888 -0.1625  0.1806 -0.1739
28960W        W44429   8.631  12.364  12.255 -0.1119 -0.0107 -0.4204
28961W        W44430   5.050  11.761   5.549  0.2416  0.2808  0.1978
28962W        W44431  10.073   0.080   1.945  0.1455 -0.0083 -0.0408
28963W        W44432  13.431   1.444   1.524 -0.0185 -0.0689  0.2897
28964W        W44433  17.900  14.090  13.446  0.1368  0.2387  0.0653
28965W        W44434  10.060   1.649   4.439 -0.0740  0.1293 -0.1833
28966W        W44435   8.331   1.703  10.599 -0.0657  0.0739 -0.0703
28967W        W44436   1.137  15.286  14.799 -0.0573 -0.0878  0.4690
28968W        W44437   6.417  13.255   5.345  0.3544  0.2261  0.1929
28969W        W44438   8.743   3.723   0.636 -0.1231 -0.1808  0.0885
28970W        W44439  11.692   3.319   2.685 -0.0567  0.5297 -0.0168
28971W        W44440  16.057   1.176   1.526 -0.0976 -0.0218 -0.0689
28972W        W44441  18.263  12.227   1.868  0.2326  0.1038  0.1858
28973W        W44442  14.090   3.994   1.316 -0.2961 -0.0442  0.1311
28974W        W44443  16.443  15.983   3.862  0.1639  0.0437  0.0658
28975W        W44444   8.289   5.655  16.064  0.1370 -0.0930  0.0921
28976W        W44445  10.512  14.773   0.607 -0.1209 -0.0314 -0.1309
28977W        W44446  16.563  11.068  15.520  0.0071  0.1989 -0.1684
28978W        W44447   3.127   8.337   3.290  0.2038  0.2318 -0.0575
28979W        W44448   4.914   7.659   1.977  0.2116  0.0555 -0.2436
28980W        W44449   2.059  12.559   0.686  0.4935  0.1520  0.1164
28981W        W44450  10.433  12.694   0.984  0.0328 -0.0351  0.2267
28982W        W44451  11.147  12.683  13.040 -0.1835  0.0064  0.0435
28983W        W44452   3.472  11.711  12.996 -0.2161 -0.0918  0.0138
28984W        W44453   2.086   1.548   3.070 -0.0259 -0.3114  0.0912
28985W        W44454   6.761   8.536  14.539  0.0470 -0.0935  0.0266
28986W        W44455  10.794  15.179  14.449 -0.0394  0.1507  0.2299
28987W        W44456  10.432  17.888   1.193 -0.3522  0.2156  0.1397
28988W        W44457   1.565   7.161   5.381 -0.2785 -0.1244 -0.2473
28989W        W44458   1.247   0.995  15.065  0.0045 -0.1154 -0.1471
28990W        W44459   7.320   3.024  15.039 -0.0535  0.0039  0.1639
28991W        W44460   5.911   4.817   4.922 -0.1640  0.0485  0.2744
28992W        W44461   6.065  17.316  15.198 -0.0718 -0.0183 -0.2455
28993W        W44462   3.062   5.303   2.820 -0.5107 -0.0057 -0.1931
28994W        W44463  11.000   3.599   3.347  0.2017  0.2026 -0.1915
28995W        W44464  15.131  14.535   4.042  0.1137 -0.1445  0.2366
28996W        W44465   3.167   5.981   3.651 -0.3072 -0.0798  0.0220
28997W        W44466   7.562  17.512   4.636 -0.1431 -0.2497  0.0109
28998W        W44467  16.324  16.839  14.206  0.1232 -0.2957 -0.3110
28999W        W44468  10.620  16.760  15.792  0.2069 -0.1909  0.0231
29000W        W44469  14.494   7.279  12.965 -0.0088 -0.3750  0.0777
29001W        W44470  13.830  12.834  11.548  0.0010 -0.1406 -0.0364
29002W        W44471   2.820   4.746   3.974 -0.1557  0.0310  0.1103
29003W        W44472   2.960   7.463  13.805 -0.0259 -0.2276  0.3338
29004W        W44473   9.341  11.862   0.740  0.0646 -0.2527  0.2076
29005W        W44474  16.843   8.975  13.557  0.1266  0.0128  0.3186
29006W        W44475   4.382  10.802   2.675 -0.1528 -0.0622 -0.1028
29007W        W44476   6.159   0.840  14.406  0.1227 -0.0143 -0.2109
29008W        W44477   6.968   7.664  13.783 -0.1277  0.1238 -0.2559
29009W        W44478   6.262   5.121   4.083  0.8349 -0.0429 -0.0818
29010W        W44479  15.949  12.443   4.117 -0.1320  0.2158  0.1346
29011W        W44480   0.772   4.640   2.838  0.1403  0.1186  0.0245
29012W        W44481  10.381  13.206  14.252  0.2036 -0.0753  0.0471
29013W        W44482   4.845  15.990  14.514 -0.0691  0.2213  0.2551
29014W        W44483  14.049  13.935   0.657  0.0172  0.2282 -0.0675
29015W        W44484  12.770  17.927   0.790 -0.0531 -0.5301  0.0675
29016W        W44485  11.149  18.236  14.293 -0.1818  0.1811  0.1352
29017W        W44486  15.167   3.013   3.843 -0.2113  0.1805 -0.1505
29018W        W44487   1.783   0.357   1.126  0.0014  0.1876 -0.1539
29019W        W44488   7.746   3.194  11.067 -0.0603  0.2979 -0.0894
29020W        W44489   6.994  12.576   3.228  0.2205  0.0562 -0.0213
29021W        W44490   1.179  11.022  11.002 -0.1283  0.2941 -0.4201
29022W        W44491   0.525  12.703   4.761 -0.1644 -0.2523 -0.2468
29023W        W44492   0.643   2.694   0.842 -0.0534 -0.0160 -0.0982
29024W        W44493  16.519   5.265   1.129  0.0397  0.1231 -0.1385
29025W        W44494  10.367   1.001  14.569  0.0379  0.3719 -0.2614
29026W        W44495   4.965  12.701   0.655  0.0172  0.1192 -0.1075
29027W        W44496   5.975   7.847   3.704  0.3478  0.1358  0.0715
29028W        W44497  16.244  15.614   1.119  0.2554  0.0710 -0.0083
29029W        W44498  17.252  18.128  13.124  0.3585  0.0193  0.4010
29030W        W44499  17.343  13.035  14.261  0.1181 -0.1946 -0.3639
29031W        W44500  17.072   9.166  13.125 -0.1641 -0.2736 -0.0014
29032W        W44501   2.854   3.851  13.213  0.2508  0.2054  0.2256
29033W        W44502   5.178   2.178  14.318  0.0764 -0.1207  0.0824
29034W        W44503  17.273  16.774  14.718 -0.0777 -0.1699  0.0813
29035W        W44504  17.468  16.039   4.062 -0.0024  0.1479  0.0382
29036W        W44505   5.916   1.374   0.568  0.0389  0.0227 -0.0469
29037W        W44506  17.050  18.272   5.019 -0.0327  0.3457 -0.0039
29038W        W44507   3.361   5.919   0.110  0.2480  0.0213  0.0414
29039W        W44508   8.693  11.580   1.179  0.2986  0.2232 -0.0206
29040W        W44509   2.543  16.752  12.501  0.1377 -0.1438  0.1044
29041W        W44510   3.553  17.039  13.946 -0.1999  0.2723 -0.1473
29042W        W44511  10.188   0.271   0.522  0.0966 -0.0565 -0.1880
29043W        W44512  12.611   0.780   4.899 -0.0452 -0.0517  0.0064
29044W        W44513   1.213   1.380  15.627  0.0901 -0.1275  0.2009
29045W        W44514   7.650   4.306   4.355  0.2342  0.0551 -0.1251
29046W        W44515   0.843  13.413  14.101  0.1950 -0.2283  0.5155
29047W        W44516  14.596  16.357   2.739  0.0049  0.1084 -0.0748
29048W        W44517  13.474   4.559   0.226 -0.0708 -0.1573  0.0146
29049W        W44518  10.428   0.891  11.169 -0.0070 -0.2354 -0.0105
29050W        W44519   3.416   7.160  14.321  0.0245  0.1356 -0.2619
29051W        W44520   4.962   6.320   2.130 -0.1726  0.0642 -0.0873
29052W        W44521  16.245   3.447  15.627 -0.0068  0.1038 -0.0912
29053W        W44522   2.131  17.579  15.856 -0.1129 -0.1030 -0.0824
29054W        W44523  16.282   6.260   4.528  0.2512 -0.0363  0.0445
29055W        W44524   7.667   7.919  10.134 -0.0210 -0.0528  0.1590
29056W        W44525   9.989  14.554  15.041  0.1481 -0.0252  0.3131
29057W        W44526   9.243   8.908   5.273 -0.3739 -0.0157  0.0255
29058W        W44527   5.688  16.134   4.768 -0.1868 -0.0324 -0.0490
29059W        W44528   3.230  17.547  11.058  0.1865  0.2418  0.1467
29060W        W44529   1.024  12.620   3.014 -0.1394  0.1339  0.1757
29061W        W44530  16.781  17.991  15.000  0.5262  0.0726  0.1257
29062W        W44531  14.206   9.772  14.474  0.0370  0.0706 -0.1843
29063W        W44532  10.375  17.390  11.363  0.1289  0.1003  0.0380
29064W        W44533   4.677  15.643  14.144  0.1062 -0.1562 -0.0605
29065W        W44534   3.670   0.432  15.830 -0.2020 -0.2774  0.2478
29066W        W44535  16.352  13.556  15.766  0.0439  0.0738  0.4098
29067W        W44536  10.188  17.968  14.460  0.1329 -0.1613 -0.0159
29068W        W44537  10.856  16.648  12.006  0.1337 -0.0494 -0.3505
29069W        W44538   5.787   8.845   0.387 -0.1214 -0.1106  0.3671
29070W        W44539   9.859   6.549   6.120  0.0740  0.0169  0.3356
29071W        W44540   7.399   3.115   0.371 -0.1011 -0.0512 -0.1561
29072W        W44541  11.744  14.864  14.236  0.0977 -0.1807  0.2238
29073W        W44542   0.847  18.122   3.708  0.0973  0.0251 -0.1445
29074W        W44543  15.960  18.163   0.126  0.0868 -0.0884  0.1538
29075W        W44544  14.824  15.976   1.383  0.0781 -0.6458 -0.1629
29076W        W44545  18.050   9.778   3.431  0.1744  0.0938 -0.0134
29077W        W44546  13.795   7.702  11.340  0.3150  0.0664  0.0679
29078W        W44547   7.575   0.263  11.165  0.1915  0.0274  0.4001
29079W        W44548  11.133  16.050   4.555 -0.2003  0.2205 -0.1905
29080W        W44549  18.177   1.289   3.465 -0.3560  0.0682 -0.1128
29081W        W44550  16.531   9.198  16.118  0.0267  0.2538  0.0506
29082W        W44551   0.920  15.183  15.803  0.2307  0.2592 -0.1573
29083W        W44552   3.531   6.846  13.526  0.0769  0.3156 -0.0772
29084W        W44553   7.455   9.365   0.720 -0.0655  0.1749 -0.2077
29085W        W44554  17.512   5.434   4.042 -0.3373  0.0530  0.1590
29086W        W44555  13.501  11.783  15.556  0.1896  0.3173  0.5801
29087W        W44556   5.081  13.660   2.206  0.0867  0.2040  0.1788
29088W        W44557   9.372  14.297   4.441 -0.0839  0.0397  0.0498
29089W        W44558  11.244  13.798   2.906 -0.2357  0.1058 -0.4529
29090W        W44559   1.863   3.813  11.869 -0.1591 -0.0952  0.0219
29091W        W44560   7.342   6.449  14.998 -0.1234 -0.1399 -0.0559
29092W        W44561  12.590   2.643  15.611  0.1241  0.2477 -0.1326
29093W        W44562   1.225   5.353  13.691 -0.1542  0.0947 -0.0240
29094W        W44563  15.376   0.555  11.938 -0.3206 -0.0143  0.2222
29095W        W44564  13.374  14.545  11.028 -0.1805  0.0033 -0.0969
29096W        W44565  11.824  14.961   4.067  0.1651  0.0696 -0.1785
29097W        W44566   9.955   6.391   4.716  0.1461  0.0280  0.0777
29098W        W44567   7.220  15.414  14.390 -0.0608  0.1425  0.1094
29099W        W44568   6.235   1.014  11.196 -0.0072 -0.1414  0.0355
29100W        W44569   4.397  16.253   5.633  0.0569 -0.1745 -0.3926
29101W        W44570  18.258   5.222  14.497  0.1001 -0.2326 -0.0518
29102W        W44571   3.609   2.602  12.840 -0.3760 -0.1310  0.1200
29103W        W44572   8.778  13.717   0.095  0.0159  0.0996  0.0592
29104W        W44573   4.782  16.560  14.277  0.1767 -0.0022 -0.1480
29105W        W44574   7.267   2.567   5.367 -0.0739  0.1913 -0.2484
29106W        W44575   0.822  10.855   2.948 -0.2837 -0.2456 -0.1011
29107W        W44576  11.449   0.730  11.402  0.1153  0.1798 -0.3002
29108W        W44577  13.331   1.115   3.267 -0.2080 -0.0888 -0.0370
29109W        W44578   7.149   4.458  10.380  0.0695  0.0545  0.0858
29110W        W44579   0.951   0.203  11.472 -0.2274  0.1306 -0.2889
29111W        W44580  13.269  10.421   5.144 -0.2154  0.0112 -0.0042
29112W        W44581   3.747  15.376  14.303  0.0950  0.0582 -0.0235
29113W        W44582  16.282   3.703  14.292 -0.1476  0.1040 -0.0050
29114W        W44583   9.739  17.039  12.203  0.1567  0.0087 -0.1876
29115W        W44584  11.487   6.526  11.998 -0.0123 -0.2743 -0.2690
29116W        W44585  15.744  17.721   5.350 -0.7229  0.4539  0.2134
29117W        W44586  16.795   9.317   5.413 -0.3569 -0.0356  0.1275
29118W        W44587   3.239   6.163   5.100 -0.0830  0.2851  0.0501
29119W        W44588  15.887  17.865   1.807  0.2820 -0.1325  0.1522
29120W        W44589  12.385  11.903   5.938 -0.1837  0.4282 -0.3808
29121W        W44590  12.909   1.571  15.052 -0.0141  0.0271  0.1235
29122W        W44591   8.185   0.946  15.646 -0.0912  0.1712 -0.0479
29123W        W44592   6.458  11.756  15.052  0.1799 -0.1469  0.0181
29124W        W44593   1.436   1.583   2.606  0.3064  0.1932  0.1016
29125W        W44594   3.569   3.337   5.022  0.1360  0.1864  0.1651
29126W        W44595  12.417  10.698   2.901 -0.1102  0.0496  0.1874
29127W        W44596   0.571  11.787  12.542 -0.2185  0.1651 -0.3472
29128W        W44597  14.231   9.507   0.658 -0.0658 -0.1926  0.2564
29129W        W44598  13.807  17.953  15.243  0.0954  0.4403  0.1328
29130W        W44599   4.019   6.900   5.878  0.3059  0.0950 -0.0342
29131W        W44600  12.048  12.637  15.074  0.2986  0.1241  0.0628
29132W        W44601  17.269   4.390  11.666  0.1630 -0.2992  0.1538
29133W        W44602   1.242  12.341  12.394 -0.1364 -0.3355 -0.3131
29134W        W44603   4.166   5.050   4.142  0.1222  0.2250 -0.2343
29135W        W44604   9.533   6.112  15.194  0.2285  0.0761 -0.0054
29136W        W44605  16.380   6.526  11.081  0.3395  0.4100 -0.0228
29137W        W44606   1.938   8.955  13.684  0.1337 -0.0033  0.2718
29138W        W44607   1.667   1.805   5.623 -0.2224  0.4207 -0.0637
29139W        W44608   7.302  16.417   3.154  0.1222 -0.0272  0.1096
29140W        W44609   0.854   5.313  13.293  0.2390  0.0255  0.1993
29141W        W44610  17.745  17.048   5.433  0.2235 -0.1489 -0.0846
29142W        W44611  14.485  16.849  13.950 -0.0903  0.0210  0.0557
29143W        W44612   5.395   6.180   4.417  0.1516 -0.3348  0.2338
29144W        W44613   4.782  17.021   4.477  0.1312 -0.1029  0.1405
29145W        W44614   7.109  17.981  11.491  0.1430  0.0876  0.0005
29146W        W44615   8.551   2.248  12.372 -0.0379 -0.0225 -0.6683
29147W        W44616  16.636   2.155   0.667 -0.0253  0.0173 -0.0339
29148W        W44617  10.261   1.500   3.025 -0.0778  0.1815 -0.1484
29149W        W44618  17.529   9.576   4.672  0.0908  0.0104 -0.1937
29150W        W44619  10.474   9.123   3.083 -0.1054  0.0051 -0.0049
29151W        W44620   7.202  15.861   5.632 -0.2129 -0.1431  0.2016
29152W        W44621  11.422  17.113   2.487  0.3890 -0.2033  0.2078
29153W        W44622   7.157  14.579   1.951  0.1577  0.4568 -0.0050
29154W        W44623   8.763   1.434   3.478  0.0163 -0.1212  0.4420
29155W        W44624   4.097  13.311  15.445 -0.1823 -0.0192  0.0590
29156W        W44625   6.631   2.530   0.596 -0.0270 -0.3070 -0.1109
29157W        W44626   8.865  14.451   2.523 -0.0649  0.1369 -0.2086
29158W        W44627  11.476  13.509  12.661  0.0388  0.3155 -0.0849
29159W        W44628   3.527  17.903  13.472 -0.0441 -0.1069  0.2924
29160W        W44629   6.019   3.543   5.180  0.0054 -0.0049  0.0324
29161W        W44630  10.936   9.218  12.492 -0.1562 -0.2620 -0.0595
29162W        W44631   6.639  12.772  12.025 -0.2210 -0.1920 -0.1419
29163W        W44632   0.631  12.910  13.827 -0.0978  0.1169  0.0984
29164W        W44633   5.261   8.376   5.141 -0.1207 -0.0855  0.1631
29165W        W44634  15.550   7.566  15.854  0.3824  0.1315 -0.1157
29166W        W44635  11.036   0.256  10.933  0.1451  0.2949  0.1684
29167W        W44636   3.866  10.854   3.517 -0.0566 -0.0853 -0.2478
29168W        W44637  18.294   7.989   1.781 -0.3407 -0.2350  0.2553
29169W        W44638   7.281   7.377   3.685  0.1066 -0.1227 -0.3323
29170W        W44639   2.136   3.341   5.198 -0.1341  0.0538  0.0563
29171W        W44640  12.387  16.269   3.310  0.0490  0.1779  0.5313
29172W        W44641   1.177  12.437  10.575  0.2698  0.0738  0.0010
29173W        W44642   7.439  13.603  11.110 -0.0590 -0.0616 -0.0259
29174W        W44643  16.060  12.348  11.601 -0.0247  0.1486  0.0471
29175W        W44644   4.047  13.080  10.987  0.1577  0.1292 -0.2286
29176W        W44645  10.570  11.409  11.505 -0.0806  0.0457  0.1622
29177W        W44646   1.003  12.491  15.467  0.0329 -0.1009 -0.0263
29178W        W44647   3.725  18.074  12.178 -0.1762  0.1818 -0.3287
29179W        W44648  16.765  16.067   2.860 -0.1095 -0.0022  0.2278
29180W        W44649  17.428   3.099   0.464  0.0489 -0.2165  0.0627
29181W        W44650   1.348   6.846   1.451 -0.0064 -0.5313  0.3921
29182W        W44651  13.435   3.214  13.786  0.1950 -0.0616  0.0558
29183W        W44652  14.648   2.692  15.307  0.1619  0.1980 -0.0104
29184W        W44653   7.666   2.121   5.249  0.0479  0.1908  0.1578
29185W        W44654  12.814  17.545   4.829  0.1218 -0.1929 -0.2066
29186W        W44655   3.137   1.310   0.674  0.1732 -0.0046 -0.0009
29187W        W44656   4.329  13.888  11.375  0.0660 -0.2812 -0.2097
29188W        W44657   0.662   5.174   3.720 -0.1974  0.2846  0.0059
29189W        W44658   9.070   8.336   4.202 -0.1460 -0.0555  0.3081
29190W        W44659   6.860  11.173   2.330  0.4425  0.1672  0.1195
29191W        W44660   3.573  14.777  15.189 -0.2096 -0.3747  0.0038
29192W        W44661   4.821  17.120   1.612  0.5201 -0.0978 -0.3472
29193W        W44662   6.659  14.642  15.054 -0.1761 -0.1327 -0.1214
29194W        W44663  12.105   5.946  12.470  0.0230  0.2425 -0.1843
29195W        W44664   9.810   8.490   3.505  0.0038 -0.1704 -0.0146
29196W        W44665  15.242   0.705  10.768  0.0361  0.2655  0.2749
29197W        W44666   0.621  12.934   2.812 -0.1877 -0.0462 -0.0875
29198W        W44667   9.645  17.327   0.825 -0.0565 -0.1110 -0.0643
29199W        W44668   4.293   0.326  12.585  0.1050 -0.1445  0.0877
29200W        W44669  10.899  17.293  11.365 -0.1435 -0.0292  0.1744
29201W        W44670  17.591  17.314  13.728  0.0600  0.4585  0.2157
29202W        W44671   5.408   1.101   1.759 -0.0491 -0.1317 -0.0786
29203W        W44672   3.124  11.715   3.295  0.0995 -0.0770 -0.1785
29204W        W44673  18.013  18.114   5.307  0.0538  0.1045 -0.0311
29205W        W44674  14.397   6.166  12.033  0.0633  0.1614 -0.0909
29206W        W44675  14.446   3.401  14.358  0.1030 -0.1626  0.0135
29207W        W44676  14.634  10.696  14.303  0.1930 -0.0403 -0.0412
29208W        W44677  12.911  11.149   1.481  0.2417 -0.1355 -0.0727
29209W        W44678   4.445   5.662   1.700 -0.0725 -0.2344 -0.0488
29210W        W44679   8.770  15.773   5.022 -0.0924  0.0260  0.3523
29211W        W44680  13.229   0.601  16.132  0.2011  0.0419 -0.0118
29212W        W44681  15.585  14.858   0.752 -0.0253 -0.1593 -0.0673
29213W        W44682   1.076   8.542   4.130  0.2264  0.2237  0.0998
29214W        W44683  14.222   6.184  14.132  0.0580 -0.0249  0.0722
29215W        W44684   1.859   4.496  15.882 -0.1608 -0.3456  0.0001
29216W        W44685   7.110  11.944  12.923 -0.1601  0.1133 -0.4132
29217W        W44686   3.096  15.601   2.837  0.1015  0.2871  0.2207
29218W        W44687   0.066   8.833  15.942 -0.0253  0.3528 -0.0227
29219W        W44688  10.082  16.755  11.194  0.1958 -0.0517  0.1612
29220W        W44689   4.910   8.118  15.798  0.0364  0.0590 -0.3560
29221W        W44690  12.994  17.456   5.321 -0.2554  0.3765  0.4043
29222W        W44691   1.986   4.617  14.071  0.0904  0.3073  0.1555
29223W        W44692   1.953   2.833   0.607 -0.1383  0.1561 -0.0216
29224W        W44693  17.758   2.903   2.634 -0.3114 -0.0667  0.2164
29225W        W44694   2.727   8.379  11.548  0.0884 -0.0784 -0.1192
29226W        W44695  11.390  14.356  14.893 -0.1116  0.0521  0.0837
29227W        W44696  16.944   2.935  13.203 -0.0385  0.0226  0.0891
29228W        W44697   6.525   7.850   1.424 -0.1042 -0.1657 -0.2439
29229W        W44698   6.187  16.111   0.048  0.0257  0.0174 -0.2041
29230W        W44699   7.692  16.778  14.436  0.4131  0.0293 -0.0324
29231W        W44700   6.490  17.323  12.317 -0.0948 -0.3906  0.3000
29232W        W44701  14.138  16.484  11.152 -0.0320  0.2383  0.1233
29233W        W44702   2.925   8.185  15.182 -0.0338 -0.1871 -0.3953
29234W        W44703  14.610   4.858  12.409  0.0562 -0.0379 -0.1908
29235W        W44704  13.920   7.679   1.549 -0.0417  0.3031 -0.0382
29236W        W44705   8.835   7.576  14.936  0.0269 -0.0579 -0.0306
29237W        W44706  11.929  11.397   9.903  0.0655 -0.1139 -0.0070
29238W        W44707  17.768  10.401  11.429  0.1156  0.0911 -0.0587
29239W        W44708   5.035   1.623   0.451  0.1098  0.1717  0.4513
29240W        W44709  17.545   4.383  12.897  0.0553  0.0818  0.1693
29241W        W44710   8.829  15.256   0.564  0.4465 -0.0655 -0.1632
29242W        W44711   3.216   3.951   5.186 -0.0229 -0.0649  0.1179
29243W        W44712  17.688   1.340   2.187 -0.0646 -0.2469  0.1783
29244W        W44713   0.771   9.794   3.217  0.1892 -0.2686 -0.1682
29245W        W44714  12.955  16.287   4.418  0.1300  0.2050 -0.4323
29246W        W44715  12.578  12.328  11.446 -0.1211  0.1205  0.1094
29247W        W44716  16.095   4.394  14.935  0.0369 -0.0563  0.3505
29248W        W44717  16.907  12.127   3.512  0.3047  0.1548 -0.0842
29249W        W44718  12.802  17.218  14.855  0.1224  0.2903  0.1456
29250W        W44719  15.415   3.008   6.249  0.0555  0.2029 -0.0046
29251W        W44720   0.109   3.745   4.380 -0.0160  0.2034 -0.0012
29252W        W44721   5.417  12.859  15.047 -0.0767  0.1659  0.1342
29253W        W44722  14.459   4.789  14.802 -0.0100  0.1062 -0.1868
29254W        W44723   8.116  10.457  11.835 -0.0591  0.0225 -0.2288
29255W        W44724   6.578  10.635   4.339  0.2360  0.1591 -0.1603
29256W        W44725   6.251   2.371  14.853  0.0581  0.0937 -0.1298
29257W        W44726  18.252   9.059  10.626  0.2966 -0.1121 -0.0591
29258W        W44727  15.495   0.012   0.270 -0.0605 -0.1152  0.0720
29259W        W44728   5.989  14.467  12.812 -0.1108  0.2784  0.1737
29260W        W44729   9.960   1.121  13.755 -0.0063  0.2094 -0.1838
29261W        W44730   4.982   3.388   3.769  0.2925  0.1701  0.2436
29262W        W44731  12.619   2.208  10.864  0.1655  0.0104 -0.1652
29263W        W44732  16.562   8.462  15.939  0.0735 -0.2676  0.0188
29264W        W44733   9.654   9.557   3.882 -0.1685  0.1005  0.1326
29265W        W44734   9.750   0.539  11.849  0.0295 -0.2907 -0.1107
29266W        W44735  15.545   2.064  15.909 -0.1941  0.1397 -0.4239
29267W        W44736   0.429  17.208   1.333  0.0412  0.2131 -0.1880
29268W        W44737   3.297  10.979  12.015 -0.1524 -0.0761  0.3654
29269W        W44738   7.705  18.061   0.101 -0.1407  0.0565  0.0446
29270W        W44739  18.183  12.031   3.320 -0.3947 -0.0040 -0.0495
29271W        W44740  14.571   7.880   3.625  0.2834 -0.1153 -0.0150
29272W        W44741   9.857   9.009  14.833  0.1440  0.0267 -0.1131
29273W        W44742  14.499  11.740  13.413  0.3027 -0.0772 -0.2709
29274W        W44743  15.136   1.173  11.106 -0.2124  0.0611 -0.1499
29275W        W44744   4.575   8.173  16.172 -0.1143 -0.1841  0.1541
29276W        W44745  13.024  13.265   5.256  0.1749  0.0929 -0.0562
29277W        W44746   6.356   4.789  11.868 -0.1078 -0.0134 -0.1007
29278W        W44747  13.006   6.661  13.634 -0.0069  0.1384  0.0390
29279W        W44748  10.526  13.979  11.661  0.1248  0.0070  0.0747
29280W        W44749  17.654  12.687  15.092 -0.0185  0.2144  0.0946
29281W        W44750  15.568   9.186   0.786  0.2078  0.2264 -0.1288
29282W        W44751  16.854   7.941   5.257  0.1177 -0.3017 -0.1404
29283W        W44752  11.803   6.796   0.829  0.2566  0.0312  0.0699
29284W        W44753   1.827  14.900   1.102  0.1736  0.0543  0.0311
29285W        W44754   4.848   6.079  12.500  0.0892 -0.2671 -0.0691
29286W        W44755   7.953  18.231  13.525 -0.1954  0.0952  0.0693
29287W        W44756  11.927  10.839  13.913 -0.3483 -0.0982 -0.2992
29288W        W44757  13.334  13.220   2.718 -0.0874  0.1115 -0.1187
29289W        W44758  12.055   4.203  15.401  0.1309  0.1132 -0.2524
29290W        W44759  18.171  17.484  15.898 -0.1274  0.2917  0.0895
29291W        W44760  16.621   7.715  11.976  0.2652 -0.0656  0.1578
29292W        W44761  17.892   2.367  16.164  0.1910 -0.1481  0.0471
29293W        W44762  14.304  15.523  14.043 -0.2301  0.1130 -0.1466
29294W        W44763   9.039  11.503  12.452 -0.0893  0.1021  0.1458
29295W        W44764  15.346   0.476  12.616  0.2900 -0.1253 -0.0852
29296W        W44765   4.376   1.514  14.203 -0.0746 -0.1042  0.0318
29297W        W44766   8.984   4.976   0.082 -0.1368 -0.2642 -0.0827
29298W        W44767   2.401   7.724  13.807 -0.1998  0.1236 -0.1109
29299W        W44768   9.699   2.315  14.216  0.0046 -0.1912 -0.4286
29300W        W44769  16.944   0.721  14.084 -0.0190  0.0081 -0.2185
29301W        W44770  16.061   0.868   5.786  0.1695  0.3678  0.0799
29302W        W44771   9.754   7.208   4.343 -0.1029  0.0185 -0.0707
29303W        W44772  15.886  15.197  13.279 -0.0529  0.3966 -0.2585
29304W        W44773   0.893   0.399  12.320 -0.0097  0.1894 -0.3485
29305W        W44774   6.522   9.844   1.709  0.0562  0.0600  0.0390
29306W        W44775  13.874   1.680  10.378 -0.4132  0.0071  0.1371
29307W        W44776  17.576   1.293  12.631 -0.0295 -0.2247  0.1543
29308W        W44777  10.021   5.089   2.579  0.1875 -0.0538  0.1267
29309W        W44778   3.166  11.411  12.699 -0.1931 -0.0231 -0.2410
29310W        W44779  15.301  15.505  15.316 -0.1129  0.2088 -0.0568
29311W        W44780  10.098   1.888  11.562 -0.1988 -0.1982  0.2732
29312W        W44781  11.407  14.670   0.510 -0.3338 -0.3285 -0.1898
29313W        W44782   2.812   2.657  15.592  0.1242  0.0097  0.1525
29314W        W44783   5.442  16.516   1.420 -0.2109 -0.0462 -0.0585
29315W        W44784   7.528   7.513  15.173  0.0190  0.0149 -0.3743
29316W        W44785  16.861   0.080   4.578 -0.0142 -0.1568 -0.2193
29317W        W44786  16.352  13.318   3.053  0.1513 -0.0825 -0.2779
29318W        W44787  11.965   7.456   4.272  0.2606  0.0671 -0.2733
29319W        W44788  11.133   9.473  14.757 -0.1510  0.2126  0.1756
29320W        W44789   6.926  10.645   4.809  0.2111 -0.0784  0.0366
29321W        W44790   0.358  15.621   2.278 -0.0345  0.0598 -0.1965
29322W        W44791  11.520  14.047  14.069  0.0889  0.1532 -0.1367
29323W        W44792  14.045   2.542   4.733 -0.2696  0.1094 -0.1813
29324W        W44793   5.310  18.245  11.348 -0.2889  0.4514 -0.1513
29325W        W44794   0.515  13.610  11.658 -0.2227  0.2107  0.1462
29326W        W44795  12.794   7.210   1.447 -0.2795 -0.1126 -0.0997
29327W        W44796   7.134   2.350   3.531 -0.0841  0.1468 -0.1263
29328W        W44797  15.448   3.811  11.283 -0.0556 -0.0199  0.0935
29329W        W44798  11.296   2.136  11.079  0.0632 -0.0302  0.1125
29330W        W44799   8.344   9.765   1.599 -0.1561 -0.0197  0.0624
29331W        W44800  13.482  15.589   4.798 -0.0477  0.1443 -0.0062
29332W        W44801   1.731   7.369   5.825  0.2322  0.3610 -0.2983
29333W        W44802   9.502   6.982  12.335  0.2104  0.0543 -0.0914
29334W        W44803   3.336   2.782  11.213  0.0167 -0.1875 -0.1352
29335W        W44804   9.817  16.392  15.472  0.1301 -0.0589  0.1910
29336W        W44805   2.170  14.951   1.431 -0.0229 -0.0210  0.0560
29337W        W44806   5.678   6.654   1.791 -0.0316  0.1375  0.0374
29338W        W44807  10.539  14.782   3.084  0.2139  0.0958  0.1354
29339W        W44808  17.079  12.094  14.116  0.0633  0.1078  0.0574
29340W        W44809  11.364   6.856  15.248 -0.2144  0.1432  0.0236
29341W        W44810  14.944   1.134  11.613 -0.0953 -0.2786 -0.0828
29342W        W44811  16.769   6.897  14.659 -0.1271  0.0330 -0.2525
29343W        W44812  10.294  11.509  12.163 -0.3753  0.1905  0.0238
29344W        W44813  10.994  16.522  10.934 -0.0004 -0.2309 -0.2632
29345W        W44814   9.139   9.605   2.796  0.1126 -0.1462  0.0549
29346W        W44815  10.779  13.782   3.219 -0.0844  0.0655 -0.0830
29347W        W44816   7.358   8.447   3.372  0.3892 -0.0292  0.1623
29348W        W44817  11.650  16.412  11.686  0.0474  0.2027 -0.1342
29349W        W44818  16.823   0.174  14.860  0.2421  0.2299  0.4078
29350W        W44819   6.289   1.926   1.292 -0.1032  0.2765  0.0079
29351W        W44820  11.169   9.621  16.065  0.0979  0.0315 -0.1385
29352W        W44821   4.977   3.857  13.783 -0.1293 -0.0461  0.2736
29353W        W44822   7.395  14.596   1.508  0.0540  0.0832 -0.0027
29354W        W44823   2.070  10.838   4.059  0.2347  0.0615  0.0111
29355W        W44824   5.549   8.389   4.756  0.5189 -0.1622 -0.1063
29356W        W44825   4.720  12.140  11.512 -0.0836 -0.4008 -0.0667
29357W        W44826  10.068   9.072  16.021 -0.0790 -0.2699 -0.1271
29358W        W44827  10.605   0.059   1.127  0.0428  0.2695 -0.3317
29359W        W44828  12.043  10.770   1.492  0.1205  0.2270  0.0831
29360W        W44829  15.903   3.307   3.937 -0.0475 -0.1286  0.4307
29361W        W44830   4.784  16.339   3.680 -0.1499 -0.0407  0.1403
29362W        W44831   7.682  13.482   9.637  0.2111  0.0135  0.1322
29363W        W44832  16.224   3.728  13.048 -0.2843 -0.2147  0.0977
29364W        W44833   2.848   8.029   5.547 -0.2953 -0.0541 -0.1333
29365W        W44834   6.018   2.553   4.231  0.0028  0.1730  0.0482
29366W        W44835  16.049  13.065   0.539  0.1525  0.1129 -0.0411
29367W        W44836  10.061  11.927   1.511  0.2602 -0.0725  0.1438
29368W        W44837   8.096   4.035   5.220 -0.3333  0.0942  0.0697
29369W        W44838   7.170  14.571  11.097  0.1536  0.0388  0.1207
29370W        W44839   6.618   0.076   5.293 -0.0663  0.0703  0.0523
29371W        W44840   6.054  11.352  13.903 -0.0720 -0.1244  0.2575
29372W        W44841   0.106   2.816   0.155 -0.1129  0.1279  0.2523
29373W        W44842   9.581   1.518   1.864 -0.0783  0.1334 -0.3479
29374W        W44843   6.895   8.872  11.330  0.0538 -0.3513  0.2310
29375W        W44844   1.936  12.770   4.779  0.0355  0.3294 -0.4045
29376W        W44845   1.122  13.158   1.989 -0.1006  0.0690 -0.3685
29377W        W44846   3.424   5.713  10.698  0.0154 -0.2781  0.3314
29378W        W44847  16.639  17.160  16.082  0.2723 -0.1854 -0.0304
29379W        W44848  13.979   3.868  11.928  0.1862  0.1214  0.2299
29380W        W44849   8.886   7.756   1.192 -0.1532  0.3155  0.1235
29381W        W44850  16.871   0.129  15.358 -0.2982 -0.1953 -0.3860
29382W        W44851   8.192  15.915   2.005  0.0078 -0.0996  0.0311
29383W        W44852   6.918  13.881  11.923 -0.0132  0.0811  0.1406
29384W        W44853  11.142  12.138  10.520  0.1266 -0.1605 -0.0454
29385W        W44854  10.702   8.656  14.458 -0.1190 -0.2093  0.0018
29386W        W44855   3.568  10.926   0.783 -0.1770 -0.1914 -0.1551
29387W        W44856  17.087  17.026  10.981  0.0845  0.4005 -0.1252
29388W        W44857   8.142  14.584  13.465  0.0887 -0.2419  0.1792
29389W        W44858   0.428   1.177   4.087 -0.3397  0.2587  0.0612
29390W        W44859  17.969   0.268   4.763 -0.1526 -0.0576  0.1508
29391W        W44860   4.761  15.427   3.351  0.1759 -0.0761  0.1903
29392W        W44861  15.028   8.105  14.151  0.3694 -0.1143  0.2445
29393W        W44862   9.641   1.924   4.423  0.0616 -0.0868  0.0147
29394W        W44863  17.075  15.243   0.935 -0.0342  0.1955 -0.5234
29395W        W44864   1.056  15.739  13.579  0.2285 -0.1767 -0.2172
29396W        W44865   3.882  14.292  12.183 -0.1044 -0.1735  0.1380
29397W        W44866   0.932   9.890  12.920  0.0593 -0.0536  0.2130
29398W        W44867   9.130  10.191  13.783  0.0944 -0.1091 -0.0854
29399W        W44868   6.992  13.592  15.857 -0.0028  0.0517 -0.1132
29400W        W44869  18.232   3.268  14.279 -0.1492  0.1029  0.1898
29401W        W44870   9.848   0.618   0.817  0.2870  0.1302 -0.1646
29402W        W44871   9.072   5.701   0.930  0.0745 -0.1156 -0.0222
29403W        W44872   3.740  14.034  14.641 -0.1344  0.3408 -0.1172
29404W        W44873   5.043   3.853   1.316  0.1736  0.0347 -0.0395
29405W        W44874   5.380  17.401   5.060 -0.1423  0.1523 -0.0797
29406W        W44875  12.665  15.407   5.439  0.2773  0.2080  0.1872
29407W        W44876  12.126   6.399   0.972 -0.1368 -0.3248  0.2319
29408W        W44877  15.873   1.719  12.349  0.1735 -0.0788 -0.0404
29409W        W44878   7.166   9.871   4.898  0.0589  0.3458 -0.1468
29410W        W44879   4.463  11.951   5.182 -0.0451 -0.1358  0.0835
29411W        W44880  13.988  17.778  13.018 -0.0562  0.0916 -0.1738
29412W        W44881   9.039  14.564  15.692 -0.0995 -0.1446  0.0754
29413W        W44882  15.984  14.582  13.384  0.1980  0.0980  0.2094
29414W        W44883  12.725  11.613   3.320  0.0425 -0.0740  0.0501
29415W        W44884  13.373   0.478   6.411 -0.1822  0.1161  0.0373
29416W        W44885  13.198   1.559  16.173 -0.1503 -0.0811  0.0904
29417W        W44886  15.463   6.277   4.903 -0.0394 -0.1329 -0.1540
29418W        W44887  16.502   3.989   5.325  0.0780  0.0708  0.1370
29419W        W44888  12.029   8.836   5.474  0.0272  0.2059  0.0910
29420W        W44889   7.552   0.801   1.826  0.0352  0.0110  0.0281
29421W        W44890   1.503  12.693   2.926  0.0846 -0.1468 -0.0899
29422W        W44891  10.325   7.546   0.272  0.0808  0.3678  0.0792
29423W        W44892   9.041   8.182   4.699 -0.1192 -0.1913  0.0579
29424W        W44893   0.116   6.355  15.368  0.2598 -0.0953  0.1047
29425W        W44894   5.760  15.546   3.345  0.2854 -0.1524 -0.0885
29426W        W44895   7.142  16.193  11.304 -0.0308 -0.2016  0.1186
29427W        W44896   7.008  17.783  13.723  0.1132  0.0800  0.1154
29428W        W44897  12.214   5.740  11.498  0.0944 -0.3616 -0.0665
29429W        W44898   6.760  17.984  10.766  0.1969 -0.1043  0.1824
29430W        W44899  17.896   8.077   3.967  0.0927  0.0777  0.0906
29431W        W44900   0.366   9.074   3.117  0.0226  0.0747  0.3426
29432W        W44901   4.755  13.834  15.484  0.0556 -0.1474 -0.2296
29433W        W44902   8.150  13.820  11.648  0.0475 -0.1304  0.2760
29434W        W44903   6.327  17.001  11.750 -0.0967 -0.0273  0.1260
29435W        W44904   0.481  10.232   1.136  0.0739  0.0593  0.3339
29436W        W44905  16.567   4.637   9.945  0.0737  0.6694 -0.0187
29437W        W44906  10.230  10.563   3.597  0.0042  0.0980 -0.2081
29438W        W44907   7.993   5.669  12.837  0.1404  0.2910  0.0213
29439W        W44908   9.411   9.341  12.597 -0.2977 -0.1283 -0.1191
29440W        W44909  17.417  12.166  10.930 -0.1393 -0.0518  0.4242
29441W        W44910   2.006   8.507   0.386  0.1454 -0.1925 -0.2683
29442W        W44911  13.323   0.990   1.238  0.0540  0.0118  0.3989
29443W        W44912  13.428  11.360  10.635  0.1551 -0.0911 -0.0569
29444W        W44913  13.091  10.039   2.301  0.0610  0.1731  0.0127
29445W        W44914  16.239   2.929   4.690  0.2359  0.0650  0.0129
29446W        W44915  10.696   5.407  15.724 -0.0445 -0.1003  0.0347
29447W        W44916   6.703   9.298  11.528  0.2502  0.1268 -0.2031
29448W        W44917  17.290   5.601   3.600  0.0443 -0.2036  0.0238
29449W        W44918  16.625   5.705  15.482 -0.0849 -0.0679  0.2448
29450W        W44919   0.523   4.251   0.621  0.3252 -0.3179 -0.2855
29451W        W44920   4.058   2.903  15.149  0.0136 -0.1660 -0.0185
29452W        W44921   5.208  11.807  13.911 -0.1408  0.0503 -0.0689
29453W        W44922  13.711   5.445   4.893  0.1607  0.0169 -0.0307
29454W        W44923   4.440  12.561   0.622 -0.0931 -0.2726 -0.1306
29455W        W44924   5.563  16.645   0.636  0.0062  0.2976 -0.0543
29456W        W44925   3.393   2.954  13.707 -0.1615 -0.0577  0.0909
29457W        W44926  16.556  10.193  15.267  0.0327 -0.1240  0.1937
29458W        W44927   3.840   7.988   1.813 -0.1407  0.1803  0.2762
29459W        W44928   4.500  16.449   0.375 -0.1558  0.1203  0.2530
29460W        W44929   6.815  13.489   0.983  0.1563 -0.3129 -0.1474
29461W        W44930   7.415   6.102  16.065  0.0792  0.1271  0.2179
29462W        W44931  18.259  12.810  14.325  0.4262 -0.3891  0.0605
29463W        W44932  14.589   7.156   5.776 -0.6392 -0.1536 -0.1580
29464W        W44933   4.356   1.981   3.691  0.3133  0.1554 -0.0078
29465W        W44934  12.029   6.397  12.752  0.1422  0.0430 -0.0720
29466W        W44935  17.794  15.578   4.102 -0.1334 -0.0882 -0.1623
29467W        W44936   9.430   9.959  14.611 -0.1214 -0.2526  0.0621
29468W        W44937   0.386   1.212  14.484 -0.0042  0.0194  0.0019
29469W        W44938   5.694  15.037  10.654  0.1542  0.1434 -0.0417
29470W        W44939  16.818  16.232  11.723  0.1811 -0.0431 -0.0027
29471W        W44940   9.302   1.456   5.040  0.1818 -0.2112  0.1241
29472W        W44941   9.785  15.220   4.872  0.1340  0.0002 -0.1232
29473W        W44942   7.304   9.790  12.598  0.2226 -0.0785 -0.0438
29474W        W44943   2.802   1.907  12.478 -0.1006  0.1041 -0.2409
29475W        W44944   8.517  16.460  11.142  0.2591 -0.4179  0.1621
29476W        W44945  16.239  14.324   0.416  0.4441  0.1950  0.0738
29477W        W44946  15.241   5.247   3.060  0.0499 -0.0269 -0.2496
29478W        W44947   7.173  15.618   1.186 -0.0331  0.0134 -0.0113
29479W        W44948   9.548  13.923   1.116 -0.1344 -0.1593 -0.0467
29480W        W44949   0.942   3.791   3.962 -0.1754 -0.3236  0.1778
29481W        W44950  15.573  13.412   5.100  0.0643 -0.4758 -0.0372
29482W        W44951  16.119   8.857   4.077  0.0667 -0.4253  0.1751
29483W        W44952  16.024   9.523   0.526  0.1561 -0.2555  0.1150
29484W        W44953   3.657  12.509   4.802  0.1095 -0.2288  0.1662
29485W        W44954  15.550  15.749   1.066  0.1289  0.1479 -0.1840
29486W        W44955  10.182   4.332   2.521 -0.3113 -0.0543  0.0376
29487W        W44956  16.673  10.160  14.447  0.1561 -0.1589  0.1585
29488W        W44957  15.492  16.569   1.344  0.0896  0.0176 -0.4329
29489W        W44958   4.181  10.928   0.658  0.0227  0.0195  0.1035
29490W        W44959   2.541   5.861   1.573 -0.0550 -0.1899 -0.2181
29491W        W44960   6.278   6.475  11.714  0.2303  0.2420 -0.1784
29492W        W44961  12.340   1.558   4.127 -0.0545  0.0638  0.2602
29493W        W44962   0.736  16.017   2.154  0.0500 -0.4131 -0.0888
29494W        W44963   0.565  17.776   1.245  0.4232 -0.1790 -0.1096
29495W        W44964  15.646  16.157   5.482 -0.1923 -0.1789  0.1493
29496W        W44965  10.469   1.455  14.841  0.0194  0.4513  0.0432
29497W        W44966  13.348   1.891   3.064 -0.0030 -0.0443  0.3211
29498W        W44967   4.575  11.727   1.765  0.1048  0.2433 -0.1908
29499W        W44968   0.475  10.877  12.011 -0.0913  0.0531 -0.1999
29500W        W44969   6.274  13.641   2.394 -0.0353 -0.2040  0.0355
29501W        W44970   5.685  17.508  14.631  0.1004 -0.0617 -0.1642
29502W        W44971  13.172  13.721  16.104  0.1662  0.0652  0.0474
29503W        W44972  10.915  13.451   0.636  0.0515  0.1076  0.0340
29504W        W44973   3.222   2.661   3.339  0.0724 -0.1349 -0.2078
29505W        W44974   0.515   5.212  13.632  0.0261  0.2532  0.2792
29506W        W44975   1.635  13.260   3.700  0.1195  0.0374 -0.1016
29507W        W44976  11.807   2.764  14.500  0.1051 -0.2521 -0.2611
29508W        W44977   3.076  11.436   2.758 -0.1816 -0.1107 -0.0034
29509W        W44978  17.474  12.169   5.594 -0.1751 -0.2947  0.1720
29510W        W44979   6.126   2.426   0.765  0.3000 -0.1097  0.0776
29511W        W44980   4.901  17.561   2.319  0.1047  0.0035 -0.0870
29512W        W44981   7.042  18.200  12.419  0.1124  0.1564 -0.1213
29513W        W44982   5.482   4.554  13.968 -0.0373  0.2591  0.3231
29514W        W44983   9.353  10.837   1.293  0.1146 -0.1417 -0.3553
29515W        W44984  16.927  15.134  11.036 -0.0487  0.0223 -0.1284
29516W        W44985   0.254  16.879   3.523 -0.3155 -0.0352  0.2870
29517W        W44986  10.749   6.573   0.328 -0.1530  0.1278  0.0289
29518W        W44987   6.461   6.386   1.229 -0.2038 -0.0337 -0.2823
29519W        W44988  17.334  12.516  13.246 -0.0665  0.1354  0.1277
29520W        W44989  15.045   0.193   4.948  0.1436  0.0097 -0.0655
29521W        W44990   0.786  11.299   4.114  0.0946  0.0046  0.0916
29522W        W44991  14.702  14.010   5.955  0.2531 -0.0540  0.1413
29523W        W44992   0.625   6.905   3.232  0.1903 -0.1188 -0.2089
29524W        W44993   7.406   1.411  14.703 -0.1517  0.0908  0.1200
29525W        W44994   3.457  11.847  12.488  0.0213  0.3194  0.0779
29526W        W44995   9.087  10.218  12.158 -0.2226 -0.1676  0.1064
29527W        W44996   9.264   3.578  16.076  0.0266 -0.1053  0.0304
29528W        W44997   1.349   2.847   2.824 -0.2323  0.5719  0.1473
29529W        W44998   2.629   8.093   4.221  0.0122  0.1711 -0.0192
29530W        W44999   3.544   5.721  11.865  0.2710  0.2377  0.2224
29531W        W45000  13.650   5.557   1.691 -0.2334 -0.0087 -0.2182
29532W        W45001   1.191  11.856   2.003  0.0978 -0.1178 -0.0175
29533W        W45002   0.088  10.077  14.019  0.1579  0.1184 -0.1059
29534W        W45003   8.449  17.820  11.161  0.6381  0.1605  0.1448
29535W        W45004  16.679   6.522   5.246  0.1457  0.3889 -0.1832
29536W        W45005   0.585  13.764   3.353  0.0191  0.1784  0.2899
29537W        W45006  14.142   9.221   4.334  0.0080  0.0657  0.0997
29538W        W45007   5.830   4.085   6.005 -0.1456  0.1392 -0.1040
29539W        W45008   5.362  17.353  12.789 -0.0226 -0.2905  0.0417
29540W        W45009   1.096   8.702   2.383  0.2048  0.2237 -0.2028
29541W        W45010  17.407   7.470  16.026  0.0781 -0.0806 -0.0144
29542W        W45011  14.869   5.048  14.935  0.0284 -0.0069  0.0688
29543W        W45012   5.170   8.057   1.203  0.0575  0.1294  0.1270
29544W        W45013  14.939   9.146  14.381  0.0907 -0.0061  0.3691
29545W        W45014  16.117  16.859   5.793 -0.0200 -0.2936  0.0730
29546W        W45015  16.461  13.142  15.993 -0.1253  0.2575  0.2211
29547W        W45016   1.205   7.190  14.561 -0.0373  0.1545 -0.1298
29548W        W45017  17.774   9.898  15.293  0.0839  0.0182  0.3344
29549W        W45018   3.969  16.726   1.996  0.0835 -0.2172  0.1184
29550W        W45019  15.620   4.097  11.812  0.0378  0.1047 -0.0789
29551W        W45020   6.492  17.888   9.809  0.4377 -0.0471 -0.1421
29552W        W45021  17.099  13.538  12.898  0.3094  0.0214 -0.1157
29553W        W45022   6.064   7.913   3.039 -0.0248  0.2298  0.0472
29554W        W45023   0.919  14.073  13.267  0.1249  0.0701 -0.3075
29555W        W45024   8.474   5.258   2.202  0.0119  0.0469 -0.0580
29556W        W45025   9.913  13.400  13.135 -0.1348  0.2120 -0.1963
29557W        W45026   3.370   6.850   5.199  0.2976 -0.1931 -0.0627
29558W        W45027   2.920  15.892   2.458 -0.1440 -0.1263 -0.3219
29559W        W45028  12.701   7.850   2.604 -0.1202 -0.0917 -0.0410
29560W        W45029   4.032   6.719   2.095  0.2085 -0.2116  0.2489
29561W        W45030  17.380   0.331  11.342  0.2118  0.2307  0.2082
29562W        W45031  17.651  17.994   1.054 -0.0711 -0.2646 -0.2034
29563W        W45032  10.144   5.521  15.870  0.1799 -0.2607  0.1176
29564W        W45033   9.820   5.482  13.337  0.2642 -0.2930 -0.0905
29565W        W45034   0.214   0.057   1.869  0.0634 -0.0222  0.0348
29566W        W45035  14.246  17.587  14.333  0.1497 -0.0619 -0.1769
29567W        W45036   5.757   6.751  15.555  0.0105 -0.0384 -0.3943
29568W        W45037  13.789   0.315  11.820  0.1835  0.2206 -0.1952
29569W        W45038  15.017   1.956  16.028  0.1378  0.1070 -0.0503
29570W        W45039   3.800   3.162  14.332 -0.1240  0.1749 -0.2882
29571W        W45040  13.326  11.614  13.876 -0.1083 -0.1838  0.3964
29572W        W45041  13.658   3.713   1.137 -0.0494 -0.1386  0.0582
29573W        W45042   5.894  11.645   0.122 -0.0014 -0.0983  0.3485
29574W        W45043   5.219   5.746  12.272  0.0790 -0.3796  0.3010
29575W        W45044   4.068   8.749   3.482  0.3041  0.0026 -0.1286
29576W        W45045  13.035  13.854  13.937  0.0571  0.2474  0.2049
29577W        W45046   3.875   6.316   2.815  0.0105  0.0785  0.0923
29578W        W45047  18.265   4.527  15.167  0.0226  0.0608  0.2416
29579W        W45048   9.641   8.672  13.959 -0.2316 -0.1040 -0.0378
29580W        W45049   6.737  10.819   0.964  0.1821 -0.0476  0.1158
29581W        W45050   0.547  11.229  11.078 -0.2365 -0.0517 -0.1989
29582W        W45051  13.239  13.501  11.420  0.0144 -0.0352  0.0182
29583W        W45052  15.571  11.314   2.353  0.1759 -0.1259 -0.2224
29584W        W45053   4.089  11.148   4.782 -0.1108 -0.3299 -0.0431
29585W        W45054   2.873  13.642   4.527  0.0135  0.0613 -0.1455
29586W        W45055  10.923   6.724  12.079  0.1565 -0.1678  0.0030
29587W        W45056  10.683  15.401   4.769 -0.1518 -0.0956 -0.0560
29588W        W45057   8.414   6.625  13.039  0.0808 -0.1396  0.1465
29589W        W45058  12.341   3.387  13.578 -0.2282 -0.1368 -0.0275
29590W        W45059   0.151   8.066  14.600 -0.0191  0.0330  0.0790
29591W        W45060   1.642  13.537  16.073 -0.0230  0.2529  0.1038
29592W        W45061  15.822  12.752   5.712  0.0661 -0.1070 -0.0492
29593W        W45062   5.104   1.703  15.189  0.2594  0.1720 -0.0872
29594W        W45063   6.783  17.075  13.045 -0.0996 -0.2643  0.1514
29595W        W45064   8.850   5.351  14.051  0.0132  0.1306  0.0499
29596W        W45065   4.436   3.031   3.082 -0.2137  0.2623  0.0609
29597W        W45066   7.532  11.341   3.093  0.0140 -0.0775  0.1186
29598W        W45067   4.575  15.184  13.923 -0.3582  0.2883 -0.0107
29599W        W45068   9.148   9.331   5.007 -0.3156  0.1022 -0.1599
29600W        W45069   1.707   2.337  12.943 -0.0644  0.3383 -0.0607
29601W        W45070   5.422   9.692   0.324 -0.0939  0.4043  0.0544
29602W        W45071  17.006  15.288  12.860 -0.2212 -0.3435 -0.1280
29603W        W45072   8.777   4.481   0.651  0.1799 -0.1638 -0.1412
29604W        W45073  13.611  11.061  16.140 -0.1282 -0.1085  0.1129
29605W        W45074  18.000  17.243  12.144  0.1750  0.0433  0.0349
29606W        W45075   7.862  10.621   4.731  0.2370  0.3065 -0.1242
29607W        W45076  15.540  13.476  11.716 -0.0497  0.1134  0.1532
29608W        W45077  10.124   6.699   5.642  0.1368  0.2053  0.0410
29609W        W45078  17.100  12.741  11.243  0.5013 -0.0992 -0.0487
29610W        W45079  13.042  12.378  10.833 -0.0205 -0.2048 -0.2742
29611W        W45080  15.399  15.318  13.111 -0.0593  0.2638 -0.0207
29612W        W45081   4.943   8.317   3.795  0.3323  0.0852 -0.0503
29613W        W45082   9.310  11.833   5.559 -0.0278  0.0187 -0.0509
29614W        W45083   4.714  14.585  11.502 -0.0194 -0.3811  0.2947
29615W        W45084  18.073   2.062  14.395  0.4751  0.0166  0.0207
29616W        W45085   1.792   6.833  12.893 -0.1372  0.0338  0.2378
29617W        W45086   4.768   4.062   3.511  0.1923 -0.0240  0.2125
29618W        W45087   1.028  11.734   5.268 -0.1580  0.2216 -0.0976
29619W        W45088   2.341   8.643   3.580 -0.0993 -0.1692  0.1847
29620W        W45089   4.855  17.965   1.975 -0.1328  0.1797 -0.1562
29621W        W45090  13.729   7.163   5.704 -0.0176 -0.0218 -0.1009
29622W        W45091  12.335  16.765   5.291 -0.0631 -0.1568  0.3093
29623W        W45092   4.008   6.522  13.936  0.0786 -0.3747  0.1360
29624W        W45093  15.156   9.945   0.473 -0.1749 -0.2609 -0.0985
29625W        W45094  10.630  13.854  15.306  0.0646  0.1618  0.1292
29626W        W45095  10.166  16.100   1.767  0.1039 -0.1019 -0.1832
29627W        W45096  12.967   0.508  13.362 -0.0290  0.0518 -0.1383
29628W        W45097   3.412  14.926  12.553  0.0524  0.1706 -0.0503
29629W        W45098  14.653   6.320   0.557 -0.2034 -0.0891  0.1305
29630W        W45099  18.193   6.089  14.330  0.0748  0.2452  0.0758
29631W        W45100   5.492   1.178   2.845 -0.0272 -0.1727  0.0813
29632W        W45101   1.589  11.146   1.961  0.0390  0.0385 -0.0376
29633W        W45102  10.222   1.298   0.434 -0.0175 -0.1751  0.0377
29634W        W45103   3.267  10.006   0.163  0.3108 -0.1081  0.1660
29635W        W45104  11.330   0.335  13.436  0.2361 -0.1631 -0.2151
29636W        W45105   1.423  12.671   1.695  0.1767  0.2110 -0.0721
29637W        W45106   1.845   5.111  12.471 -0.0499  0.2466 -0.0028
29638W        W45107  11.311   2.860  14.594 -0.1324  0.1106  0.2667
29639W        W45108  16.053   5.953  13.473 -0.1343 -0.2489  0.2218
29640W        W45109   7.376  12.424   1.705 -0.0272  0.2192 -0.0895
29641W        W45110   1.048  11.465   5.667  0.0304  0.0048 -0.0399
29642W        W45111   4.876   8.193   2.021 -0.0236 -0.2557  0.2470
29643W        W45112   2.135  18.294  10.602 -0.0392  0.3024  0.0849
29644W        W45113  16.282  16.864  15.859  0.0352 -0.2676  0.0399
29645W        W45114  11.029   9.433  10.847  0.0916 -0.0866  0.0128
29646W        W45115   0.725   0.679  15.067  0.0071  0.0492 -0.3421
29647W        W45116  15.552   0.934   5.573 -0.2604  0.0816 -0.0585
29648W        W45117  16.279   7.408   0.729  0.0328  0.0939  0.2617
29649W        W45118  14.281  12.472  13.302  0.0591 -0.1148  0.1730
29650W        W45119  10.393  13.574   3.534  0.1472 -0.1426 -0.1561
29651W        W45120   8.640   7.885  13.946 -0.0694 -0.2758  0.0371
29652W        W45121   3.451  15.910  11.996  0.0011 -0.1100  0.0803
29653W        W45122   4.336  12.131   3.133 -0.1375  0.0066  0.0968
29654W        W45123   0.033   5.922   4.165  0.1441 -0.0570 -0.1574
29655W        W45124   3.020  11.416  10.156 -0.0069 -0.0992  0.0058
29656W        W45125  17.071   9.820   2.486 -0.0267  0.1553  0.0401
29657W        W45126   2.655  14.302  15.579  0.1983 -0.1122  0.0903
29658W        W45127   8.260  12.307  13.611  0.2922  0.0524 -0.0614
29659W        W45128   0.040  12.595   4.805 -0.0170  0.2866  0.0126
29660W        W45129  16.906   0.891  11.378 -0.0786  0.0383  0.1258
29661W        W45130  10.628   0.948   4.889 -0.0334 -0.0192  0.1523
29662W        W45131   4.903   9.101  13.681 -0.0623 -0.0917 -0.0856
29663W        W45132   7.226  14.555   4.792  0.0111 -0.1721 -0.1618
29664W        W45133  13.354   8.104   3.331 -0.1877  0.1305 -0.1096
29665W        W45134   0.941  16.472   3.334  0.2810  0.0397 -0.1108
29666W        W45135   4.736   8.735  12.693  0.4273 -0.2214 -0.3053
29667W        W45136  10.864   2.751   1.673 -0.2609  0.3292 -0.0468
29668W        W45137   6.301  15.067   4.341  0.3162  0.2400 -0.0747
29669W        W45138   2.670   5.909  12.094  0.2135 -0.1000  0.1938
29670W        W45139  10.139   8.647  14.115  0.2496  0.0316 -0.0059
29671W        W45140  16.928   7.223   4.714  0.0523  0.1496  0.1228
29672W        W45141   3.041  17.679   2.762 -0.1353  0.1018 -0.1639
29673W        W45142   0.789   6.105  11.535  0.1685 -0.4446  0.0369
29674W        W45143   4.312   4.093   3.678  0.1583  0.1447  0.2450
29675W        W45144   9.878  14.435  10.166  0.4948 -0.2795 -0.2570
29676W        W45145   8.294   4.685   3.728  0.1648  0.4915 -0.1517
29677W        W45146   5.210  15.394   4.991  0.3232  0.0274 -0.2286
29678W        W45147  14.534   8.622  12.200  0.2434 -0.1046 -0.1698
29679W        W45148   7.312   0.755   0.126 -0.1318  0.1136 -0.1830
29680W        W45149  13.879   3.411   3.497  0.1487 -0.6037  0.1992
29681W        W45150  16.739  17.382   3.017  0.0799  0.2946 -0.1517
29682W        W45151  10.856   5.455  11.227  0.1572  0.0047  0.1661
29683W        W45152  11.807  12.109   4.277 -0.2317  0.1918  0.2660
29684W        W45153   4.750   2.535   4.335  0.0048 -0.0678  0.3582
29685W        W45154  17.404  17.204  15.023  0.0779 -0.1499  0.0640
29686W        W45155   3.864  11.988   0.732 -0.4664 -0.3137  0.0792
29687W        W45156  12.365  12.234  16.151 -0.2386  0.1276 -0.0617
29688W        W45157   7.535   8.456  14.260  0.0335 -0.1368  0.1374
29689W        W45158   5.869  13.180  15.150  0.0902 -0.1272 -0.1203
29690W        W45159  13.670   5.193  11.894 -0.3016  0.2206  0.1562
29691W        W45160  11.037  10.350  15.193  0.4966  0.1148  0.1206
29692W        W45161  16.984  17.697  12.706 -0.0908 -0.0059  0.0179
29693W        W45162  12.151  17.647   6.226  0.0773 -0.1300  0.1518
29694W        W45163   0.667  17.509  12.258 -0.3079 -0.1182 -0.2596
29695W        W45164  11.049  16.372   0.727 -0.4870  0.0402  0.1292
29696W        W45165   0.216  14.202   5.559  0.0870  0.0034 -0.0055
29697W        W45166   8.605  16.046  15.167 -0.1709 -0.1551 -0.0183
29698W        W45167   7.294  14.054  12.179 -0.3781 -0.1686  0.1139
29699W        W45168  17.148   3.108   1.429 -0.1466  0.2151  0.2020
29700W        W45169  15.677   9.669   0.154  0.3453 -0.2211  0.2540
29701W        W45170   0.503   9.022   0.438 -0.4609  0.1415 -0.1431
29702W        W45171  13.632  12.287  12.354 -0.2185  0.0394  0.0152
29703W        W45172   9.143   4.410  13.887  0.0878 -0.1922  0.1937
29704W        W45173   5.471  11.672   1.637 -0.2274  0.5001 -0.2406
29705W        W45174  16.893   3.139  14.733 -0.0160  0.0978  0.1373
29706W        W45175   4.182  14.825   0.635  0.1575  0.0994 -0.3597
29707W        W45176   9.198  17.448  13.371 -0.1214 -0.3635 -0.0027
29708W        W45177   4.694  11.852   0.890 -0.1749  0.0401 -0.2158
29709W        W45178  16.003   8.764  15.387  0.3240 -0.0555  0.2897
29710W        W45179   7.417   5.023   1.962 -0.1729 -0.0787  0.0243
29711W        W45180   7.544  14.196   5.576 -0.0495 -0.1464  0.1464
29712W        W45181   0.785   7.917   1.898  0.0511  0.5181  0.0963
29713W        W45182  10.591   6.136   0.160  0.0502 -0.1704 -0.1754
29714W        W45183  17.323   8.395   1.473  0.0530 -0.2112  0.0096
29715W        W45184  12.244   4.691  15.223  0.1504 -0.2326  0.0313
29716W        W45185   2.083  18.153   3.970 -0.0261  0.2754  0.0117
29717W        W45186   3.979  12.607   2.382  0.3551 -0.3924  0.0032
29718W        W45187   6.444  12.148   4.345  0.1653 -0.0235  0.2486
29719W        W45188  13.663  13.602  14.824 -0.1237  0.1129  0.2708
29720W        W45189   4.332  12.572   4.747 -0.2253 -0.0829  0.2323
29721W        W45190   4.655   1.382   2.214 -0.1928 -0.0763  0.1526
29722W        W45191  16.365   7.118   1.088 -0.0000  0.1675 -0.2382
29723W        W45192  14.229  11.386   5.427 -0.0730  0.1448  0.2600
29724W        W45193  14.121  15.035   1.633 -0.4342 -0.1271  0.0382
29725W        W45194   0.492  11.242  14.252  0.2622  0.1668  0.1331
29726W        W45195   6.878  14.407   4.510 -0.2013  0.3347 -0.2950
29727W        W45196  14.463  11.362   1.836  0.0420  0.0796  0.0858
29728W        W45197  15.455   5.117  10.422 -0.0404  0.0641 -0.0995
29729W        W45198   9.647   0.223  12.704 -0.1256 -0.1906 -0.3199
29730W        W45199  13.884  18.055  11.201 -0.0915 -0.0176  0.3196
29731W        W45200   8.067  16.175   0.182 -0.3149  0.1389 -0.1766
29732W        W45201   0.863  14.614   3.328  0.1223  0.0338 -0.0027
29733W        W45202   0.973  16.728   4.184  0.0037 -0.0047 -0.2956
29734W        W45203  12.821  14.595   1.328 -0.1586 -0.0985 -0.6006
29735W        W45204  15.966   7.240  14.462  0.1474  0.0797 -0.0809
29736W        W45205   8.409  10.589   5.493  0.1461  0.2218 -0.2154
29737W        W45206   4.580   0.154   5.072 -0.1993 -0.1599 -0.2966
29738W        W45207   6.836  15.882  15.776  0.0974  0.1559  0.0691
29739W        W45208  18.168  13.620   4.934  0.2867  0.0995  0.0051
29740W        W45209   1.511   8.673   2.074  0.0023 -0.0724  0.1878
29741W        W45210   1.867   9.610   0.211 -0.2807  0.0525  0.3466
29742W        W45211  15.629  12.755  15.020 -0.0858 -0.0265  0.1425
29743W        W45212   2.095  12.003   0.666  0.0512 -0.0435 -0.0936
29744W        W45213   4.005   4.334  15.028 -0.2384 -0.0687  0.2410
29745W        W45214  10.127  16.865  16.071  0.1225 -0.1147  0.0004
29746W        W45215   5.296  11.374  16.157 -0.1845 -0.1988 -0.0418
29747W        W45216   7.460  17.585  15.098 -0.0708  0.0371  0.0582
29748W        W45217  11.475   9.267   3.836 -0.1363 -0.2703  0.0535
29749W        W45218  11.244   3.341  13.887 -0.0128 -0.3038  0.1429
29750W        W45219   3.221  12.239  13.148 -0.1388 -0.1048  0.1294
29751W        W45220   3.174  11.728   4.748 -0.0193  0.2766  0.0832
29752W        W45221  17.516  15.872  15.911 -0.0026  0.1852  0.0977
29753W        W45222  14.645   7.495   5.379  0.0806 -0.2857 -0.1016
29754W        W45223   3.254  14.340   2.397  0.0235 -0.1728  0.0327
29755W        W45224   4.880   6.155   4.629 -0.1675 -0.2730  0.1099
29756W        W45225  10.895   6.748  15.085 -0.3027  0.1398  0.0486
29757W        W45226   2.353   4.175  11.093 -0.5287  0.0395  0.0187
29758W        W45227  13.808   5.975  11.521 -0.0937  0.3334  0.4091
29759W        W45228  14.682   5.240   3.163  0.0240 -0.1565  0.1702
29760W        W45229  11.060   0.112   4.706 -0.0594 -0.0420 -0.1576
29761W        W45230  11.656   4.390  11.018 -0.2669  0.0377 -0.0427
29762W        W45231   0.575  17.586   1.695 -0.3605 -0.1681 -0.0913
29763W        W45232   2.293   0.791   0.855 -0.0358 -0.0526 -0.4868
29764W        W45233   4.275  13.372  12.111  0.1118  0.0913  0.0514
29765W        W45234  12.910   7.439   3.989  0.0643 -0.2902 -0.3118
29766W        W45235  11.416  11.479  13.550  0.0044 -0.0490 -0.1543
29767W        W45236  12.109   4.766   0.533  0.1179  0.0740 -0.4304
29768W        W45237  15.427   5.146   4.628 -0.0599  0.1488 -0.0256
29769W        W45238  14.528   2.262   4.752  0.1590  0.2072  0.0227
29770W        W45239  11.636   7.752  10.878  0.0623  0.3624  0.1738
29771W        W45240  14.541   4.159   1.152 -0.3532 -0.0789  0.1684
29772W        W45241   9.710   7.695   4.582  0.0842  0.0866  0.3532
29773W        W45242  12.055  13.009   2.863  0.1389 -0.0007  0.4562
29774W        W45243   7.836   8.588   2.170 -0.1285 -0.1739  0.0122
29775W        W45244  11.525   9.309  11.050  0.1577  0.0634  0.3507
29776W        W45245   6.676  11.591  15.559  0.0478 -0.1379 -0.0758
29777W        W45246   4.137  13.112   3.222 -0.0153 -0.1816  0.2415
29778W        W45247   3.757   0.292   5.033 -0.0979  0.2299  0.3221
29779W        W45248  16.478  16.942  10.322  0.0139  0.1990  0.2400
29780W        W45249  14.745   7.194  11.078  0.1112 -0.2034 -0.0563
29781W        W45250  15.763   5.553   0.886  0.0654 -0.3610 -0.1852
29782W        W45251  10.501   6.173  14.473  0.0497 -0.1525 -0.0987
29783W        W45252  11.091   0.019   0.906 -0.3301 -0.0006 -0.1179
29784W        W45253  12.833   6.063   2.061  0.3278 -0.0508  0.0809
29785W        W45254  16.851  10.952  11.356  0.1488 -0.0748  0.0066
29786W        W45255   9.147  17.950  11.757  0.2505  0.2337  0.3166
29787W        W45256   9.496  12.027  13.290  0.2041  0.3693  0.3087
29788W        W45257   7.738   6.795  11.821 -0.2205  0.1719  0.1565
29789W        W45258  11.903   5.671  14.158 -0.0119  0.1841 -0.0790
29790W        W45259  18.301   2.246   1.396 -0.1837 -0.2066  0.1551
29791W        W45260   1.975   2.477   1.068  0.0978  0.1478  0.2304
29792W        W45261  14.623  10.230   4.954 -0.0101 -0.2757 -0.0667
29793W        W45262   3.676  18.190   4.068  0.1326  0.1767  0.0516
29794W        W45263  12.763   2.486  12.703  0.0893 -0.0308 -0.0348
29795W        W45264  14.453  10.852   2.986 -0.0701  0.0349 -0.1785
29796W        W45265  11.265   5.328   5.438  0.0101 -0.1132 -0.0479
29797W        W45266   0.526  14.969   5.104 -0.3490  0.0601  0.1137
29798W        W45267   3.399   3.468  14.595  0.1065 -0.0989 -0.2247
29799W        W45268  14.538   4.469  14.389  0.1572  0.0762  0.1402
29800W        W45269  17.426   6.420  14.700 -0.1556 -0.0939 -0.3904
29801W        W45270  17.679  11.006   2.399 -0.0109 -0.0141  0.0511
29802W        W45271  10.565  16.988  11.684 -0.4425  0.1432  0.1499
29803W        W45272   6.135  12.394  12.315 -0.0053 -0.0101 -0.0650
29804W        W45273  14.862   3.200   4.256 -0.0368 -0.2181 -0.1232
29805W        W45274   1.040   2.008  14.605  0.0316  0.0850 -0.0423
29806W        W45275   1.250  14.335   2.843 -0.1042  0.2203  0.1603
29807W        W45276   0.251   6.612   2.226 -0.1096  0.2661 -0.1078
29808W        W45277   3.587  12.335   2.595  0.0716 -0.0980  0.3091
29809W        W45278  13.448   6.315   3.835  0.3015 -0.3026  0.0592
29810W        W45279   4.132   3.960   5.414 -0.0546  0.3366  0.0370
29811W        W45280  10.200  10.626   0.420 -0.2009  0.0681  0.1041
29812W        W45281  13.358   7.807  10.068  0.2446 -0.1158 -0.1380
29813W        W45282  17.221  18.007   1.424  0.0805  0.1697  0.1102
29814W        W45283  13.121   4.857  12.642  0.0035 -0.1966  0.1820
29815W        W45284  16.904   7.449  16.078  0.3308  0.2288 -0.0740
29816W        W45285   8.275   2.800  15.129  0.0792  0.0181 -0.4952
29817W        W45286   8.579   2.565   4.639  0.1529  0.0635  0.2139
29818W        W45287   3.010   0.271  15.252 -0.1624 -0.0976 -0.0429
29819W        W45288  11.056  16.030  13.351  0.0129  0.5118 -0.2550
29820W        W45289  15.539   7.411   0.214  0.1484 -0.1323  0.0831
29821W        W45290  13.387  10.327  14.942  0.0711 -0.0098 -0.0159
29822W        W45291  14.084  15.130   2.452  0.1339  0.0737  0.3186
29823W        W45292  15.310   2.395  13.095 -0.0137 -0.0779 -0.4092
29824W        W45293   5.091  12.372  11.216 -0.2243 -0.2154  0.0780
29825W        W45294  13.468   0.621  12.626  0.0938 -0.0035  0.0983
29826W        W45295  13.188   1.620   3.590 -0.1413  0.0529  0.0142
29827W        W45296  17.308   3.574  14.065  0.4519  0.0183 -0.2381
29828W        W45297   8.390   3.680  16.043  0.3117 -0.2239 -0.0670
29829W        W45298  10.740   9.027  10.767  0.0466  0.0332 -0.0726
29830W        W45299   2.096   7.049   5.479 -0.3531 -0.1140  0.0801
29831W        W45300   8.092  13.484  11.181 -0.0585  0.2277 -0.0677
29832W        W45301  17.310  15.540  15.610 -0.0292  0.3006  0.2476
29833W        W45302   1.446  16.498   2.470 -0.0411 -0.3528  0.0168
29834W        W45303   2.497  17.521  16.166  0.1141  0.0292 -0.2385
29835W        W45304   5.763   8.941   2.843 -0.0183  0.2036 -0.1182
29836W        W45305  10.082   8.441   4.745 -0.0164 -0.1053 -0.0575
29837W        W45306   6.664  13.378   2.582 -0.1799 -0.1143  0.1836
29838W        W45307   0.945  15.145   0.998 -0.2656  0.1036  0.1329
29839W        W45308  11.477  11.004   2.991  0.0594  0.1657 -0.0949
29840W        W45309  11.115   2.951   2.136 -0.1203  0.0461  0.0305
29841W        W45310  15.827   6.187  11.844 -0.0110 -0.0371 -0.1149
29842W        W45311   9.220   5.024   1.777 -0.0365  0.0504 -0.2124
29843W        W45312  11.396   0.900   0.892 -0.0302  0.0391 -0.0413
29844W        W45313   1.621  13.326  14.704  0.1670 -0.1578 -0.1430
29845W        W45314   8.560  15.428  15.922  0.0453 -0.0959 -0.1910
29846W        W45315   4.235   0.702  10.753  0.0582 -0.1227  0.2049
29847W        W45316   8.856  10.584  12.924 -0.0109 -0.2839  0.0314
29848W        W45317  10.207   4.109  13.909 -0.1502 -0.1816 -0.0950
29849W        W45318  14.597   1.243   6.318  0.1783  0.0838  0.1575
29850W        W45319   5.220  10.444  13.396  0.1686  0.1179 -0.0969
29851W        W45320  13.307  13.417  15.117  0.0376 -0.2403  0.1435
29852W        W45321   4.144  12.738  10.360  0.0937 -0.1730 -0.2243
29853W        W45322  15.087   2.285   0.353 -0.3676  0.3536  0.1856
29854W        W45323   3.074   2.325  11.612 -0.4328  0.0512  0.1147
29855W        W45324   3.318   9.562  14.780  0.1819 -0.1028  0.2507
29856W        W45325   3.418   3.959   0.324  0.1474 -0.3444 -0.2082
29857W        W45326   2.507  10.533   3.152  0.1948 -0.2115 -0.0339
29858W        W45327   7.145  13.144  12.928 -0.1748  0.0043 -0.1497
29859W        W45328  11.940  18.071  15.379 -0.1243 -0.4120  0.0262
29860W        W45329   5.978  15.791   2.461 -0.1294  0.2989  0.2401
29861W        W45330  13.508  16.941   4.873  0.0452 -0.0185 -0.0071
29862W        W45331   3.615   8.439  11.196 -0.4288  0.2244  0.1734
29863W        W45332   5.061   2.010  15.582  0.1133 -0.1097  0.0714
29864W        W45333   9.204   1.846  15.988 -0.0778 -0.0643  0.1612
29865W        W45334   7.017  13.237  13.405  0.0430 -0.3215  0.0349
29866W        W45335   2.267   8.620  11.550 -0.0496  0.0169 -0.0431
29867W        W45336  15.129  13.460  13.035  0.0418  0.1371 -0.0490
29868W        W45337   7.247   3.415   1.804  0.2714 -0.2642  0.0945
29869W        W45338  12.674   8.576  14.294  0.1017 -0.2458 -0.2824
29870W        W45339  17.440   8.648  12.772  0.3795  0.2464  0.0773
29871W        W45340   7.776  12.193   0.476 -0.0860 -0.3503  0.0336
29872W        W45341  16.774   9.894  13.544 -0.3939  0.0318 -0.1172
29873W        W45342  13.564   6.179  15.636 -0.1029 -0.1044  0.1882
29874W        W45343  12.381   5.505   1.732 -0.1139 -0.0508 -0.1180
29875W        W45344   4.591   1.890   4.177 -0.1812  0.3163  0.2030
29876W        W45345   8.517   5.755  12.942 -0.0390  0.3722  0.1396
29877W        W45346   1.945   0.325   4.845  0.3484 -0.1817 -0.2757
29878W        W45347  10.838   2.290   0.288  0.0997  0.1569 -0.0352
29879W        W45348  16.116   0.114  15.903 -0.3256 -0.1955  0.0879
29880W        W45349   6.811   5.024   1.847  0.2776  0.2011  0.2285
29881W        W45350   2.052   0.017  14.333 -0.2454 -0.0054  0.0923
29882W        W45351  10.570  15.267   0.930 -0.1015 -0.0479  0.1154
29883W        W45352   2.958  17.183   1.324 -0.1610  0.1191 -0.5026
29884W        W45353   2.672  13.579  10.609 -0.1586  0.0181 -0.2331
29885W        W45354   8.772  14.179  12.615 -0.1201 -0.3896 -0.2800
29886W        W45355  13.102   3.466   0.562 -0.3819 -0.2888 -0.1940
29887W        W45356  15.982   2.832   4.187 -0.3828 -0.1642  0.1074
29888W        W45357  15.727  16.157  16.166  0.2353 -0.0825  0.0707
29889W        W45358  10.887   2.214   1.733  0.0070  0.4477  0.1860
29890W        W45359  11.591  12.371   0.064 -0.0429  0.2944  0.2639
29891W        W45360   6.384  10.979   4.055 -0.2520 -0.1129 -0.2730
29892W        W45361   7.874  11.354  11.073 -0.1618 -0.0449 -0.0560
29893W        W45362  17.026  11.675  12.103  0.1830 -0.0666  0.1922
29894W        W45363  18.051  17.676  14.651  0.0015 -0.2878  0.3976
29895W        W45364  12.317   9.056   4.895 -0.0628  0.3463 -0.1091
29896W        W45365  14.779   7.629  14.188  0.0324  0.1083 -0.1077
29897W        W45366  17.557   8.986  11.234 -0.1249 -0.0429  0.0567
29898W        W45367   0.769   8.616   2.760  0.1870  0.2936  0.1628
29899W        W45368   9.315  11.731  15.544 -0.0706  0.1848  0.0824
29900W        W45369  15.773   0.316  15.120  0.0407  0.0645 -0.1452
29901W        W45370   7.078  12.074   2.491 -0.0060 -0.0529 -0.1346
29902W        W45371  12.974   3.766   4.787 -0.0115 -0.3167 -0.0336
29903W        W45372   9.769  11.609   2.790  0.1665 -0.1342 -0.0416
29904W        W45373   3.909   0.236  15.438  0.2121  0.0498  0.3039
29905W        W45374  13.327  13.192   6.143 -0.3326  0.1124  0.0173
29906W        W45375  18.049   4.546   0.301 -0.0285  0.4805  0.1406
29907W        W45376   9.262   0.440   3.998  0.0394  0.2149 -0.0690
29908W        W45377   4.589   4.311   2.023  0.4430 -0.3849  0.0712
29909W        W45378   1.922   2.220   3.758 -0.0571  0.0653 -0.1913
29910W        W45379  10.561   1.090   0.897  0.0764 -0.1463 -0.0609
29911W        W45380  15.626   6.378  13.829 -0.1115 -0.4790 -0.0561
29912W        W45381  16.938  13.708   5.307 -0.0492  0.0100  0.0800
29913W        W45382   5.826   6.507   2.541 -0.0127 -0.1518 -0.1420
29914W        W45383   4.323  16.711   2.453 -0.0265  0.1263  0.1534
29915W        W45384  17.357  16.151   4.610 -0.0494 -0.0381 -0.1274
29916W        W45385  14.993  11.217  16.101 -0.0562 -0.0634 -0.3855
29917W        W45386   3.610  12.858   2.093 -0.0852 -0.0386  0.0159
29918W        W45387  15.621   0.301  15.923  0.0374 -0.0590 -0.0395
29919W        W45388   2.893  11.564  10.621 -0.0022 -0.1529  0.0401
29920W        W45389   7.960  16.640   3.789  0.0482 -0.2857  0.0956
29921W        W45390   3.990   6.564  10.656  0.0259 -0.3382 -0.0560
29922W        W45391  10.968  11.681   1.810  0.0426  0.1687 -0.1362
29923W        W45392  15.024   1.880  15.535  0.1261 -0.2543  0.0018
29924W        W45393   8.156   6.898  13.350  0.0063  0.1111  0.2827
29925W        W45394   4.911  11.425   2.799 -0.1459 -0.0292  0.0358
29926W        W45395  17.723   0.062   5.588 -0.0435 -0.5300 -0.2752
29927W        W45396   8.920  16.154   1.549  0.0141 -0.0511  0.0345
29928W        W45397  11.064  10.917  10.090 -0.1297  0.0628 -0.0545
29929W        W45398  15.454   2.822   1.250  0.2701  0.0937 -0.1141
29930W        W45399  16.391  10.035   5.123 -0.0071  0.2489 -0.3388
29931W        W45400  15.367   2.302  14.142  0.1881  0.0093 -0.2097
29932W        W45401  13.354   4.264  11.019  0.0901 -0.1246  0.1972
29933W        W45402  14.383  17.773   0.548  0.1127  0.0507 -0.2216
29934W        W45403  13.837   3.273   5.381  0.1297  0.2140 -0.0692
29935W        W45404   5.265   3.744  12.201  0.2701  0.1143  0.0865
29936W        W45405  10.333  11.976  10.899 -0.0687 -0.0876 -0.1852
29937W        W45406   7.280   4.358  11.284  0.1829  0.0323 -0.3201
29938W        W45407   4.109   2.571   5.775 -0.0779 -0.0748  0.0736
29939W        W45408   0.807  12.804  12.454  0.0074 -0.1350  0.0631
29940W        W45409  16.034  13.550   3.426 -0.1049 -0.1952  0.1856
29941W        W45410   6.670  17.413   0.059 -0.4597 -0.1602 -0.2165
29942W        W45411   2.284   0.555   1.969 -0.2840 -0.3924  0.1059
29943W        W45412  16.600  14.775  15.966  0.0160 -0.0784  0.0254
29944W        W45413   4.795  14.800   3.956  0.2116 -0.0786  0.3139
29945W        W45414  10.530  16.457  11.180 -0.2487  0.1454 -0.0529
29946W        W45415   0.107   6.573   4.553 -0.4030 -0.3317  0.0948
29947W        W45416  14.442   7.232  13.463 -0.0176  0.0587  0.1193
29948W        W45417  16.808  18.063   1.696 -0.1006 -0.2389 -0.0302
29949W        W45418   4.087   5.934   5.637  0.2431  0.1708  0.2451
29950W        W45419  12.233  15.232   1.047 -0.0552 -0.3157  0.0634
29951W        W45420  18.019  17.541   5.290 -0.1662 -0.0442 -0.4836
29952W        W45421   5.255   3.420   4.781 -0.0202  0.2451 -0.2887
29953W        W45422  10.191  10.985  13.299 -0.1097  0.2649 -0.0000
29954W        W45423  17.745  12.739  14.325 -0.2121  0.2302 -0.0475
29955W        W45424   4.612   5.970  11.431 -0.0757  0.1831  0.2102
29956W        W45425   4.154  15.134  14.160 -0.0108 -0.0211 -0.1147
29957W        W45426   7.111  14.494  13.449 -0.1855 -0.0519  0.1632
29958W        W45427  11.164   6.773   3.960 -0.2953  0.0782  0.0735
29959W        W45428   4.159   0.734   9.953  0.4817 -0.0943  0.1214
29960W        W45429  15.661   9.307  12.110 -0.0310 -0.0691 -0.1406
29961W        W45430  16.711  12.295   0.707 -0.0823  0.1017 -0.2213
29962W        W45431   5.294  17.765   2.050 -0.0581 -0.2376  0.2676
29963W        W45432  11.689   4.894  11.183  0.5496 -0.1658  0.0246
29964W        W45433  16.333  10.376  12.212 -0.2230 -0.3004  0.2798
29965W        W45434   4.154  15.458   5.899  0.1437  0.0896 -0.2105
29966W        W45435  12.555  17.643  14.920 -0.1089 -0.1668  0.0663
29967W        W45436   6.482   6.427  14.757 -0.2733  0.0655  0.1206
29968W        W45437   9.246  12.900   5.138 -0.1822  0.0634  0.0621
29969W        W45438  10.088   3.037   4.535  0.0824  0.3451  0.0927
29970W        W45439   5.920  15.150   1.016 -0.1842 -0.2867  0.1826
29971W        W45440  16.680   7.531  12.467  0.1098  0.0482 -0.0020
29972W        W45441   7.939   8.556   4.921  0.1623  0.0067 -0.0608
29973W        W45442   3.271   1.774   2.687 -0.1714 -0.0044 -0.1211
29974W        W45443   5.780   9.900   4.851  0.2472 -0.1696  0.0229
29975W        W45444  16.033   2.538   0.261  0.1657  0.1873 -0.0363
29976W        W45445   6.100   5.336   4.615 -0.3651 -0.1418 -0.1062
29977W        W45446  16.288   6.479   5.008 -0.1946  0.2613 -0.1907
29978W        W45447   0.743  17.384  15.643 -0.2196 -0.1564  0.2339
29979W        W45448   7.257   2.175  12.414  0.2456  0.1306 -0.2584
29980W        W45449   8.185   6.526  15.657  0.0610 -0.1331 -0.2558
29981W        W45450   9.874   8.725  12.572 -0.1779  0.0076  0.1172
29982W        W45451   7.784   5.744  13.872 -0.1597 -0.2913 -0.3139
29983W        W45452   9.967  11.940  12.388 -0.1142  0.2114 -0.0194
29984W        W45453   4.075  17.850  10.745 -0.1690  0.0206  0.0033
29985W        W45454   8.129   5.592   4.548  0.1819  0.0346  0.0164
29986W        W45455  12.354  13.501  12.589 -0.4564 -0.0865 -0.0603
29987W        W45456  13.684   0.947   1.643 -0.2129  0.0458 -0.0404
29988W        W45457  17.956   6.045   1.804  0.2813 -0.0665 -0.0823
29989W        W45458   5.402   0.121  13.021  0.0551 -0.2625  0.2853
29990W        W45459  16.605  14.825  12.148 -0.1638  0.3707 -0.1155
29991W        W45460  10.069   2.508   0.619  0.1189  0.1256 -0.0161
29992W        W45461  12.540   6.019  11.227 -0.2231 -0.0643 -0.1875
29993W        W45462  12.284   0.946   1.506  0.0120  0.0122  0.3440
29994W        W45463  15.962   5.638  10.216  0.2280  0.0362 -0.2237
29995W        W45464   2.898  10.218  15.489  0.0137  0.0330 -0.1782
29996W        W45465   6.178  11.217  13.449  0.3447 -0.0317  0.1859
29997W        W45466   1.954   8.623   0.898  0.0682 -0.3691 -0.0494
29998W        W45467   4.390  16.628   4.743 -0.2685  0.2009  0.1417
29999W        W45468   4.170   1.007  13.585  0.0009 -0.0340  0.2137
30000W        W45469  15.333  10.969   4.299 -0.0716 -0.3256  0.5596
30001W        W45470   8.151   2.453   4.886 -0.1048 -0.0334  0.5404
30002W        W45471   4.104   0.448  11.158  0.1098 -0.0427  0.0969
30003W        W45472  10.305  17.110   3.152 -0.3028 -0.1066  0.2564
30004W        W45473   3.574   1.901   3.053  0.0693  0.2110 -0.2423
30005W        W45474   1.989  17.789  10.745 -0.0852 -0.0738  0.4187
30006W        W45475  18.058   3.217  14.817 -0.0615  0.1338  0.1320
30007W        W45476  13.748   9.591   1.728 -0.0776  0.2970  0.0833
30008W        W45477   0.006   2.340  13.523  0.1542 -0.0410 -0.3086
30009W        W45478   3.667   9.700   1.804 -0.0516  0.3091  0.2311
30010W        W45479   5.077  14.227  15.746  0.2331  0.3080  0.0162
30011W        W45480   6.456   5.840   5.225  0.0407  0.1875  0.2750
30012W        W45481   2.286   9.195   2.123 -0.2697  0.3680 -0.0676
30013W        W45482  16.054   7.448  10.777  0.2404 -0.0272  0.1012
30014W        W45483  14.145  18.011  11.631 -0.0628  0.0982  0.2123
30015W        W45484   3.273   9.097  14.597  0.2153  0.0876 -0.4317
30016W        W45485   0.002   2.750  15.201 -0.0723 -0.1488  0.2032
30017W        W45486   3.869   2.756   2.254 -0.0276 -0.0340 -0.0775
30018W        W45487   5.086  15.074   3.196  0.0174 -0.2644 -0.2733
30019W        W45488   8.381   0.696   0.730  0.2809  0.0657 -0.2806
30020W        W45489   7.937   8.700   1.651  0.0304  0.0500 -0.0690
30021W        W45490   7.628  15.359   3.651  0.0803  0.1078 -0.3166
30022W        W45491  11.564  18.276  12.226 -0.0420 -0.1109  0.0081
30023W        W45492   7.934  17.221   3.834  0.1490  0.2254 -0.0963
30024W        W45493  11.126   6.181   4.808 -0.1133 -0.0764 -0.2671
30025W        W45494   6.777   6.343  12.793  0.0356 -0.1229 -0.1311
30026W        W45495  17.380   1.850  15.799  0.0446  0.0002  0.4444
30027W        W45496  10.749   1.336  11.975 -0.0247 -0.2112 -0.0902
30028W        W45497   4.056  16.230   4.710  0.2223  0.0743  0.0492
30029W        W45498  13.718  18.154  13.318  0.1101 -0.1204  0.0047
30030W        W45499  10.545   9.984  11.173 -0.1059 -0.1672 -0.2890
30031W        W45500   1.601  11.232  13.945  0.1350 -0.0327  0.1010
30032W        W45501   2.721   8.255   5.061  0.1879 -0.1680 -0.1333
30033W        W45502   4.630   2.217   2.700  0.0650  0.3372 -0.0091
30034W        W45503   1.117  17.772   4.075  0.2815 -0.2007 -0.0166
30035W        W45504   1.493   0.051  11.305 -0.2004  0.0007  0.2262
30036W        W45505   7.428   8.068   3.014 -0.3270  0.1620 -0.2339
30037W        W45506  13.882  17.836   6.332  0.0226 -0.0176 -0.0482
30038W        W45507  14.024  11.037  13.406 -0.1353  0.0264  0.0487
30039W        W45508   3.288   3.652  12.970 -0.0392  0.0254  0.4222
30040W        W45509  11.593  17.893  13.695 -0.3757  0.0826 -0.2248
30041W        W45510   5.482   2.552   2.729 -0.0489 -0.0152 -0.2403
30042W        W45511   7.559  17.431  11.932  0.3508 -0.2673 -0.1102
30043W        W45512  11.250   2.727   4.433 -0.1444 -0.0691  0.1861
30044W        W45513  12.812   3.442   3.281  0.0719 -0.0455 -0.0231
30045W        W45514  10.894   2.490  14.381  0.0788  0.3938  0.2131
30046W        W45515  14.656  18.016  13.728  0.0470  0.0888  0.0709
30047W        W45516   3.008   7.140  11.839  0.3545 -0.1196 -0.0158
30048W        W45517  11.759  17.701   3.665 -0.1556  0.0441 -0.0602
30049W        W45518  11.822   8.151   3.992  0.1805 -0.0093  0.2187
30050W        W45519  13.150   8.854  11.679  0.1476  0.0997  0.0817
30051W        W45520   5.209  17.557   0.872  0.1388  0.0277 -0.2162
30052W        W45521   9.513   7.185   2.166  0.2801  0.1020  0.1580
30053W        W45522   7.714   6.864   4.397  0.0888  0.1737  0.1409
30054W        W45523  10.199   6.563  14.682  0.1448 -0.0080 -0.2698
30055W        W45524  15.022  13.532  11.962  0.0499  0.1179  0.1577
30056W        W45525   4.651  17.148  16.002  0.0115 -0.3177  0.0990
30057W        W45526   6.745  17.901  16.127  0.2131 -0.0375  0.0863
30058W        W45527   8.120  11.547  15.826  0.0265 -0.1130  0.0125
30059W        W45528   9.134   9.801  13.471  0.1581 -0.0572  0.0348
30060W        W45529   2.057  13.702   4.995  0.0354 -0.0485  0.2553
30061W        W45530   4.671  12.907   3.313 -0.2149  0.0968  0.2437
30062W        W45531   6.203  16.899   1.407 -0.0705 -0.1603 -0.1617
30063W        W45532   4.539  10.963   1.304  0.3544  0.3449  0.0352
30064W        W45533  11.291   1.352  13.088 -0.0144  0.0846  0.2505
30065W        W45534  16.736   0.968   2.239  0.0597  0.0282 -0.1039
30066W        W45535  11.212   5.181  11.876 -0.2572  0.2460 -0.1007
30067W        W45536   6.988  17.152   4.888 -0.4170  0.3611 -0.2110
30068W        W45537   7.933   4.483   3.997  0.1193 -0.1494  0.0090
30069W        W45538  13.251   0.025  11.809 -0.0869 -0.1696  0.3430
30070W        W45539  14.617  11.396  12.018 -0.2647  0.0364 -0.0547
30071W        W45540  11.035   5.798   0.913  0.2808  0.1124  0.1394
30072W        W45541  10.701   0.231   0.058 -0.2355  0.2004  0.0454
30073W        W45542  16.408   3.272   2.622  0.3090  0.0348 -0.0118
30074W        W45543   3.816   3.230  13.806 -0.3641  0.3688 -0.0223
30075W        W45544   7.797   6.011   1.128  0.2463 -0.0019  0.2163
30076W        W45545  15.309  11.544   1.617 -0.0405  0.1031 -0.0305
30077W        W45546  17.692  12.359   1.762 -0.0337 -0.2181  0.0329
30078W        W45547   2.545   6.515   1.691 -0.0014 -0.1741  0.0925
30079W        W45548   1.681  12.832  12.010 -0.1544 -0.1273 -0.2606
30080W        W45549  13.972  17.034   4.575 -0.2105  0.0095  0.0301
30081W        W45550   2.682  12.693   1.006  0.2690  0.1566  0.0537
30082W        W45551  10.606   7.659   4.831 -0.3226 -0.1781 -0.3669
30083W        W45552   9.033   6.267  12.418 -0.1873  0.1908  0.1938
30084W        W45553   4.785   3.054  12.621 -0.0554  0.0513  0.2601
30085W        W45554  10.066  13.172  11.260 -0.0943 -0.2097 -0.0927
30086W        W45555   2.767   8.401   1.114 -0.0396 -0.1390 -0.0363
30087W        W45556  13.122  17.726   2.753 -0.1810 -0.5126 -0.0903
30088W        W45557   9.314  12.680   4.366 -0.0379 -0.2835  0.1376
30089W        W45558   9.678   0.641  12.976  0.1405 -0.0516  0.1016
30090W        W45559   1.596   1.650   5.201 -0.0763  0.0607 -0.0316
30091W        W45560  13.421   9.299   5.046  0.2131 -0.1476  0.1767
30092W        W45561   8.563   9.486  14.650  0.0703  0.3076  0.0057
30093W        W45562   7.035  11.078   2.869  0.0567  0.1835  0.1177
30094W        W45563  17.215  17.638  13.577 -0.0692 -0.0807  0.1486
30095W        W45564  15.231  16.845  14.995 -0.0426  0.2691 -0.0758
30096W        W45565   0.788   1.284   5.014 -0.1722  0.0673  0.2566
30097W        W45566   7.469  12.196   4.943  0.1637  0.1299 -0.0240
30098W        W45567  11.179  16.202  11.746 -0.2849 -0.3299  0.3967
30099W        W45568  12.484   2.010   5.804 -0.1546  0.0770  0.0003
30100W        W45569  13.313  13.674  12.390 -0.0558 -0.3198  0.1748
30101W        W45570  13.404   4.350   2.764  0.0779  0.0193 -0.0567
30102W        W45571  11.890  13.813   0.760  0.0616  0.1363 -0.1827
30103W        W45572   8.127  18.076  11.474 -0.0919  0.2125 -0.1378
30104W        W45573  13.807   7.431   4.668  0.1041  0.0856 -0.1038
30105W        W45574  12.529   7.188   4.360  0.0030 -0.0649  0.0877
30106W        W45575  12.782  10.853  12.837  0.0300  0.1363 -0.1558
30107W        W45576  17.195  10.325  10.155  0.0401  0.2034  0.1473
30108W        W45577   0.044  14.544  12.466  0.2362  0.3526 -0.0305
30109W        W45578   9.445   9.370   3.097  0.1759  0.2120 -0.2660
30110W        W45579   9.149   6.983  14.980  0.0511 -0.0991  0.1583
30111W        W45580   7.890  14.375   3.651 -0.0912  0.1813  0.0945
30112W        W45581   3.230  16.559   1.749  0.2909  0.2356  0.1379
30113W        W45582   9.172  17.028  10.391 -0.1389 -0.0430  0.0222
30114W        W45583   2.303   9.850   3.051 -0.1035  0.2364  0.1476
30115W        W45584   1.018  14.201  11.051  0.0584  0.2064 -0.0092
30116W        W45585   1.373   2.713   2.015 -0.1515 -0.0183 -0.3375
30117W        W45586   9.457  14.180  14.891 -0.2335  0.2744  0.0339
30118W        W45587   3.921  11.223   4.263 -0.0051  0.2850 -0.1516
30119W        W45588  16.250   0.836   0.133 -0.0560 -0.2372  0.0706
30120W        W45589  12.210   1.890   4.523 -0.0271 -0.2624  0.0922
30121W        W45590   1.354   5.900  14.994 -0.3268  0.0915  0.0769
30122W        W45591  17.150   7.143   4.228  0.0944 -0.1723 -0.3566
30123W        W45592  17.468   8.155  13.783 -0.2803  0.2418  0.0005
30124W        W45593   8.789   5.708   2.956 -0.0524  0.2209  0.1506
30125W        W45594   8.502   0.578  11.451 -0.3895  0.0386  0.0020
30126W        W45595   8.648   6.527  15.842 -0.1325  0.1002 -0.0946
30127W        W45596  11.313  14.831   2.639 -0.0238 -0.1463  0.1395
30128W        W45597  16.352   2.664   1.506  0.0939  0.0769  0.1305
30129W        W45598  15.331   7.247   4.828  0.0370  0.1883 -0.2614
30130W        W45599  17.013   8.644   0.588 -0.0538 -0.0183  0.0184
30131W        W45600  15.536   8.715   0.565 -0.0870  0.1707 -0.0274
30132W        W45601   1.318   2.171   4.803 -0.2126 -0.0976 -0.3340
30133W        W45602  10.272   8.508   1.936  0.0600  0.0279 -0.1677
30134W        W45603  10.301   3.216   2.702 -0.0416 -0.2302  0.1053
30135W        W45604  10.238   5.177  11.728 -0.0749 -0.0804 -0.2293
30136W        W45605  13.243   5.236  12.164 -0.3016  0.2636 -0.0994
30137W        W45606  13.653  14.302   4.459  0.1470 -0.2709  0.2394
30138W        W45607   7.009  16.983   2.278 -0.0483 -0.0836 -0.2779
30139W        W45608  11.643   9.498   3.454  0.1186 -0.2248 -0.0399
30140W        W45609   2.681   4.846   4.437 -0.0575  0.0317  0.1909
30141W        W45610   5.895  16.213   1.695 -0.2980 -0.1439  0.1775
30142W        W45611  14.690  17.678   2.849 -0.0587 -0.1567 -0.1488
30143W        W45612   6.591  10.239   2.065 -0.3564 -0.2284 -0.0183
30144W        W45613   6.879   2.303  13.007  0.0309  0.1363 -0.1304
30145W        W45614   6.358  15.429   4.651  0.0951 -0.0552  0.3287
30146W        W45615  10.709   4.843   4.259  0.0186  0.0984 -0.0285
30147W        W45616  15.269   0.449  14.961  0.0359  0.0559  0.0435
30148W        W45617  10.957  17.903   1.094 -0.1553 -0.0615  0.0210
30149W        W45618  11.771   1.206   0.458  0.2999 -0.0081 -0.0550
30150W        W45619   8.970  11.863   3.152  0.1075  0.1226  0.2136
30151W        W45620  18.208  10.249   5.037  0.1175 -0.2177 -0.0486
30152W        W45621   9.863   7.138  13.832  0.0112 -0.1213 -0.0238
30153W        W45622   9.818  18.111   2.302 -0.3304 -0.0229 -0.0369
30154W        W45623   9.136   5.379   3.642  0.1010  0.1183 -0.2918
30155W        W45624   9.971  13.654   3.831 -0.1487 -0.4690 -0.0337
30156W        W45625   5.062   2.448   6.189 -0.0773 -0.0954 -0.0122
30157W        W45626  11.805   9.049   4.075 -0.1730 -0.3130  0.1599
30158W        W45627   7.621   0.880  11.261 -0.0693 -0.2593  0.2473
30159W        W45628  13.146   6.640   4.902  0.0715  0.2338  0.1256
30160W        W45629  14.475   3.549  12.473 -0.2248 -0.2232 -0.1745
30161W        W45630   9.718   6.532  14.777 -0.0921  0.1038  0.2422
30162W        W45631   0.902  15.327  10.696  0.0945  0.0428  0.0539
30163W        W45632  18.071   4.854  14.132 -0.3918  0.1212  0.2451
30164W        W45633   2.721   3.405   0.079  0.1264 -0.1740  0.0675
30165W        W45634  15.188  17.549   2.888 -0.2072 -0.3940 -0.0777
30166W        W45635   0.825   0.327   3.620  0.2244  0.0465 -0.0484
30167W        W45636  12.862  13.869   2.722  0.2094 -0.2012  0.0151
30168W        W45637  15.760   0.453  14.160  0.2656  0.1883  0.3256
30169W        W45638  10.359  15.439   5.909 -0.1959  0.0229 -0.0809
30170W        W45639  15.705  17.422  13.716  0.0040  0.0242  0.3244
30171W        W45640   9.488  10.468  14.580  0.1888 -0.1279  0.0176
30172W        W45641  17.252   2.897   5.753 -0.0015  0.0252  0.2759
30173W        W45642  10.141   6.384  14.231 -0.0490 -0.0613 -0.1643
30174W        W45643  11.091  17.768  14.463 -0.2155  0.0366  0.3504
30175W        W45644   2.488  17.448  10.850  0.1697  0.1829 -0.1678
30176W        W45645   8.063   2.313  11.673 -0.0167  0.1752  0.0258
30177W        W45646   8.363  11.010  10.753  0.2894 -0.1480 -0.3444
30178W        W45647   1.815   5.200  11.327  0.1265 -0.3972  0.1834
30179W        W45648   5.003  17.499  11.882  0.0929 -0.1199  0.0448
30180W        W45649  15.790   1.834  10.623  0.2722  0.3697  0.0318
30181W        W45650   1.597   1.873  11.222  0.1883 -0.1683  0.1814
30182W        W45651   3.144  14.513  15.484  0.1418  0.2683 -0.0589
30183W        W45652  11.255   5.227   4.744 -0.2988  0.3129  0.0403
30184W        W45653   3.514  11.716   0.364 -0.0032  0.0361 -0.0260
30185W        W45654  16.980   4.731   4.257 -0.0233  0.2642 -0.0861
30186W        W45655   7.163  10.675  15.320  0.0739 -0.1842 -0.2554
30187W        W45656  13.640   8.996  14.755  0.0874  0.1391  0.1023
30188W        W45657  14.771   0.988  14.441 -0.1193 -0.0506 -0.2565
30189W        W45658   3.026   8.161   1.552  0.2926 -0.7188  0.0685
30190W        W45659  17.748  18.240   2.188  0.0182  0.1232  0.2000
30191W        W45660  14.660  16.863  10.562  0.1796 -0.1301  0.5042
30192W        W45661   4.873  12.946   1.085 -0.1884 -0.1544  0.0864
30193W        W45662  11.502  11.383  15.702 -0.0960  0.1079  0.0382
30194W        W45663   1.010  11.138   1.138 -0.1922  0.0957  0.2580
30195W        W45664   2.086   5.067  13.582  0.0629 -0.2671 -0.1703
30196W        W45665   7.710   0.211   0.289 -0.1219  0.1488 -0.1312
30197W        W45666   7.566  15.187  12.499 -0.1697  0.1510 -0.2383
30198W        W45667   4.238  18.212  15.056  0.1208 -0.1016 -0.1705
30199W        W45668   2.171   2.913  10.801  0.0610  0.0095  0.1959
30200W        W45669   4.447  17.095   3.681 -0.3241  0.2634 -0.0095
30201W        W45670  15.223   4.655  10.591  0.0165  0.1170  0.3333
30202W        W45671   9.661  16.287  15.916 -0.1760  0.0836  0.3775
30203W        W45672  13.372   5.804   3.760  0.0252  0.1218 -0.0976
30204W        W45673   1.511   7.548  15.657  0.0955  0.1681 -0.0383
30205W        W45674   6.145   2.550  14.326  0.0571 -0.3126 -0.0388
30206W        W45675   5.924   4.367  12.489  0.2729  0.2095 -0.0888
30207W        W45676   0.420   7.660   3.237 -0.0843 -0.2419  0.0993
30208W        W45677  10.349   9.356   4.504  0.0121 -0.0868 -0.1854
30209W        W45678   9.130   0.133  15.332  0.1960 -0.0917  0.0789
30210W        W45679  17.262  15.828   5.526 -0.0568 -0.1388 -0.1972
30211W        W45680   0.534  13.511   2.751  0.0687 -0.1205  0.2090
30212W        W45681   2.769   6.092   4.176  0.0832  0.1748  0.1005
30213W        W45682   3.872   3.018   0.425 -0.1407 -0.2408 -0.0192
30214W        W45683   5.388   3.843   0.910 -0.3535 -0.0748 -0.1660
30215W        W45684  17.450   3.108  14.028 -0.0951 -0.2692  0.3132
30216W        W45685   8.708   5.900   4.303  0.3354 -0.1797  0.1189
30217W        W45686  18.191   7.218  14.583  0.1406  0.1593 -0.0538
30218W        W45687   0.147   8.041   3.998  0.0626 -0.1278 -0.0974
30219W        W45688   4.957  14.713  15.666  0.1403 -0.2123  0.0659
30220W        W45689   1.520  17.722  13.870  0.0041  0.4291  0.0608
30221W        W45690  10.527   5.353  13.721  0.0091 -0.3382  0.1606
30222W        W45691   3.003   5.965   5.807  0.0078  0.0813 -0.0272
30223W        W45692  14.310   5.859   4.668 -0.1134 -0.2047  0.1930
30224W        W45693  11.311  15.602   0.597  0.1989 -0.0470 -0.1825
30225W        W45694  11.990  17.621  15.767  0.0890 -0.0599 -0.1188
30226W        W45695   2.738   8.985   1.360 -0.3874 -0.0227  0.0477
30227W        W45696  16.828  17.944   2.384 -0.1089  0.1625  0.0059
30228W        W45697   0.469   8.507  11.498  0.2081  0.1366  0.2850
30229W        W45698  13.799  11.635   0.175  0.0522  0.3423 -0.0040
30230W        W45699   8.035  16.006  10.767  0.3271  0.1699 -0.2365
30231W        W45700   3.239  14.275   4.914 -0.0075  0.0494 -0.1335
30232W        W45701   5.602   9.248   0.027  0.1801 -0.0941 -0.0864
30233W        W45702   6.641   0.399   2.748 -0.3552 -0.0348 -0.1020
30234W        W45703   8.640   0.066   2.096  0.3974  0.0557 -0.0556
30235W        W45704  17.769  10.204   3.265 -0.1697  0.0146  0.1536
30236W        W45705  12.592   5.526  13.704  0.1596  0.1041 -0.4948
30237W        W45706   9.096   2.704   1.243  0.1142  0.0530  0.1761
30238W        W45707   5.790   6.965  12.699  0.4152  0.3313 -0.1567
30239W        W45708   8.166  15.095  11.086  0.2045  0.3326 -0.2187
30240W        W45709   9.135  14.754   2.171 -0.1611 -0.2529  0.2247
30241W        W45710   4.077   4.583  15.924  0.0687  0.0358  0.0688
30242W        W45711  10.433  15.676  11.718 -0.0565  0.0810 -0.1217
30243W        W45712  11.269  16.090  12.522 -0.2113  0.0469  0.0654
30244W        W45713   4.573   0.266  10.685  0.2148 -0.1373  0.5828
30245W        W45714   7.733  10.656  15.960  0.0142 -0.0849  0.2771
30246W        W45715   8.169  11.458  13.048 -0.0221 -0.1514  0.0473
30247W        W45716  15.323  16.136   3.066  0.1829  0.0525  0.0289
30248W        W45717   0.480   0.268  11.829 -0.1216 -0.0297 -0.1428
30249W        W45718   1.353   7.839  15.281 -0.0188  0.0964  0.1105
30250W        W45719   8.735   1.422   6.283  0.0032 -0.1378 -0.3023
30251W        W45720  16.151   8.161  13.611  0.1440  0.3451  0.0468
30252W        W45721  12.923  16.109  11.735 -0.0547 -0.3502  0.0086
30253W        W45722  12.098  11.807  14.461  0.0962 -0.1270 -0.0639
30254W        W45723   6.155   4.234   2.937  0.0396 -0.0697  0.0023
30255W        W45724   5.907  11.986  15.874  0.0052 -0.1100  0.0436
30256W        W45725   7.011   5.492  13.164 -0.1357 -0.2560 -0.1147
30257W        W45726   5.115  17.448  14.659 -0.0548  0.0115 -0.0951
30258W        W45727   3.452   5.322  15.633  0.2531  0.1944 -0.0115
30259W        W45728   9.196   3.218  15.601 -0.2177  0.1588 -0.0665
30260W        W45729   5.690   9.999  16.109  0.0162 -0.0529 -0.1426
30261W        W45730   2.791   5.399   1.788 -0.3241  0.2051  0.0624
30262W        W45731   6.516  12.237   4.894 -0.0830 -0.1945 -0.0077
30263W        W45732  17.050   9.064  11.282 -0.1429  0.1142  0.0033
30264W        W45733   3.942  11.566  15.895 -0.0589 -0.2502  0.2386
30265W        W45734   3.899  13.115   4.219  0.1110 -0.2169  0.2248
30266W        W45735  17.259  10.727   2.504 -0.0915  0.1717  0.0253
30267W        W45736  16.263   2.465   5.453  0.0483 -0.0789 -0.1086
30268W        W45737  10.633   9.423  14.972  0.0731 -0.0147  0.0690
30269W        W45738   1.438  10.105   2.787  0.0596  0.0902 -0.3209
30270W        W45739  13.537   9.802   4.827 -0.0813 -0.1405  0.4330
30271W        W45740  15.659  16.361  13.027 -0.0348 -0.0776  0.3936
30272W        W45741  10.040   2.995  11.509 -0.0076 -0.0560  0.1240
30273W        W45742   4.941   8.967  13.062  0.3114  0.1415  0.1706
30274W        W45743   7.668  14.003  14.953  0.0492 -0.3445 -0.0339
30275W        W45744   2.936  12.738   4.369 -0.1883  0.0144  0.0985
30276W        W45745   4.074  18.165  14.175 -0.0102  0.1167  0.2300
30277W        W45746  14.062   3.924  13.459  0.0965  0.0498 -0.3395
30278W        W45747  12.358   1.860   2.746  0.1005 -0.0665  0.2606
30279W        W45748   7.219   1.641   0.852  0.0747 -0.2335  0.5670
30280W        W45749   9.261  16.159  14.074  0.2283  0.0319  0.0797
30281W        W45750  14.263   7.813   9.686  0.2048 -0.0768  0.0966
30282W        W45751   3.412   5.103   0.692  0.1365  0.4429 -0.2824
30283W        W45752   6.596   0.979   2.467 -0.0094 -0.1002 -0.1757
30284W        W45753  18.076   8.235  13.624  0.0624  0.0520  0.2146
30285W        W45754   6.804  14.577   1.546 -0.3438 -0.0443  0.1101
30286W        W45755  15.714   1.641   3.764 -0.1217  0.1455 -0.1886
30287W        W45756  11.981   0.450   0.188 -0.0378  0.0536  0.0356
30288W        W45757   0.915   9.717  15.912 -0.2311 -0.0228 -0.2840
30289W        W45758  17.779  13.149  14.012  0.1666  0.1612 -0.1631
30290W        W45759   0.164  14.527  11.456 -0.0273 -0.0779  0.2512
30291W        W45760   5.386  16.218  13.588 -0.0219 -0.4814 -0.3376
30292W        W45761   1.270   7.443   5.065  0.0551 -0.1606  0.3466
30293W        W45762   2.699  14.435   3.775  0.0324  0.0077  0.0603
30294W        W45763   9.676  15.779  14.952  0.0087  0.1898 -0.2529
30295W        W45764   7.645  11.769   3.811  0.1207 -0.0043  0.0945
30296W        W45765   8.462   5.571   3.319 -0.5246 -0.0825  0.2406
30297W        W45766   0.400  16.216   1.255 -0.1675 -0.0668  0.1234
30298W        W45767   0.693   7.383   0.530  0.1203 -0.0877  0.0221
30299W        W45768  11.752   5.110   0.242 -0.1602  0.0407 -0.1631
30300W        W45769  14.949  14.624   3.088  0.0624  0.1526  0.2265
30301W        W45770  15.776   4.279  15.376 -0.2074 -0.2793 -0.0552
30302W        W45771  12.392  18.014   4.974 -0.1230  0.1094 -0.0972
30303W        W45772   6.344   4.853  13.193 -0.1428  0.2568  0.0986
30304W        W45773   6.828   4.743   4.641 -0.1421  0.1233  0.1224
30305W        W45774  15.163   3.011   5.740  0.2667 -0.1745 -0.2786
30306W        W45775   6.317   0.604  11.552  0.1593 -0.2006 -0.1950
30307W        W45776   8.770   1.548   2.649  0.1291  0.1902  0.2528
30308W        W45777  10.349  12.198  14.475 -0.1607 -0.2382 -0.4000
30309W        W45778   8.688  17.364  12.666 -0.0745  0.0077 -0.3037
30310W        W45779   1.168  15.204   0.041  0.0474 -0.1385 -0.3614
30311W        W45780   9.269   4.889   3.843 -0.2608 -0.2260  0.0824
30312W        W45781   3.614  14.689   3.982  0.2277  0.0032 -0.0046
30313W        W45782   9.649   4.001  10.484  0.1816  0.1558 -0.0428
30314W        W45783  11.456   4.556   3.093 -0.4474  0.1670 -0.3636
30315W        W45784  16.051  11.776  11.312  0.2540  0.0097 -0.3459
30316W        W45785   2.746   9.612   4.300 -0.2135 -0.0163 -0.1287
30317W        W45786  14.780   9.305   1.716  0.3367  0.3648  0.0740
30318W        W45787   9.200  16.932   3.393  0.0658  0.0973 -0.1009
30319W        W45788  10.309  10.829  15.262 -0.1072  0.2985 -0.2780
30320W        W45789  10.451   2.193  10.837 -0.0217  0.1981  0.1633
30321W        W45790  14.661   7.283   3.577  0.0806 -0.1820 -0.2188
30322W        W45791  10.132   3.586  15.818 -0.0440 -0.0898  0.0598
30323W        W45792   1.768   5.602   2.734  0.1228  0.0256  0.1713
30324W        W45793   3.884  15.213  15.261  0.0213 -0.0372 -0.2999
30325W        W45794   3.397  10.444   0.569  0.0451  0.0544 -0.0388
30326W        W45795   9.674   7.266   0.908 -0.2873 -0.0414 -0.0691
30327W        W45796  16.057  14.035  14.984 -0.2430  0.0054  0.0893
30328W        W45797  10.563  12.401   3.691 -0.2660  0.2693 -0.0519
30329W        W45798   7.082   1.597   4.181  0.1286 -0.0155 -0.2203
30330W        W45799   5.501   2.759   0.353  0.2330  0.1216 -0.3739
30331W        W45800  14.221   4.642   3.819 -0.4806  0.0520 -0.0673
30332W        W45801   1.238  11.758   0.392 -0.0343 -0.0727 -0.0032
30333W        W45802  16.745   1.570  13.616  0.2907  0.0308  0.1418
30334W        W45803  12.414   7.823   0.329  0.0598 -0.1028 -0.0946
30335W        W45804   3.754   4.230   1.668  0.2909 -0.0453 -0.1757
30336W        W45805   2.332   1.993  12.693 -0.5361 -0.0189  0.1059
30337W        W45806  11.253  17.551  11.036  0.3187 -0.2072 -0.1261
30338W        W45807   3.129   2.363   1.493 -0.2228 -0.3711 -0.3821
30339W        W45808  10.534   3.809  15.882 -0.0621 -0.3428 -0.1168
30340W        W45809   6.601   0.942  12.032  0.2634  0.1310  0.2153
30341W        W45810  17.651  13.257  12.624  0.2181  0.2467 -0.0419
30342W        W45811   4.743  13.659   1.551  0.1577 -0.1180  0.1914
30343W        W45812   5.865   1.999  15.632 -0.0569 -0.2469  0.0879
30344W        W45813   5.292  11.366   2.491 -0.0995 -0.0681  0.0459
30345W        W45814  16.561  16.728  12.555  0.1575 -0.1858 -0.2000
30346W        W45815   4.775  17.876   2.629 -0.0314 -0.1926  0.0997
30347W        W45816   1.697   3.825   0.795 -0.2472  0.0033 -0.1732
30348W        W45817  11.967  12.474   2.602  0.0054  0.0363  0.0094
30349W        W45818  12.860   6.112  14.633  0.3122  0.1461  0.2511
30350W        W45819   3.129   5.003  12.441  0.0569  0.1629 -0.4241
30351W        W45820  17.298   7.752   2.943  0.1266 -0.1900 -0.1131
30352W        W45821   5.682  13.787  15.438  0.0392 -0.2157  0.2342
30353W        W45822  15.993   0.854   6.340  0.3470 -0.2393  0.0124
30354W        W45823   8.624  11.781  11.559  0.0330  0.4898  0.2004
30355W        W45824   2.498   9.433   1.644 -0.1796 -0.1526 -0.0188
30356W        W45825   9.498  14.274  11.376  0.0996  0.0857  0.1187
30357W        W45826  13.578   2.398  12.505 -0.2136  0.1357 -0.2350
30358W        W45827  15.048  15.495   4.018 -0.1638  0.3761  0.0313
30359W        W45828  10.415  10.696   4.050  0.1194  0.1317 -0.0941
30360W        W45829  12.915   1.892   4.276  0.2044 -0.0370 -0.2936
30361W        W45830  13.463   5.563  14.939  0.5582 -0.0175 -0.1114
30362W        W45831  16.198  14.498  16.118  0.1693 -0.0222  0.0562
30363W        W45832  16.785  17.014  11.414  0.1057 -0.1909 -0.1356
30364W        W45833   4.058  12.387   3.463 -0.1206  0.0661  0.2580
30365W        W45834  15.967   7.613  13.561  0.3117  0.4172  0.3465
30366W        W45835   1.582  15.302   5.133  0.3154  0.1381  0.0104
30367W        W45836  15.920   6.468   3.616  0.1764 -0.0045 -0.1315
30368W        W45837  13.670  16.835   1.484  0.1767  0.1224  0.1558
30369W        W45838   9.031   4.002  14.238 -0.1587 -0.2229 -0.2157
30370W        W45839   6.505   1.474  15.023 -0.0496  0.1783 -0.0970
30371W        W45840   7.000   9.675  13.187 -0.0099  0.0573  0.1229
30372W        W45841   9.524   0.130   3.477 -0.0664 -0.2432  0.2223
30373W        W45842   6.159   5.385  13.662 -0.0997  0.0828  0.1971
30374W        W45843   6.319  14.787   5.088  0.1707 -0.1139  0.2009
30375W        W45844   2.554  17.747  14.954 -0.1120 -0.0040 -0.1943
30376W        W45845   4.627  14.793  13.082  0.0076 -0.2380  0.0891
30377W        W45846   4.933  13.401   3.195  0.1502  0.1090  0.0919
30378W        W45847   9.589  14.651   2.681  0.4825 -0.5016  0.1320
30379W        W45848  14.730   7.817   1.616  0.1623 -0.2017  0.0769
30380W        W45849   3.192   4.271   4.707  0.2655 -0.0172 -0.0884
30381W        W45850  10.611   2.200  11.628  0.2500  0.2030 -0.0355
30382W        W45851  16.913   4.093   2.309  0.1487 -0.0627 -0.0448
30383W        W45852   4.757   2.861   2.359 -0.0857  0.1668  0.1519
30384W        W45853   8.584   5.797   2.161  0.2713  0.0012  0.1389
30385W        W45854   7.943   2.035  14.461 -0.1483  0.2660  0.3020
30386W        W45855   4.221   3.416   0.430 -0.2135 -0.2535 -0.1597
30387W        W45856   0.469   6.052  12.933 -0.1144  0.3490 -0.1420
30388W        W45857   7.492  15.920  13.357  0.1742 -0.1487 -0.0753
30389W        W45858   8.505   4.334   4.064 -0.0618 -0.3614 -0.1031
30390W        W45859   5.033   6.423   1.171  0.0239  0.1534  0.1707
30391W        W45860  11.061  11.534  11.309 -0.3204  0.1653 -0.0666
30392W        W45861   9.822   0.103  14.215  0.2110 -0.0451  0.2955
30393W        W45862   6.822  10.532   0.133 -0.0126  0.3319  0.0821
30394W        W45863   5.996  14.580   3.564 -0.1078 -0.1651 -0.2139
30395W        W45864  18.093  10.272  15.344 -0.0329  0.0465 -0.0182
30396W        W45865  10.328  18.178   5.132 -0.1717  0.0540  0.2249
30397W        W45866   3.433  14.438  14.592 -0.2052  0.3404 -0.0515
30398W        W45867  15.968  16.162  10.666 -0.2799  0.0341 -0.0712
30399W        W45868  11.628   2.541  11.281 -0.0707 -0.2987 -0.3743
30400W        W45869  17.461  10.108   5.573 -0.0028 -0.0197 -0.0369
30401W        W45870  12.830   6.761   5.614 -0.1830  0.0050  0.0853
30402W        W45871  16.275  12.784   1.539  0.0987 -0.0869 -0.0829
30403W        W45872   3.168  15.007  13.252  0.0996  0.0048 -0.0677
30404W        W45873  10.004   5.152   3.765  0.1524  0.1719 -0.1049
30405W        W45874   1.728  14.161   3.891 -0.1323  0.2324 -0.1692
30406W        W45875   3.898   6.129   5.153 -0.2312  0.0897 -0.0423
30407W        W45876  13.942   6.757   1.875 -0.0358  0.0863  0.3307
30408W        W45877  17.216   5.972  14.924  0.2391 -0.0746  0.0598
30409W        W45878   1.119  14.482  13.426  0.5123  0.0016  0.0632
30410W        W45879  15.055   0.588   1.452  0.3786  0.0832 -0.1813
30411W        W45880   0.988   1.683   2.314  0.1635 -0.2876  0.0261
30412W        W45881   1.860  14.815  15.465  0.1108  0.3031 -0.0842
30413W        W45882   7.398  11.729  13.950 -0.2983  0.0370 -0.0970
30414W        W45883  16.435   3.768  13.506  0.2753  0.1947  0.0097
30415W        W45884  15.351  12.058  14.903 -0.2816 -0.2740 -0.2160
30416W        W45885   8.231   8.352   1.949 -0.0943 -0.0540  0.1464
30417W        W45886   8.594   1.020   3.289  0.0312 -0.0690  0.1941
30418W        W45887  12.631  14.850  14.381 -0.2824 -0.2996  0.1531
30419W        W45888  14.361   2.859   2.018 -0.1185  0.0200 -0.0831
30420W        W45889  13.207  11.623   2.483 -0.3630  0.1243  0.1356
30421W        W45890  12.168  11.517  11.985  0.0051 -0.2413  0.1608
30422W        W45891  14.131  13.802  13.187  0.0930  0.0227  0.0211
30423W        W45892   7.983   7.400   1.554  0.0549 -0.1263  0.2591
30424W        W45893   7.054   6.419  15.868  0.1521  0.0083  0.3367
30425W        W45894   4.963   8.825  11.202  0.0359  0.1860 -0.0487
30426W        W45895  15.970   8.551  11.836 -0.0357 -0.2698 -0.1389
30427W        W45896   6.439  11.284  15.237  0.0386 -0.1633  0.1324
30428W        W45897   1.559   9.080   1.725 -0.1404 -0.1207 -0.1939
30429W        W45898   4.391   6.220   0.380  0.1651 -0.1684 -0.2211
30430W        W45899   7.363  13.919  16.054  0.1955  0.2644  0.0508
30431W        W45900  16.078   2.247   0.837  0.1012 -0.0612  0.3100
30432W        W45901   6.822   8.579   1.329  0.3628  0.1320  0.1793
30433W        W45902   6.092  17.340  12.015 -0.3682 -0.1307  0.2075
30434W        W45903  16.453   5.129   3.142 -0.0834  0.1316 -0.4293
30435W        W45904   1.318   2.806  14.487  0.2157  0.0932  0.0409
30436W        W45905   2.887  12.552  14.934  0.0677 -0.1544  0.1975
30437W        W45906   7.771  13.714   3.429  0.1217  0.3445 -0.3621
30438W        W45907   4.970   5.278  10.601  0.1809 -0.2983  0.1791
30439W        W45908   7.581   0.786  13.902 -0.0945  0.1406  0.2794
30440W        W45909  12.468  14.109  11.801  0.1329 -0.3209 -0.1169
30441W        W45910  14.776  14.511  11.180 -0.1483  0.0998  0.0102
30442W        W45911  13.561  12.173  14.434  0.0056  0.0367  0.2199
30443W        W45912  14.756  13.234  12.698  0.2349 -0.0263 -0.1992
30444W        W45913  11.348  13.211   3.762  0.0653 -0.2130 -0.0230
30445W        W45914   3.598   7.778   0.803 -0.1382 -0.0977  0.0587
30446W        W45915   0.940   2.830   0.305 -0.0104  0.2263 -0.2310
30447W        W45916   5.663   1.375  13.923 -0.0568  0.1910 -0.2024
30448W        W45917  12.229  13.928  13.823 -0.1271 -0.1417 -0.1871
30449W        W45918  11.711   5.870   3.736 -0.0348 -0.0106 -0.0390
30450W        W45919   3.319  13.766   5.868 -0.0457 -0.1367  0.0542
30451W        W45920   6.095  14.822   1.400 -0.1001 -0.1041 -0.3545
30452W        W45921  13.173  15.255   5.405  0.0016 -0.1646  0.1256
30453W        W45922  10.664  13.978  14.692 -0.0791 -0.0592 -0.2177
30454W        W45923  10.193  11.765   2.443  0.1748  0.0243 -0.0533
30455W        W45924   3.285  16.243   2.428  0.2032 -0.3937 -0.0881
30456W        W45925  13.360   9.757  11.839  0.0029  0.2272  0.2250
30457W        W45926   5.663   5.811   0.670  0.0299  0.3043 -0.1709
30458W        W45927   3.457  11.034   4.178 -0.1355  0.1904  0.2423
30459W        W45928  12.341   1.274  11.289  0.0775 -0.2671  0.2288
30460W        W45929   5.414  15.073   1.697 -0.0468 -0.5431 -0.0185
30461W        W45930   2.337   6.716   0.315  0.0220  0.0326  0.2942
30462W        W45931  17.419   6.984  12.896  0.2680 -0.4206 -0.1573
30463W        W45932   8.055  12.224  13.097 -0.0380 -0.0233  0.1928
30464W        W45933   4.084   9.854  14.195  0.3128 -0.2958  0.1873
30465W        W45934  13.379  10.687  14.219  0.0353  0.0350 -0.0008
30466W        W45935  15.084   7.439   1.789  0.0323 -0.0091  0.0887
30467W        W45936  10.361   0.475   2.138  0.0815 -0.2724 -0.0249
30468W        W45937   6.003   3.755   3.995  0.0412  0.1341  0.1284
30469W        W45938  11.662   4.931   4.677  0.1417 -0.2358 -0.0719
30470W        W45939  10.294   6.610   1.647  0.1806  0.0207 -0.0692
30471W        W45940  16.769   2.152  12.532 -0.1651 -0.1578 -0.0504
30472W        W45941  10.370   4.751  13.229  0.5256 -0.2919  0.1127
30473W        W45942  15.587   9.123   5.591  0.2573  0.2453 -0.0196
30474W        W45943   7.929   7.717  15.394 -0.1611  0.3844 -0.3986
30475W        W45944  12.924   3.524  14.929  0.1721 -0.3109  0.0340
30476W        W45945   5.853   1.647   1.394  0.2497  0.1972 -0.1234
30477W        W45946   3.213   6.594  11.895 -0.1103 -0.2225 -0.2119
30478W        W45947  10.833  17.614   1.477 -0.1023  0.1250  0.1130
30479W        W45948  15.517  14.287   1.658  0.3946  0.0534 -0.0451
30480W        W45949   8.265  17.315  15.721 -0.2845 -0.0729  0.0060
30481W        W45950  12.143   9.084   2.398 -0.1024 -0.0736  0.1102
30482W        W45951   6.538   5.625  11.454  0.0487 -0.3535  0.1061
30483W        W45952  13.940   0.820  11.552  0.0719 -0.0350  0.2756
30484W        W45953  11.742  15.458   4.003 -0.1418 -0.0633  0.0492
30485W        W45954  16.088   3.913  15.242 -0.0940 -0.0087 -0.0760
30486W        W45955  15.706  14.708   0.311  0.0716  0.0223 -0.0795
30487W        W45956  13.837   2.216  13.867  0.2783  0.2086 -0.0459
30488W        W45957   7.426   2.689   3.348  0.2707  0.0730  0.1010
30489W        W45958  10.780   4.307  14.746  0.1945  0.0836  0.3170
30490W        W45959   7.066   8.081  14.731 -0.1564 -0.0429 -0.0876
30491W        W45960   3.954  15.021   5.066 -0.0069  0.1380 -0.1593
30492W        W45961  12.539   4.895   0.816  0.2728 -0.2427 -0.0954
30493W        W45962  14.231   1.453  11.983  0.0789 -0.0234 -0.1015
30494W        W45963   8.841  10.710  10.694  0.1922 -0.0179 -0.0628
30495W        W45964  10.516   1.561   0.773 -0.2089 -0.0485  0.3348
30496W        W45965   3.107   8.126  14.498 -0.0683  0.0365 -0.2599
30497W        W45966   4.966   0.364   1.537  0.0119  0.0468  0.0555
30498W        W45967  15.247   8.928  14.781 -0.0392 -0.1714 -0.0693
30499W        W45968  13.090   9.890  14.266  0.1145  0.0408 -0.0454
30500W        W45969  10.857   2.903   2.555 -0.0062 -0.2039  0.1591
30501W        W45970   9.887   2.399  11.575  0.1710  0.0755 -0.0962
30502W        W45971  12.536  17.021  14.047  0.0657  0.0960 -0.4248
30503W        W45972  11.067  18.173  14.814 -0.1821 -0.1913  0.0738
30504W        W45973   7.421   1.081  14.337  0.0115  0.0722 -0.1546
30505W        W45974  17.454  10.812  11.313 -0.0282 -0.3308 -0.1634
30506W        W45975   4.486  13.138   4.031  0.1394 -0.3048  0.1581
30507W        W45976   4.330   6.346  16.020 -0.0595  0.1573 -0.4236
30508W        W45977   0.203   5.121  12.378  0.2167  0.3195  0.0021
30509W        W45978   5.993   4.706  13.529 -0.2637  0.1175  0.2049
30510W        W45979   0.244  11.232  15.138  0.2041 -0.0478 -0.0704
30511W        W45980  10.289  17.778   5.678  0.3539 -0.2668 -0.0670
30512W        W45981   3.377  16.748  11.176 -0.0403 -0.0847 -0.2607
30513W        W45982   1.962  10.228  15.050 -0.2496 -0.0784  0.1113
30514W        W45983  17.088   3.375   4.899  0.0054 -0.0766 -0.0799
30515W        W45984   9.422   8.624   0.884 -0.1973  0.2294 -0.0414
30516W        W45985  18.274  16.635  14.124  0.2407  0.0934  0.0607
30517W        W45986   1.258   6.415  15.168 -0.1178 -0.2632 -0.2961
30518W        W45987  14.100  10.426   0.900 -0.1253 -0.1324  0.1599
30519W        W45988  18.207  17.518   2.162 -0.0127  0.2779  0.1801
30520W        W45989  13.374  16.061  13.339 -0.3411 -0.1996 -0.1972
30521W        W45990   3.554   2.779   5.125  0.3904 -0.1656  0.1445
30522W        W45991  13.801   4.881  14.641  0.0352  0.0316 -0.0699
30523W        W45992  10.284   9.880  13.414  0.0810 -0.1086 -0.0540
30524W        W45993   5.722   5.902  14.274  0.0190  0.1116 -0.5113
30525W        W45994   5.429  17.469   0.421  0.6318  0.0435 -0.3122
30526W        W45995   6.230   4.220   3.978 -0.1596 -0.0141 -0.0659
30527W        W45996  17.431   6.562   0.085  0.1165  0.0454  0.0281
30528W        W45997   9.647  17.138  12.649 -0.0089  0.0043  0.0936
30529W        W45998   8.479   0.124   0.036  0.0135 -0.0438 -0.2702
30530W        W45999   0.901   7.023  15.716 -0.1162  0.0353 -0.0565
30531W        W46000  17.319   3.261  14.501  0.0612 -0.0988 -0.0812
30532W        W46001   4.411   3.521   2.517  0.2534 -0.1294 -0.4148
30533W        W46002   8.923   2.756   6.382  0.1211  0.1962  0.1911
30534W        W46003   2.929   3.928   3.775 -0.2224  0.0689  0.1047
30535W        W46004   6.790   7.175   2.782 -0.1144 -0.1801 -0.1102
30536W        W46005   6.466   2.422   2.465  0.0350  0.0340  0.0416
30537W        W46006   9.565  13.112  16.111 -0.0430 -0.3152 -0.2809
30538W        W46007   0.841   9.352   0.719 -0.1483  0.3819  0.0005
30539W        W46008  12.729  15.631   2.258 -0.0591  0.1064  0.1288
30540W        W46009   9.474   1.384  15.712 -0.1980 -0.0145 -0.0868
30541W        W46010   8.167   4.558  14.628  0.2083  0.0303  0.1483
30542W        W46011   8.344   6.353  14.903  0.1864  0.3822 -0.0384
30543W        W46012   9.005  15.260   3.859 -0.0599  0.1114 -0.1204
30544W        W46013  14.135  16.248  15.341 -0.1945 -0.0046 -0.2446
30545W        W46014   3.564  13.052  13.836 -0.1709 -0.0399  0.1255
30546W        W46015  12.749   1.122  11.491  0.4788 -0.0327 -0.1252
30547W        W46016   2.630  11.976  12.336  0.1180  0.1789 -0.1059
30548W        W46017  16.328   4.625  15.845  0.0575 -0.2162  0.0595
30549W        W46018  10.299   3.488   1.386 -0.3591  0.1807  0.2607
30550W        W46019   1.358   0.033   5.694  0.0381 -0.0000 -0.0744
30551W        W46020  13.789  10.067  11.270 -0.3809  0.1761 -0.0567
30552W        W46021   0.998  13.019  12.938  0.1916 -0.2444 -0.2137
30553W        W46022  17.137   9.973   3.357  0.1751 -0.0978 -0.1110
30554W        W46023  17.218   2.572  11.770  0.2042  0.0123 -0.0957
30555W        W46024   8.800   2.233  14.082  0.1308 -0.0330  0.0046
30556W        W46025   4.905  16.373  12.119 -0.2363 -0.1098 -0.2914
30557W        W46026   7.621  17.730   2.454  0.1268  0.0194 -0.1271
30558W        W46027  12.490  14.024  15.399 -0.1265 -0.1221 -0.1452
30559W        W46028   0.202  18.252  13.717 -0.0837  0.0749  0.2707
30560W        W46029  12.171   8.629  14.093  0.0932 -0.0676  0.3230
30561W        W46030   2.623   0.415   0.918  0.1062 -0.2653 -0.1424
30562W        W46031  15.705   6.650  15.704  0.2110  0.0470 -0.0358
30563W        W46032  14.624   9.691   4.958  0.0584  0.0485 -0.2631
30564W        W46033  16.359  10.318  16.091  0.1834  0.1802 -0.1354
30565W        W46034  15.090  14.540   0.715  0.1595 -0.2450  0.0745
30566W        W46035  11.440  10.589   2.602  0.0571 -0.2128 -0.3388
30567W        W46036  10.221   4.545  15.409  0.1006 -0.1694 -0.1251
30568W        W46037  17.858  12.430  11.954  0.3921  0.0544 -0.0758
30569W        W46038  13.439   5.816   2.744  0.0411  0.0520  0.0678
30570W        W46039  15.699   3.099  14.900  0.1618 -0.3248 -0.1190
30571W        W46040   9.330   6.148  13.897 -0.1882  0.2956  0.1198
30572W        W46041   6.396  16.292  11.019 -0.0407  0.0238  0.0901
30573W        W46042  17.249   8.582   2.398 -0.2760 -0.2566 -0.0511
30574W        W46043  15.201   4.116  11.558 -0.0882 -0.2512  0.0720
30575W        W46044   1.428   2.597  14.004  0.0761 -0.0037 -0.2265
30576W        W46045  17.181  16.326   0.239  0.1623 -0.0921  0.1940
30577W        W46046   3.049  13.838   5.011  0.0225 -0.2512 -0.2014
30578W        W46047   7.961  13.262  14.536 -0.1202 -0.0026 -0.0295
30579W        W46048  17.119   1.070  14.426  0.0473 -0.3512  0.2143
30580W        W46049  14.925   8.310  11.826  0.1584 -0.0670 -0.2813
30581W        W46050   6.358  12.202   3.846  0.1073 -0.2290  0.0342
30582W        W46051   5.027  17.580   1.688 -0.1857 -0.4656 -0.1635
30583W        W46052  13.529  17.923   3.072 -0.1301 -0.2136 -0.0231
30584W        W46053   9.255   8.966   4.043  0.0505 -0.1727 -0.2975
30585W        W46054   5.210  10.302   3.917 -0.1212  0.0093  0.1185
30586W        W46055  11.471  13.273   2.985  0.0761 -0.2819  0.4797
30587W        W46056   6.394  17.180  14.276 -0.0219  0.2573 -0.0182
30588W        W46057  18.020   3.641   0.735  0.0648 -0.3199  0.2643
30589W        W46058  10.751   7.286   4.569 -0.1804  0.0308 -0.0639
30590W        W46059  12.494  15.245   0.192 -0.3603 -0.1898  0.2044
30591W        W46060   7.469  13.225  13.734 -0.0835 -0.1162  0.0858
30592W        W46061  16.678  15.223   5.602 -0.3707 -0.1422 -0.3025
30593W        W46062   0.792  12.194   2.181 -0.1120 -0.1281  0.1076
30594W        W46063   6.864   4.840   4.138  0.2385  0.0500  0.0312
30595W        W46064   9.733   9.754  12.608 -0.3905  0.0437  0.0519
30596W        W46065   7.842   0.547   5.135  0.0871  0.2268  0.0938
30597W        W46066   8.602   6.017  13.390  0.3160  0.3304  0.0045
30598W        W46067  11.233  11.224   2.595  0.0728  0.0451  0.0963
30599W        W46068  12.481   2.748   2.422  0.0273  0.1148  0.0844
30600W        W46069  12.303  12.541   2.961  0.0316 -0.1589  0.0829
30601W        W46070   8.769   2.894  10.250  0.0579  0.2977 -0.1101
30602W        W46071   6.109  11.635  15.450 -0.0427 -0.5256 -0.2302
30603W        W46072  15.165   6.110  13.000 -0.0489 -0.0287  0.0559
30604W        W46073  13.509   1.429   2.860  0.1728  0.2439  0.3644
30605W        W46074  10.009  14.947   2.954 -0.0500  0.2199 -0.0995
30606W        W46075   6.937   9.433   1.034  0.1638  0.1915  0.2411
30607W        W46076  13.823   8.163   5.253  0.2591 -0.3834 -0.0241
30608W        W46077   3.821  16.306  12.177  0.1394  0.3320 -0.1047
30609W        W46078   9.399  16.113  10.312  0.2392  0.1716  0.1627
30610W        W46079  15.934  16.204  10.203  0.1384 -0.2041 -0.2339
30611W        W46080   4.877  16.222   4.688  0.0377  0.0388 -0.1556
30612W        W46081  13.631   9.051   0.913  0.1260 -0.1442  0.2401
30613W        W46082   4.754   1.022   2.947  0.2012  0.0262  0.0753
30614W        W46083  14.145   3.283   5.744 -0.0639 -0.0972  0.0723
30615W        W46084   8.156   4.826   2.770 -0.2848 -0.0091 -0.0858
30616W        W46085  18.204   4.751   2.627  0.3870 -0.1023  0.1173
30617W        W46086   2.473   8.491  14.819  0.1588  0.0937 -0.1712
30618W        W46087   7.776   5.891  12.262 -0.1465 -0.0185 -0.1504
30619W        W46088  12.440   3.814  11.504 -0.2722 -0.1542 -0.2626
30620W        W46089   1.888   0.290  11.448 -0.1907  0.0442  0.0849
30621W        W46090   0.187  18.027  10.606  0.0390  0.0722 -0.5573
30622W        W46091   9.694   4.337   0.586  0.2298  0.1204  0.2103
30623W        W46092   0.410  10.768  10.896 -0.3578  0.3900  0.0620
30624W        W46093   5.702   7.329  12.356 -0.0336  0.1889 -0.2038
30625W        W46094   6.069  15.167  10.324  0.2194  0.0458 -0.1159
30626W        W46095  12.314   4.714  13.051  0.1906 -0.2308 -0.1181
30627W        W46096  13.247  17.720   2.254 -0.1704  0.1931 -0.2804
30628W        W46097   5.829  12.217  14.174  0.1431  0.1132 -0.2371
30629W        W46098   7.970  15.596  11.030 -0.4121 -0.0965  0.2703
30630W        W46099  16.831   8.477   1.445 -0.4862  0.2125 -0.1570
30631W        W46100  10.912  14.691   0.315  0.2227  0.0642 -0.1924
30632W        W46101   0.004   8.570  14.943 -0.0071 -0.1443 -0.1908
30633W        W46102   0.836  16.395  15.661 -0.3260  0.0542 -0.2843
30634W        W46103  12.507   6.556  10.959  0.0558  0.2102 -0.0960
30635W        W46104  12.153  13.828   1.159  0.1549 -0.0165 -0.0664
30636W        W46105  10.470  13.143  15.844  0.3089  0.3026  0.0266
30637W        W46106   8.158  17.923  16.029  0.0440 -0.2906 -0.3233
30638W        W46107   9.142   5.672   4.184 -0.2739  0.1362  0.1817
30639W        W46108  17.055  13.611  11.933  0.1644  0.0829 -0.0033
30640W        W46109  17.964   4.769   0.928 -0.0222  0.2726 -0.1047
30641W        W46110   4.853  14.578  14.816  0.2108  0.0198  0.0695
30642W        W46111   6.046   2.835   1.175 -0.2403  0.0605  0.1584
30643W        W46112  16.284  17.628  14.336  0.1142  0.1557  0.0292
30644W        W46113  13.015  13.399   9.907  0.1615 -0.1728 -0.1364
30645W        W46114   3.789  13.779   3.767 -0.1870  0.0388  0.1076
30646W        W46115  12.247   2.868   4.333  0.2746  0.1457 -0.1793
30647W        W46116  14.847   6.443  14.509  0.1142  0.1368  0.0158
30648W        W46117   1.903   2.751   5.844 -0.1019  0.2563  0.3419
30649W        W46118   0.222   7.635  11.961 -0.4576 -0.2625  0.0013
30650W        W46119  14.044   7.618  13.339 -0.0870 -0.4060  0.1294
30651W        W46120   7.646   7.260   1.144 -0.3805 -0.4225 -0.1590
30652W        W46121  18.074   2.279   3.913 -0.1325  0.2884  0.1510
30653W        W46122  11.463  14.391  10.112 -0.3537 -0.0549 -0.0188
30654W        W46123  11.492  17.795   4.035  0.1094  0.1485 -0.2755
30655W        W46124   5.731   6.134   4.868 -0.1307  0.0595  0.2332
30656W        W46125  11.586  15.248   3.534 -0.5387 -0.2476  0.2086
30657W        W46126  13.108  15.586   0.717  0.0120 -0.2364  0.0325
30658W        W46127  17.343  18.066   3.189 -0.2326 -0.1067 -0.2039
30659W        W46128   4.406   9.119  11.826  0.1427 -0.0024  0.4899
30660W        W46129  16.351   3.850   4.842 -0.0692 -0.0028 -0.3947
30661W        W46130   3.829  18.001   2.024  0.0263  0.0194 -0.1757
30662W        W46131  17.260  18.106   3.714  0.2839 -0.4169  0.0774
30663W        W46132  13.602   9.191   2.008 -0.0347 -0.0612 -0.2726
30664W        W46133  12.266  12.735   1.830  0.1017  0.1658 -0.0216
30665W        W46134  11.148  13.974  14.430  0.3305  0.1719  0.0141
30666W        W46135   0.528   1.363  12.665  0.1317  0.2266  0.0576
30667W        W46136   2.986   3.998  15.836  0.1539  0.0552 -0.1787
30668W        W46137  13.182  18.119   0.966 -0.1736  0.0094  0.0491
30669W        W46138   1.389  11.364  15.235 -0.0245  0.4098 -0.0780
30670W        W46139   3.155  17.363  15.671  0.2856  0.2284 -0.0573
30671W        W46140   6.124  15.854   4.739 -0.0745 -0.0105 -0.2936
30672W        W46141  10.507   4.220   2.072  0.0944  0.0226  0.0408
30673W        W46142   5.252  16.110   3.723  0.0774  0.0240 -0.1535
30674W        W46143   0.618  15.309   0.064  0.0623 -0.1776 -0.0347
30675W        W46144  12.073   6.489   3.209  0.0511 -0.3218  0.0856
30676W        W46145  12.879  15.595   3.052 -0.2572  0.0621 -0.0153
30677W        W46146  14.897  15.126  13.289  0.1423  0.0088  0.0038
30678W        W46147  15.509  10.791  15.405 -0.0352 -0.0970 -0.0841
30679W        W46148  17.813  10.534  10.927 -0.1001  0.2899  0.2060
30680W        W46149  14.866   8.136   1.178 -0.0018 -0.0358  0.0839
30681W        W46150   8.433  13.657   1.912  0.0431 -0.0535 -0.0687
30682W        W46151  16.257  16.199   2.512  0.2482  0.0675 -0.2161
30683W        W46152  16.718   2.561   2.055  0.2751 -0.0773 -0.2715
30684W        W46153  17.499   5.326  12.859 -0.1825 -0.1756 -0.1354
30685W        W46154  16.320  10.994   1.871 -0.0260  0.2392  0.1766
30686W        W46155   1.519   9.369   2.683 -0.4215  0.2114 -0.1195
30687W        W46156   6.985   9.097  14.169 -0.0171 -0.3469 -0.0333
30688W        W46157   4.552   2.475  10.995 -0.0394  0.0053  0.2612
30689W        W46158   3.874   1.434  14.348  0.2751 -0.4317  0.1417
30690W        W46159   8.734  12.035   0.822  0.1208 -0.1217 -0.0393
30691W        W46160   5.546  18.220   2.307  0.3747 -0.3072  0.1290
30692W        W46161   1.875   8.106   0.775 -0.0468 -0.1005  0.2188
30693W        W46162  15.395  11.432  13.360 -0.1264 -0.2070  0.3038
30694W        W46163   5.971   1.177  14.920  0.0784 -0.1006  0.2264
30695W        W46164  11.705  17.220   2.868  0.1895  0.1127  0.0611
30696W        W46165   4.221   4.845  11.041 -0.0818 -0.0975 -0.1492
30697W        W46166  13.050   9.487  12.515 -0.3747 -0.0083 -0.3136
30698W        W46167   9.117   5.638  11.526  0.0253 -0.1128 -0.3485
30699W        W46168  17.477  10.187  15.054 -0.2632 -0.1231 -0.1506
30700W        W46169  17.059   8.607   2.885  0.2796  0.0269  0.2224
30701W        W46170   6.497   7.421  11.323 -0.0856  0.3201  0.1559
30702W        W46171   0.849  13.349  16.092 -0.4188 -0.2551  0.3265
30703W        W46172   1.668  12.286   3.807 -0.1548  0.0281  0.0340
30704W        W46173   4.010   7.641  12.264  0.3619  0.0135  0.0989
30705W        W46174  12.828   7.793  10.901  0.0130 -0.0429  0.2526
30706W        W46175  17.538   8.823   4.370 -0.1788  0.1581 -0.5055
30707W        W46176  17.178   6.428   3.028 -0.0699 -0.1232  0.0087
30708W        W46177  10.504   7.263  14.474  0.0457 -0.1467 -0.1120
30709W        W46178  11.403   0.235  15.074  0.0464  0.0657 -0.1574
30710W        W46179  17.181  17.190   1.100  0.0944 -0.1345 -0.1691
30711W        W46180  16.758   3.472  10.954 -0.0009 -0.2011  0.0709
30712W        W46181   4.062  15.728   3.923 -0.0584  0.0295 -0.2370
30713W        W46182   6.290   0.437  15.918 -0.2479  0.1138  0.2623
30714W        W46183   7.389   3.082   5.209 -0.0600  0.2556 -0.0510
30715W        W46184   5.692   5.739  11.913  0.1527  0.1810 -0.0535
30716W        W46185  10.797  11.664  12.437 -0.1860  0.2334 -0.0770
30717W        W46186   2.630  16.019  13.028  0.3590  0.1343  0.2665
30718W        W46187   6.201  11.180   0.026 -0.1562 -0.1520 -0.0415
30719W        W46188  17.135   6.978   5.072 -0.1468  0.2031 -0.2487
30720W        W46189  17.526   1.787   3.564  0.0018 -0.0290  0.0780
30721W        W46190   3.094   5.158   4.657  0.1255  0.1787  0.0219
30722W        W46191   7.313   6.806   5.304 -0.2107  0.0389  0.0892
30723W        W46192   6.188   1.606  15.364  0.0108  0.0447  0.1385
30724W        W46193   2.380   4.590   3.251  0.0081 -0.1300 -0.1069
30725W        W46194   2.700   2.818   2.251  0.2616  0.1322 -0.1725
30726W        W46195   0.145  16.779   1.503 -0.1781  0.0666 -0.4193
30727W        W46196   5.043  13.060  12.393 -0.0990  0.1571 -0.1731
30728W        W46197   3.285   8.766   4.674  0.2525 -0.0761 -0.1812
30729W        W46198   8.765  13.185   2.645 -0.0019  0.0692 -0.1008
30730W        W46199   5.899   3.788   0.517  0.1377 -0.0853  0.1147
30731W        W46200  10.247  16.670   3.690  0.0878 -0.0452 -0.1172
30732W        W46201   3.405  15.007   3.674  0.1161  0.1810 -0.0104
30733W        W46202   3.379   5.971  12.676 -0.3543  0.3054  0.2487
30734W        W46203  12.412   7.708   1.408 -0.2594 -0.2913  0.2085
30735W        W46204  16.643   4.049  11.948  0.1644  0.2232  0.1179
30736W        W46205   5.469   3.574   3.832 -0.3204 -0.3343  0.2034
30737W        W46206   4.977   9.850   3.803  0.0772  0.0709 -0.1430
30738W        W46207  13.333  17.053   3.362  0.0836 -0.2556 -0.4343
30739W        W46208   8.997  13.773   3.731  0.0371 -0.1063 -0.3329
30740W        W46209  16.341   6.148   0.711  0.1310 -0.1140  0.4225
30741W        W46210   1.870  12.090  15.425 -0.0079  0.1425 -0.0515
30742W        W46211   4.650   8.735  12.096 -0.3040 -0.4997  0.2001
30743W        W46212   5.399  16.081  11.178  0.1831  0.3061 -0.1419
30744W        W46213  15.196   2.397  15.912  0.1754  0.0814  0.1659
30745W        W46214   5.195  15.773   2.539 -0.2954  0.0702 -0.0800
30746W        W46215  10.308  16.680  12.091 -0.2879  0.0894 -0.0546
30747W        W46216   1.191   5.391   3.841  0.0764  0.1082 -0.0987
30748W        W46217  10.296  14.139   2.398 -0.0326 -0.1541 -0.3110
30749W        W46218  11.290   8.805   4.138 -0.0879 -0.1599 -0.1742
30750W        W46219  15.888  11.958  10.234  0.1689 -0.2291 -0.2154
30751W        W46220   2.805  14.371   0.597 -0.0659 -0.1930 -0.2532
30752W        W46221   5.020   4.879  14.654 -0.0610 -0.0888  0.2521
30753W        W46222  10.132  13.474   5.014  0.2074  0.1523 -0.0003
30754W        W46223   5.435   5.293   3.669  0.1311 -0.0809  0.1749
30755W        W46224   6.500   2.963   0.330  0.0826 -0.1029  0.1235
30756W        W46225  12.535   6.541   3.209 -0.0139  0.1211  0.0799
30757W        W46226   9.270  18.097   0.736 -0.0273 -0.2602 -0.0001
30758W        W46227   6.107  16.604  11.493 -0.1306 -0.0563 -0.2220
30759W        W46228  16.819  13.885   2.089 -0.0599  0.1064 -0.0174
30760W        W46229   8.157   0.540  13.605 -0.0713  0.1478 -0.2179
30761W        W46230  18.249  17.839  12.862  0.0381  0.0778 -0.0160
30762W        W46231   9.835   9.583  14.812 -0.1871 -0.0704 -0.4366
30763W        W46232  11.234  14.424  12.758  0.1750 -0.1757  0.0295
30764W        W46233   3.592  11.859  13.579 -0.3859 -0.0139  0.0550
30765W        W46234  17.279  15.131   1.832  0.4589  0.1171  0.1820
30766W        W46235  11.591   4.649   0.352  0.0336 -0.0031 -0.0777
30767W        W46236  14.602   1.983   2.853  0.3020 -0.2117  0.1614
30768W        W46237   8.271  10.353   4.657 -0.1015  0.0327  0.1126
30769W        W46238   5.898  12.789  14.755 -0.0884  0.1948  0.2471
30770W        W46239  10.262  13.781  12.024 -0.1423  0.0815 -0.3845
30771W        W46240   3.544  15.189  12.100  0.2336 -0.0811 -0.0710
30772W        W46241   5.413   6.823   2.404 -0.2796 -0.0930 -0.3175
30773W        W46242   6.859  10.984  12.428  0.0931  0.1498  0.0596
30774W        W46243  10.839   0.306  14.670  0.0565  0.2690  0.2938
30775W        W46244  17.551  12.770   4.277 -0.2358  0.0338  0.1173
30776W        W46245   5.036  14.796   4.472  0.0112 -0.1119 -0.3148
30777W        W46246  14.415   4.478  16.117 -0.0192  0.0985 -0.2532
30778W        W46247   2.584  16.975  10.881  0.0153 -0.1871 -0.2277
30779W        W46248   4.472  15.346   3.772  0.0896 -0.3957  0.1533
30780W        W46249  17.946   3.174   3.036  0.2783 -0.2024 -0.2826
30781W        W46250  16.132  15.310  14.123  0.2093  0.0031  0.2550
30782W        W46251  15.441  11.047   1.480 -0.0037 -0.0714 -0.1114
30783W        W46252  15.969   0.279  10.294 -0.3076 -0.0950  0.2330
30784W        W46253  11.453  14.509  12.065 -0.2390 -0.2106  0.1216
30785W        W46254   7.856  17.221   5.256 -0.4730  0.1797  0.1444
30786W        W46255   0.535   2.150  14.695  0.0776  0.2910 -0.2224
30787W        W46256  16.808  17.503   4.336 -0.1884  0.1997  0.4532
30788W        W46257   8.104  16.084   4.329  0.1104  0.0711 -0.2717
30789W        W46258  15.241  17.244  13.135 -0.1866 -0.1217 -0.1739
30790W        W46259  10.124  12.277  13.192  0.3938  0.3708  0.0680
30791W        W46260  17.528   3.796  11.350  0.2964 -0.1588 -0.2018
30792W        W46261   6.975   4.478  14.924  0.0074 -0.0451 -0.2471
30793W        W46262  12.031   9.456  15.096  0.0841  0.1513 -0.0072
30794W        W46263   6.397   9.339   2.826 -0.2840 -0.3018  0.0285
30795W        W46264   7.272  11.689   3.278  0.1129  0.3259 -0.1889
30796W        W46265  16.037  17.813  13.957 -0.1081 -0.0704  0.1913
30797W        W46266   5.192  16.547   3.352  0.0480 -0.1057  0.3438
30798W        W46267  16.710  12.957   2.809 -0.1185 -0.0328 -0.2936
30799W        W46268   9.824  17.116   5.391 -0.2577  0.3672 -0.0878
30800W        W46269   8.026  15.325  16.156  0.1978 -0.1426  0.4344
30801W        W46270  10.449  13.375   9.518 -0.4392  0.1671  0.0828
30802W        W46271   6.861   4.566   2.685 -0.1448  0.0058 -0.3438
30803W        W46272  15.906  14.077  11.338  0.2497  0.3923  0.0938
30804W        W46273   9.047  11.770  13.339 -0.2861  0.1098  0.1038
30805W        W46274  17.965  13.184   3.976 -0.0297  0.3261 -0.1563
30806W        W46275  11.935   2.813   3.278  0.2613  0.1481  0.1215
30807W        W46276  16.573   3.649  12.181  0.1952 -0.2024 -0.1816
30808W        W46277   2.531  14.725  15.922 -0.0484  0.1479 -0.0845
30809W        W46278  17.972   8.151  11.745  0.1958  0.3020  0.2302
30810W        W46279  10.933  17.925  13.526  0.0831  0.2352  0.2264
30811W        W46280   9.031  17.890   1.157  0.2903  0.0523 -0.1161
30812W        W46281   3.948  14.282   3.973  0.0286  0.0114 -0.0372
30813W        W46282  11.048   3.965   2.712 -0.1469  0.3923  0.1468
30814W        W46283   1.617   3.043  13.986 -0.3531  0.0267 -0.1147
30815W        W46284  10.735   2.430  12.205  0.0930 -0.0860  0.0462
30816W        W46285  14.012   0.166   5.638 -0.1879  0.1904 -0.0516
30817W        W46286  17.333  14.596  13.793  0.0967 -0.1951  0.0379
30818W        W46287  13.265  12.076   0.803 -0.0965  0.1765  0.0056
30819W        W46288  11.267   8.639  14.578  0.0282 -0.7240 -0.0042
30820W        W46289   3.462  13.480   2.350  0.0435 -0.2962  0.0504
30821W        W46290   2.843   5.469  12.212 -0.1110 -0.3183  0.0821
30822W        W46291   0.893  14.589   0.646 -0.3596  0.0200  0.0465
30823W        W46292   8.062   6.089  12.607  0.1419  0.0553 -0.0242
30824W        W46293   1.701  11.714   0.575 -0.3450  0.1827  0.0200
30825W        W46294  16.417  10.193  10.541  0.0428 -0.0246  0.2098
30826W        W46295  11.015   9.721  13.797 -0.1089  0.1134 -0.0300
30827W        W46296   2.120   9.532  10.331 -0.1511 -0.1127 -0.1770
30828W        W46297   7.662   3.054  11.976  0.1659 -0.1100 -0.1257
30829W        W46298   0.064   9.770   3.806 -0.1171  0.2938 -0.0254
30830W        W46299  10.604  11.825   2.192 -0.2280  0.0390 -0.0328
30831W        W46300   9.639  16.735  11.812 -0.0310 -0.1782  0.1102
30832W        W46301   9.660   3.056  15.403 -0.0500  0.4121 -0.0164
30833W        W46302  11.520   2.726  12.303 -0.2291  0.2677 -0.0230
30834W        W46303  15.811   7.803   0.114 -0.1900  0.1301 -0.0019
30835W        W46304  11.843   8.095  15.370  0.1904  0.1277  0.0065
30836W        W46305   7.684   5.798  15.610 -0.2150  0.2335 -0.0860
30837W        W46306   3.314   8.664  12.079 -0.3373  0.1802  0.1247
30838W        W46307   0.981  17.708   4.562 -0.2500  0.1460  0.1194
30839W        W46308  10.275  15.173   5.005 -0.0382 -0.3327  0.1134
30840W        W46309  10.729   7.472  11.118 -0.1117  0.0194  0.0462
30841W        W46310   6.346   1.622   0.588 -0.0255  0.3278 -0.1875
30842W        W46311   5.937   3.859  11.744  0.0236  0.0795 -0.3077
30843W        W46312   1.148   3.547   0.969  0.1828  0.1447  0.3026
30844W        W46313   5.603   1.586   1.933 -0.1026 -0.1817  0.0271
30845W        W46314  12.461  16.089   2.333 -0.0493  0.0650 -0.2061
30846W        W46315   1.938   3.312  15.608 -0.1512 -0.2202  0.0661
30847W        W46316   8.686   5.730   0.135  0.0266 -0.0310 -0.1607
30848W        W46317  15.419  15.444   4.962  0.0677 -0.2109 -0.3258
30849W        W46318  16.970  14.186   2.573 -0.3532  0.0820  0.2526
30850W        W46319  12.314   2.458   1.037 -0.2920  0.1971 -0.1695
30851W        W46320  10.616  12.115   0.790 -0.4481  0.0362  0.1037
30852W        W46321   5.977  11.010  12.152  0.1350 -0.0790 -0.0248
30853W        W46322  15.448   0.502   0.184  0.4441  0.0381 -0.2958
30854W        W46323   1.577  15.752   0.822 -0.3386 -0.1279 -0.0348
30855W        W46324   8.953   7.757  12.321 -0.2452 -0.0939 -0.3194
30856W        W46325  14.652   8.641   2.948  0.2077 -0.1305  0.0180
30857W        W46326   6.332   2.633  11.319 -0.1305 -0.1459  0.1054
30858W        W46327   8.024  12.091   2.482 -0.2327  0.1968 -0.0384
30859W        W46328   4.876   0.065   2.822  0.0391  0.2245 -0.1006
30860W        W46329  17.925  14.258  15.758 -0.0797 -0.0985  0.1919
30861W        W46330   7.608   3.556  13.815 -0.2068  0.2319 -0.0150
30862W        W46331  16.087  10.038  13.976 -0.0176 -0.0309 -0.1115
30863W        W46332   7.070   1.168   2.478  0.0348  0.1392  0.0970
30864W        W46333   4.254   3.071   2.295 -0.3794 -0.0805 -0.3172
30865W        W46334   4.433   3.593   1.268  0.0118 -0.1291  0.1967
30866W        W46335   3.150  15.341   2.407  0.2275  0.1399  0.1256
30867W        W46336  13.977  14.557   5.668 -0.0154 -0.0186 -0.0579
30868W        W46337   8.090   0.581   1.105 -0.2461  0.4245  0.0800
30869W        W46338  11.128  14.365   4.538  0.0776  0.1029  0.0435
30870W        W46339   5.532   4.046  15.767 -0.0352 -0.1456  0.0841
30871W        W46340  11.772   2.307  15.324 -0.0089 -0.3252  0.2239
30872W        W46341  13.735   6.516   4.172  0.5209 -0.2314 -0.0490
30873W        W46342  16.553   0.895   2.766 -0.0460 -0.0024  0.0481
30874W        W46343   0.308   1.489  10.751  0.2981 -0.1628  0.0201
30875W        W46344   3.985   5.750  13.471  0.2313  0.1663 -0.2145
30876W        W46345  13.728   8.323   3.621 -0.0596  0.2801  0.1080
30877W        W46346  11.017  12.265   9.608 -0.2357 -0.4669  0.0121
30878W        W46347  11.206  17.271  13.978  0.1718  0.2518 -0.2805
30879W        W46348   6.903  17.078   4.421  0.0298 -0.1065 -0.2903
30880W        W46349   5.854   6.553   3.616  0.3729 -0.1321 -0.1909
30881W        W46350  14.892   7.245  11.584 -0.0152  0.3326  0.0344
30882W        W46351   3.552   3.283   1.572  0.0029  0.0743  0.2375
30883W        W46352   0.360  16.330   0.225 -0.3511 -0.0652  0.0966
30884W        W46353  17.964  16.704  12.374 -0.2150 -0.2491 -0.0517
30885W        W46354  16.338  14.876  14.378  0.2538  0.1398  0.1629
30886W        W46355   7.712   1.229  13.969  0.3735 -0.0832  0.0786
30887W        W46356   8.740  17.106   2.011  0.0465 -0.0627  0.1118
30888W        W46357  10.369   7.232   4.880  0.0910 -0.2701 -0.1456
30889W        W46358   9.480   8.495  13.192 -0.0343 -0.0398  0.0253
30890W        W46359   0.035   9.786   2.890  0.1155  0.1880 -0.1018
30891W        W46360  17.120   1.836   4.155 -0.0960  0.2299  0.1475
30892W        W46361  12.668   9.352   0.472 -0.0823 -0.0272  0.0991
30893W        W46362  14.284   1.110  15.289 -0.0459 -0.0415 -0.1217
30894W        W46363  17.049  11.932  15.956 -0.2276 -0.2024 -0.1542
30895W        W46364  14.932   4.453  14.809  0.1379 -0.0010  0.0965
30896W        W46365   4.770   7.845   5.290  0.0381  0.2938  0.1193
30897W        W46366   8.701   6.057   2.595  0.3238 -0.1719  0.2051
30898W        W46367  17.467  14.917   3.279  0.0631 -0.2881  0.1296
30899W        W46368   1.231  12.702   2.118  0.2207  0.3182  0.1366
30900W        W46369  16.757  17.891   4.919 -0.1963  0.2645 -0.1032
30901W        W46370  13.178   2.810  12.063  0.0689 -0.0140 -0.1216
30902W        W46371  12.455   2.906   0.509  0.2738  0.4688 -0.1429
30903W        W46372   8.919   5.134   4.942 -0.0135 -0.0100  0.0687
30904W        W46373  10.759   7.469  14.087  0.0316 -0.0176 -0.2776
30905W        W46374   6.381   3.828   2.659  0.0264 -0.1965  0.2583
30906W        W46375  12.689  15.953   5.204 -0.5893  0.1500 -0.0543
30907W        W46376   7.537  11.499  15.604 -0.2748 -0.0301 -0.0735
30908W        W46377   0.862   2.682  11.896  0.1745  0.0702  0.0851
30909W        W46378  15.289  14.582  15.587  0.1103 -0.2666  0.0711
30910W        W46379   7.499  14.605  16.114  0.0040  0.4215 -0.0005
30911W        W46380  11.375   8.818   4.642  0.0095 -0.4547 -0.2087
30912W        W46381   3.693   2.546   4.726  0.0307  0.0966  0.1601
30913W        W46382  13.287   4.541  15.181  0.0558 -0.2196  0.0929
30914W        W46383   5.336  15.889   5.172  0.0818 -0.3900  0.0354
30915W        W46384   8.138  11.854   2.050  0.1210  0.1896  0.2083
30916W        W46385  12.538   3.459  14.041 -0.1246  0.0450  0.1574
30917W        W46386  12.192   2.949  15.837  0.2679 -0.1019 -0.0601
30918W        W46387  13.942   8.921  10.586  0.2136 -0.0232 -0.1097
30919W        W46388  13.135  18.209   2.119 -0.0259  0.0588  0.1213
30920W        W46389   3.042   7.407   1.513 -0.0498  0.2872 -0.1576
30921W        W46390  15.078   2.223   5.485 -0.1492  0.0202  0.1385
30922W        W46391   6.724   6.045  11.706 -0.1065 -0.0410  0.2206
30923W        W46392   4.985  14.173  14.508  0.2108 -0.0564  0.0357
30924W        W46393  16.743   3.025   4.786 -0.2179 -0.0507  0.1446
30925W        W46394   1.636   2.512  15.575 -0.0584 -0.0328 -0.0294
30926W        W46395  16.773   2.992  10.645  0.2283  0.1848 -0.2319
30927W        W46396   9.105  15.041  12.877 -0.0395  0.0239  0.0813
30928W        W46397   1.792   6.564   4.354  0.0654 -0.0581  0.1873
30929W        W46398   3.241  15.829   0.773  0.3685  0.0848  0.0208
30930W        W46399  14.740   1.138   1.708 -0.1925 -0.2121  0.0557
30931W        W46400  16.337  11.950   1.955 -0.0309 -0.3321  0.4305
30932W        W46401  12.185   0.071   2.072  0.3345 -0.2183 -0.2347
30933W        W46402  16.071   0.381  11.543 -0.0123 -0.0487  0.3897
30934W        W46403  14.926   0.130  15.151 -0.0544 -0.1653  0.0570
30935W        W46404   4.851  16.619  12.875 -0.3932 -0.0480  0.2790
30936W        W46405   7.759   0.763  12.043 -0.0895 -0.1272  0.0368
30937W        W46406   7.312   7.216   5.574 -0.0475 -0.0152 -0.1466
30938W        W46407   8.214   6.155  12.085  0.0999 -0.2677 -0.1099
30939W        W46408  17.902   4.048   3.145 -0.3243 -0.1964  0.0290
30940W        W46409  13.459  13.204   5.639  0.2068  0.1662  0.2895
30941W        W46410   6.907   1.851  12.607  0.0959 -0.1770  0.2087
30942W        W46411  17.994  11.077  15.979  0.0119 -0.0889 -0.0981
30943W        W46412  11.727   6.634  11.238  0.2563 -0.1073  0.0773
30944W        W46413   2.414  17.893  11.081  0.0440  0.2493  0.0854
30945W        W46414  15.920  18.179   5.590  0.1374 -0.0192  0.3655
30946W        W46415   7.651   7.659   3.211 -0.1529  0.0170 -0.1871
30947W        W46416  12.575   7.225  11.831  0.1913 -0.1712 -0.4521
30948W        W46417   0.758   0.595  15.648 -0.2256 -0.0081  0.1032
30949W        W46418  10.635   0.365   3.021  0.5374 -0.1253 -0.0646
30950W        W46419  11.950  14.701  13.764 -0.0699 -0.1034 -0.1553
30951W        W46420   4.946  10.658  12.031 -0.1706 -0.1717 -0.2858
30952W        W46421  16.608   9.924   1.523  0.1458  0.0467 -0.2461
30953W        W46422  15.379   8.588  12.603  0.0356  0.0196  0.0057
30954W        W46423   2.555  13.384  11.910  0.0464 -0.0299  0.1444
30955W        W46424   0.062   9.680   1.196  0.1620 -0.1238 -0.0865
30956W        W46425   4.890   8.025  14.401 -0.3219 -0.0759 -0.0056
30957W        W46426  15.439  13.378  12.171  0.0509  0.0505 -0.2181
30958W        W46427   0.638  13.586  13.225  0.1105 -0.0707  0.0307
30959W        W46428   0.796  13.053   0.601  0.2421 -0.2998  0.0627
30960W        W46429   2.684  11.726   1.708 -0.1512  0.1569  0.0233
30961W        W46430  17.154  10.364   5.250  0.2750  0.3789 -0.0597
30962W        W46431  12.735   7.275   2.384 -0.1946 -0.1193 -0.0647
30963W        W46432  18.084  12.715   4.310  0.2075  0.3508 -0.0700
30964W        W46433  18.140   3.024  11.677 -0.2406 -0.2330  0.1363
30965W        W46434  18.124   1.820  13.684  0.1560 -0.0417 -0.0165
30966W        W46435   6.482  15.407   2.896 -0.0026 -0.1696  0.1525
30967W        W46436  16.709   5.500  10.704  0.1796 -0.1313  0.0814
30968W        W46437   1.091   9.634   2.818  0.0772 -0.2569 -0.0019
30969W        W46438   0.795  12.017  12.183  0.2851  0.2917 -0.1280
30970W        W46439   9.280   0.085  15.829  0.0197  0.1181 -0.1228
30971W        W46440   3.135   0.923  14.498  0.0264  0.0033 -0.1517
30972W        W46441  16.691   2.378  12.066 -0.0684 -0.0130  0.0142
30973W        W46442   6.885  12.372   0.236 -0.0850  0.2824 -0.1837
30974W        W46443   5.395   0.195   1.442  0.0377 -0.1609  0.2102
30975W        W46444  16.336   5.886  12.957  0.2456  0.2826 -0.0646
30976W        W46445   9.080  14.278   3.378 -0.4146 -0.2636  0.2442
30977W        W46446   4.100  10.665   5.978  0.3080  0.1984 -0.1675
30978W        W46447   2.143  16.177  13.007 -0.3550  0.2021  0.5013
30979W        W46448  15.184   8.001  15.682 -0.0421  0.1020  0.2260
30980W        W46449   4.236  13.542   4.150 -0.0209 -0.2749 -0.4238
30981W        W46450  14.768  16.007  11.874 -0.1990  0.0948  0.2180
30982W        W46451  10.847  11.089  11.135 -0.2151 -0.1855 -0.1607
30983W        W46452   1.716  12.010  13.302  0.0549  0.1431 -0.0715
30984W        W46453   0.818   3.006  14.600 -0.0262  0.0256  0.2059
30985W        W46454   5.334  16.857   1.723  0.0652 -0.0764 -0.2667
30986W        W46455   5.255  16.134  12.983 -0.1208  0.1093 -0.0834
30987W        W46456   6.307   0.161  11.351  0.0306 -0.1225  0.0297
30988W        W46457   3.717   1.330   5.903  0.1095 -0.2792  0.1282
30989W        W46458  12.385  15.582   1.403 -0.2337  0.1028 -0.0827
30990W        W46459   7.961   2.791   3.967 -0.0992  0.0474  0.2102
30991W        W46460   6.872   2.277  13.903  0.2290 -0.1901 -0.0337
30992W        W46461   3.937   6.801   2.669  0.2322  0.3205 -0.1379
30993W        W46462  14.916   8.723   0.340 -0.1744  0.1356 -0.2619
30994W        W46463   3.592  15.826  11.070  0.4276 -0.1742  0.0456
30995W        W46464   8.255  18.274   5.470 -0.1681  0.1126  0.1551
30996W        W46465   7.203  14.865  10.683 -0.0534  0.0244 -0.0124
30997W        W46466   3.077   7.563   0.560  0.2176 -0.2126 -0.2902
30998W        W46467  16.598  17.267  14.285  0.1100  0.0405  0.2192
30999W        W46468  14.821   8.565  14.057  0.0584 -0.0261  0.2355
31000W        W46469  17.487   0.834   3.635 -0.0990  0.0999 -0.0195
31001W        W46470  16.172   0.029   0.570 -0.0673  0.1768  0.0597
31002W        W46471   9.449  17.774  11.388  0.1544 -0.1057  0.1144
31003W        W46472  15.577   8.199  12.957 -0.3084  0.1410  0.1110
31004W        W46473   3.169  10.986  13.050 -0.0904  0.1462  0.2785
31005W        W46474   9.907   5.028   5.099 -0.0025  0.0912  0.2162
31006W        W46475   8.151  15.422   0.477 -0.1248 -0.1120  0.0002
31007W        W46476   8.735  13.439  14.398 -0.0735 -0.0419 -0.1258
31008W        W46477  13.276   2.696  13.448  0.0862  0.0394  0.0125
31009W        W46478   8.122   7.166   0.196  0.2077  0.3334  0.1507
31010W        W46479  17.288   8.163   5.405  0.3062 -0.2696  0.1523
31011W        W46480  14.230  11.414   3.363  0.3059  0.2895  0.0028
31012W        W46481   0.678   4.428   0.053 -0.4172  0.0027 -0.0381
31013W        W46482  15.151   5.406  13.597 -0.0003  0.3875  0.2481
31014W        W46483   7.853  12.945  13.452  0.0256 -0.3409 -0.1618
31015W        W46484   9.952  18.008  13.851 -0.0186  0.1570 -0.0416
31016W        W46485   8.102  12.664  11.879  0.3946  0.1809 -0.1797
31017W        W46486  16.892   6.957  13.063  0.3410 -0.0631 -0.0758
31018W        W46487   9.074  10.228  13.199  0.0808 -0.3324 -0.0317
31019W        W46488   3.230   9.738  14.189  0.2268 -0.1302 -0.1727
31020W        W46489  14.361   5.383   5.420 -0.1640  0.0231  0.1019
31021W        W46490   2.651   6.062  10.387 -0.1219 -0.3415  0.0295
31022W        W46491  11.221  15.434   2.420 -0.0963 -0.2506 -0.0560
31023W        W46492   9.112   5.999   1.318 -0.0477 -0.1325 -0.0244
31024W        W46493   5.732   5.910   4.081 -0.0141  0.0484 -0.0559
31025W        W46494  13.368   4.998  14.899  0.0104 -0.2547 -0.0223
31026W        W46495   2.422  10.056  13.693  0.3330 -0.1632 -0.1842
31027W        W46496   6.908   9.788  14.275 -0.2601  0.0488  0.2401
31028W        W46497   8.307  13.163  11.997 -0.1059 -0.0020 -0.0075
31029W        W46498   9.345  14.276   2.916  0.0769 -0.2733 -0.0607
31030W        W46499   6.859  10.722  11.881 -0.0698  0.1898  0.0294
31031W        W46500   1.740   6.388  15.548  0.1916 -0.1600  0.1908
31032W        W46501  16.882   4.878  15.757  0.0113  0.3728 -0.0155
31033W        W46502   1.201   8.185  14.395 -0.1166  0.2708  0.1893
31034W        W46503   9.788  11.038   1.557 -0.1005 -0.0562  0.1923
31035W        W46504   8.304   6.606   0.907  0.0368  0.0834  0.1902
31036W        W46505  12.749   6.505  14.023  0.2354  0.3986 -0.0281
31037W        W46506   8.571   8.037   2.079  0.1452 -0.3980  0.1895
31038W        W46507  14.663   2.560   0.565 -0.1424 -0.3388 -0.0292
31039W        W46508  10.892   4.387   1.211 -0.2862  0.0317  0.2235
31040W        W46509   9.499   5.795  13.541 -0.1842  0.1312 -0.2521
31041W        W46510   4.590  17.562  10.783 -0.1095 -0.0464  0.0715
31042W        W46511  17.346   1.599  14.488 -0.2368 -0.0728  0.3455
31043W        W46512   1.624   8.302   4.987  0.1348  0.1477  0.0534
31044W        W46513  11.171   2.411   0.873 -0.1293  0.2962  0.2376
31045W        W46514   5.240   9.697  10.046  0.1812 -0.1976 -0.1665
31046W        W46515  17.520   8.711  15.116  0.0225 -0.0165 -0.1499
31047W        W46516  15.871   6.799  12.329 -0.0426  0.0857  0.0569
31048W        W46517  14.040  17.578   0.923 -0.0414  0.1537 -0.0358
31049W        W46518  16.440  15.922   2.124 -0.0220  0.0660 -0.0183
31050W        W46519   5.346  16.563   3.955 -0.1021 -0.0329  0.0471
31051W        W46520  17.993  15.462   5.043  0.1955 -0.1605 -0.1406
31052W        W46521   9.456  12.817   2.322  0.0350  0.1251 -0.2519
31053W        W46522  14.920   3.463  14.632 -0.1424  0.0396 -0.1279
31054W        W46523   4.361   0.988   5.017 -0.1008 -0.1802  0.1413
31055W        W46524   3.716   8.991   3.788  0.2623  0.0222 -0.2387
31056W        W46525   6.356  15.451   0.741  0.0937  0.0998 -0.0974
31057W        W46526  18.108   8.657  13.866  0.2914  0.0411  0.1494
31058W        W46527   0.887   8.909  10.734 -0.1563 -0.0242 -0.0031
31059W        W46528   5.590  14.540   3.945 -0.1711  0.0017  0.0386
31060W        W46529   2.554   7.970  14.837  0.3068 -0.2100  0.2890
31061W        W46530  10.126   3.339   0.498  0.2411 -0.0377 -0.1068
31062W        W46531   3.451   4.738   2.267 -0.0187 -0.3910 -0.2073
31063W        W46532   4.146  14.518   1.023  0.0568  0.2648  0.1231
31064W        W46533   4.297  16.194  15.204 -0.0148  0.0071  0.1240
31065W        W46534   0.205   8.525   2.193  0.1953  0.0262  0.2851
31066W        W46535   2.631  12.595  16.022  0.4687 -0.2956 -0.0272
31067W        W46536  14.356   2.883  14.136 -0.0347 -0.0614  0.1780
31068W        W46537   3.766   8.714  11.580 -0.0456 -0.2450  0.1074
31069W        W46538   8.611  17.261   4.783  0.0441  0.0559  0.2931
31070W        W46539   7.025   9.967   1.950 -0.0593  0.1075  0.1575
31071W        W46540   4.215   9.989   0.680  0.0752 -0.2337 -0.1616
31072W        W46541  10.245  16.136   3.848  0.1832  0.0052 -0.0067
31073W        W46542   3.792   8.485   2.595 -0.0983 -0.0803 -0.0139
31074W        W46543   9.016  15.658   1.440  0.1168  0.0750 -0.2147
31075W        W46544   2.238  12.011  13.902  0.0452  0.1642  0.1604
31076W        W46545   9.639   0.372   5.583  0.2681  0.1671 -0.2063
31077W        W46546  13.342  15.342  12.275  0.0079  0.1586 -0.2815
31078W        W46547   9.056  10.330   0.562 -0.5276 -0.1309 -0.1967
31079W        W46548  10.969  17.423   2.375  0.0106 -0.2200 -0.0442
31080W        W46549   8.102   7.215  14.356  0.0316  0.0999 -0.1195
31081W        W46550  13.562   6.220  16.169  0.0233 -0.1504  0.0561
31082W        W46551   6.370   5.581  15.255 -0.1092  0.1888  0.1043
31083W        W46552  14.179   2.277   2.928  0.0267  0.3440 -0.0310
31084W        W46553  11.892   7.877   2.672  0.0560 -0.0118 -0.1031
31085W        W46554   2.680  17.872   3.068 -0.1601  0.0767 -0.0878
31086W        W46555   2.060  16.687  12.798  0.1980 -0.1634  0.1833
31087W        W46556  14.205   2.598   0.292  0.2455  0.0136 -0.0668
31088W        W46557   2.328  16.083   4.182 -0.1520  0.0975  0.0331
31089W        W46558  16.431   0.426  14.828  0.1827  0.3008 -0.2249
31090W        W46559  13.584   7.527  10.445 -0.2840  0.1888 -0.0289
31091W        W46560  17.815  16.325  12.597  0.0747  0.0096 -0.0313
31092W        W46561  17.138   7.902  12.234 -0.0309  0.1184 -0.0365
31093W        W46562  10.043   5.620   0.615 -0.2445 -0.0420  0.1056
31094W        W46563   8.073   8.623   3.924  0.1270 -0.1475  0.4342
31095W        W46564  15.776  14.552  11.103  0.1523  0.0833 -0.1099
31096W        W46565  14.103  14.464   5.173 -0.2761  0.1826 -0.0690
31097W        W46566  14.585   1.559  11.571  0.1323 -0.1997  0.1837
31098W        W46567  17.534  13.493  13.088  0.0130 -0.1101  0.2388
31099W        W46568   9.288   1.778   0.859 -0.0968  0.3779  0.1269
31100W        W46569  12.004   7.432   2.852  0.0592  0.4523 -0.0509
31101W        W46570   6.547  13.532   0.500 -0.0194  0.0473  0.2117
31102W        W46571  13.591   0.034   1.250 -0.0357  0.1288 -0.1472
31103W        W46572   8.889   9.636  13.891  0.0754  0.1373  0.0874
31104W        W46573  11.599  15.273   2.670 -0.0354 -0.2760  0.0431
31105W        W46574  13.794   7.712   2.192  0.4319  0.0383  0.3258
31106W        W46575  15.952  18.043  11.717  0.0499  0.4090  0.0436
31107W        W46576  11.815   9.520   1.232 -0.3442 -0.0194 -0.2252
31108W        W46577   2.551  14.278   5.557 -0.2139  0.2960  0.1076
31109W        W46578  13.859   0.036   5.083  0.2099 -0.2399  0.1039
31110W        W46579  14.376   5.606  14.392 -0.1419  0.1114  0.0074
31111W        W46580   3.002   8.134  13.043  0.2711  0.2202 -0.0236
31112W        W46581   0.036  11.909  11.339  0.3684  0.1863 -0.0615
31113W        W46582  16.713   7.145  15.584  0.4979  0.2498  0.1443
31114W        W46583  12.205   2.413   4.643 -0.0871 -0.2354  0.2178
31115W        W46584  17.435  10.247   2.397 -0.0582  0.0808  0.2188
31116W        W46585   8.686  17.074  15.956 -0.0220 -0.0929 -0.2064
31117W        W46586   4.690   3.832   3.935  0.1475  0.0268  0.0502
31118W        W46587   3.753   5.046   3.753  0.1490 -0.1721  0.2563
31119W        W46588  18.130   3.353   4.613  0.1522  0.0517  0.0488
31120W        W46589   0.235   2.908   3.565  0.3385  0.0095 -0.0137
31121W        W46590   1.695  11.612   4.482  0.1185  0.0476  0.1483
31122W        W46591   3.839  15.953   2.464 -0.2124  0.2042  0.3182
31123W        W46592   1.445  15.284   0.980 -0.0989  0.0822 -0.1088
31124W        W46593   8.399   2.170   3.108 -0.0864 -0.0374 -0.0961
31125W        W46594   2.980   1.350  15.326  0.3990 -0.1129  0.0508
31126W        W46595  17.168  15.904   3.247  0.0440  0.0522 -0.4152
31127W        W46596  17.808  12.539  13.183 -0.0605 -0.1852 -0.1526
31128W        W46597  10.222   3.501  11.709 -0.2132 -0.1225  0.1763
31129W        W46598  15.636  18.112  12.949  0.1145 -0.0038  0.1819
31130W        W46599  16.228   2.611   2.945  0.2368 -0.2180  0.1669
31131W        W46600   5.051   8.897   2.751 -0.0396  0.1762 -0.0863
31132W        W46601   8.683  15.083  11.222 -0.3019 -0.1068 -0.0281
31133W        W46602   7.408   2.431   2.861  0.0189 -0.0012  0.0583
31134W        W46603   3.788  13.858   0.658  0.0360 -0.1740  0.2651
31135W        W46604  14.954  17.488   5.980 -0.0831 -0.2078  0.2066
31136W        W46605   2.209   4.575  13.470  0.2175 -0.1575  0.0868
31137W        W46606   2.639  18.119  12.862  0.1783 -0.1465 -0.1263
31138W        W46607   0.915   9.326   3.163  0.1346  0.0926  0.0184
31139W        W46608   5.985   0.093   2.225  0.0113  0.2685 -0.0851
31140W        W46609   0.799  10.408   0.804 -0.0915 -0.0694 -0.0020
31141W        W46610   4.916  11.692  15.758 -0.2268 -0.0909 -0.1245
31142W        W46611  15.437  13.222   5.575 -0.1069  0.0644 -0.0670
31143W        W46612  16.083   9.452   5.436 -0.2863  0.0648  0.0658
31144W        W46613   7.078   5.411   1.700  0.1505  0.1360  0.0666
31145W        W46614   1.997   8.784   1.910  0.0777  0.1517  0.4175
31146W        W46615   5.877  15.430  13.380 -0.1894  0.2615 -0.3319
31147W        W46616   9.906  13.895  14.857 -0.1840 -0.0495  0.0081
31148W        W46617   2.367   2.761  10.376 -0.3283 -0.0134  0.0094
31149W        W46618   9.457   6.043  15.696  0.4324 -0.0463 -0.1466
31150W        W46619  12.265  14.679   1.104 -0.2559  0.1046 -0.1678
31151W        W46620  14.144  15.963  13.750 -0.1272 -0.0254 -0.1674
31152W        W46621   9.684  13.564  13.543 -0.2799  0.3328 -0.4590
31153W        W46622   2.901   4.872  14.210 -0.1352  0.2820  0.2063
31154W        W46623  17.284  11.836  14.995  0.0204 -0.1297  0.2173
31155W        W46624   9.878   6.677  13.520  0.1405  0.2005  0.0594
31156W        W46625  10.791  12.031   1.499  0.0432 -0.1796 -0.0225
31157W        W46626  18.285   6.168  15.902 -0.2260  0.1533 -0.0456
31158W        W46627   5.078   2.921  14.607 -0.0411 -0.0881  0.0385
31159W        W46628   6.651   1.472   5.475 -0.0066 -0.0527 -0.0742
31160W        W46629  15.054  12.332   0.350  0.1113  0.0283 -0.4364
31161W        W46630  14.593   9.001   2.131 -0.1424 -0.1727 -0.0296
31162W        W46631  14.169   9.037   0.817  0.1543  0.0724  0.1932
31163W        W46632  14.021   6.417  11.747 -0.1575  0.0656 -0.1454
31164W        W46633   3.422   4.232   2.060 -0.1903  0.2102  0.0070
31165W        W46634   0.341   2.029   0.718 -0.1815 -0.0970  0.1357
31166W        W46635  10.334  14.790  13.120  0.3281  0.2867 -0.0576
31167W        W46636   0.537  12.827  11.169  0.2357 -0.2209  0.0716
31168W        W46637   2.958  12.172   1.568 -0.0777 -0.0509  0.2001
31169W        W46638  12.037  13.777  14.881 -0.1265 -0.0331 -0.0773
31170W        W46639  11.505   9.106  14.572  0.3222 -0.0804  0.2951
31171W        W46640  16.607  15.292   2.668  0.1027 -0.0951 -0.1675
31172W        W46641  13.561  15.243   0.686  0.4232 -0.1408 -0.1747
31173W        W46642   7.123  15.032   2.209  0.0239  0.1446  0.0381
31174W        W46643  13.548  14.113   4.915  0.0457 -0.1700  0.0585
31175W        W46644   6.117  17.593   3.188 -0.0588 -0.0417  0.2822
31176W        W46645   3.847  10.757   2.674  0.0206 -0.0315  0.0494
31177W        W46646   7.858   9.927  12.657  0.1017  0.2406  0.1378
31178W        W46647  10.198  17.216   0.886 -0.1109 -0.2135  0.0413
31179W        W46648  16.495  16.255  13.052 -0.0412  0.0240  0.0131
31180W        W46649  15.530   9.224   4.766  0.0325  0.0786  0.0126
31181W        W46650  15.470   1.200  11.728  0.1704  0.0729 -0.0652
31182W        W46651   9.057   8.085  14.886  0.0384  0.3081  0.0093
31183W        W46652  13.690  10.666   5.277 -0.0170 -0.1323 -0.1683
31184W        W46653  13.729   3.792   5.490 -0.1074  0.1789  0.2139
31185W        W46654   2.149   5.631  15.337  0.0960  0.5136 -0.1524
31186W        W46655   2.325  17.094  11.300  0.0318 -0.0992 -0.3561
31187W        W46656   6.031  17.102   0.967  0.0179  0.0348  0.3120
31188W        W46657   2.776   1.999   3.624 -0.1820  0.1722  0.0952
31189W        W46658   7.447   9.737  14.423 -0.1354  0.0123  0.2341
31190W        W46659  12.842   6.207   1.305  0.3093 -0.0738  0.2480
31191W        W46660  13.932   6.984  15.506 -0.2465 -0.1273 -0.0755
31192W        W46661  14.088   0.672   6.020 -0.1339  0.0038 -0.0890
31193W        W46662   8.447   7.717   3.642  0.0290 -0.0236 -0.1842
31194W        W46663   3.210   6.191  15.291 -0.0462 -0.0546 -0.0624
31195W        W46664  14.385  12.534   1.475  0.0652 -0.2615  0.0652
31196W        W46665   3.968   9.506   3.827 -0.2027  0.1681  0.1486
31197W        W46666  13.565   6.122   1.138 -0.0508  0.0454 -0.1162
31198W        W46667   1.494  16.258   0.824 -0.3893 -0.3275 -0.2460
31199W        W46668   3.398  17.631  12.230 -0.4687  0.0302  0.1458
31200W        W46669  10.655  12.990   1.716  0.2265  0.2879 -0.1404
31201W        W46670  12.374  10.785  13.193 -0.0557  0.0297  0.1667
31202W        W46671  16.564  13.078  13.185 -0.0881 -0.1849 -0.0149
31203W        W46672  16.989  10.629   2.994 -0.2493 -0.3137  0.3048
31204W        W46673   4.448  13.319  10.849  0.0487 -0.0465 -0.3202
31205W        W46674  12.032   2.970  14.955  0.0496 -0.2049 -0.1905
31206W        W46675  10.549   0.424  15.407 -0.2099 -0.0639 -0.1434
31207W        W46676   8.013   7.232  15.379  0.1488  0.0052  0.0228
31208W        W46677   8.745  11.971  12.563 -0.1570  0.1489 -0.0197
31209W        W46678  14.086   4.060   3.605  0.0532 -0.1309 -0.1970
31210W        W46679   2.965   5.305   0.890 -0.0384  0.0068 -0.1086
31211W        W46680   4.022   1.553  12.115  0.2432 -0.1767 -0.1469
31212W        W46681   2.922  13.923  15.837 -0.0830  0.3550 -0.2777
31213W        W46682  13.908  10.351  15.183 -0.1758 -0.0565 -0.1597
31214W        W46683  16.260  12.581   0.666 -0.2005 -0.1680  0.0899
31215W        W46684  11.634   1.658  12.177 -0.1292 -0.2107 -0.0421
31216W        W46685  11.492   7.587   2.885 -0.0835 -0.4280 -0.0229
31217W        W46686   6.024   6.071   5.286  0.2297  0.1240  0.1519
31218W        W46687  10.901  12.697  13.510 -0.0659  0.0040  0.0259
31219W        W46688   6.743   3.681  12.037 -0.1100  0.3486  0.1547
31220W        W46689  15.805   8.296   0.376  0.0843  0.0260 -0.5087
31221W        W46690   5.478  16.336   1.908 -0.1200  0.0909  0.5296
31222W        W46691   8.769  16.852  15.513  0.2023 -0.0864 -0.2792
31223W        W46692  15.142   1.880  14.024  0.1855  0.2244 -0.1482
31224W        W46693  18.261  10.664   3.888 -0.0378  0.0830 -0.0376
31225W        W46694  12.046  14.754  11.367 -0.1380 -0.1024  0.0185
31226W        W46695  14.761  15.873  14.310  0.0240  0.1308 -0.0737
31227W        W46696   8.596   1.708  13.821  0.1713  0.1055  0.0402
31228W        W46697   7.490   7.354  12.166  0.0636 -0.4098 -0.5490
31229W        W46698  15.465  18.106  15.997  0.0361  0.1524 -0.1528
31230W        W46699   1.507  11.896  15.055 -0.1054 -0.2501 -0.0334
31231W        W46700  11.773   8.495  14.430  0.1641 -0.1458  0.1216
31232W        W46701  15.945  16.156   4.047  0.1709  0.1226 -0.0242
31233W        W46702   0.961  17.159  16.098  0.2868 -0.1371  0.3296
31234W        W46703  16.531   4.360   2.049 -0.0785  0.0673 -0.3747
31235W        W46704   5.953  11.297   0.969  0.0359 -0.2132 -0.0469
31236W        W46705  14.869  12.096   3.257 -0.3054  0.3830 -0.0235
31237W        W46706  11.335   4.857  16.139 -0.1786 -0.4369 -0.3940
31238W        W46707   5.440   3.644   5.250 -0.0814 -0.1277  0.1170
31239W        W46708   3.954   5.026  13.980  0.1657  0.2393 -0.1742
31240W        W46709   3.762   5.724   4.892 -0.2695  0.1897 -0.0495
31241W        W46710   0.473   9.208  15.195  0.1995 -0.1564  0.1968
31242W        W46711   3.324  13.580  13.786  0.0073  0.4818  0.1949
31243W        W46712  12.674  10.035  10.248 -0.0833  0.0228 -0.0186
31244W        W46713   7.469   6.419   2.813 -0.3492  0.1228 -0.0340
31245W        W46714   1.241  12.532   3.472  0.0943 -0.2784  0.0976
31246W        W46715   3.346  17.676   4.193  0.1062 -0.1195  0.3334
31247W        W46716  16.235  11.931  13.471 -0.2505 -0.0592 -0.0506
31248W        W46717   0.468   3.461  13.795  0.0639 -0.0517  0.3302
31249W        W46718   5.836  15.932  10.947  0.1969 -0.0883 -0.0091
31250W        W46719  15.833  13.688   1.063 -0.1663 -0.3436 -0.0029
31251W        W46720   6.668  17.700   4.676 -0.1804  0.2035 -0.2210
31252W        W46721   7.032  14.033   4.880 -0.2020  0.1062  0.1917
31253W        W46722  18.064   9.367   4.731 -0.0721  0.1784  0.1069
31254W        W46723   5.343  16.889   1.066  0.0128 -0.0026 -0.0952
31255W        W46724   8.634   4.345   6.461  0.6471  0.1016 -0.0367
31256W        W46725  12.249   0.440   2.876 -0.1799  0.4078  0.0494
31257W        W46726  17.706   4.869   0.101 -0.2049 -0.3405 -0.1711
31258W        W46727  18.197  16.928   5.318  0.1674  0.0838 -0.0449
31259W        W46728  11.569  14.487  13.341 -0.2050  0.1009 -0.0288
31260W        W46729  14.589   2.046  11.344 -0.0081  0.0942  0.1929
31261W        W46730  15.581  16.956  12.717  0.1692  0.0029  0.1456
31262W        W46731   0.594   9.006  14.733  0.0487  0.2188 -0.0096
31263W        W46732  11.143   2.827  15.072  0.0116  0.0109 -0.2436
31264W        W46733  13.471   4.496  11.450  0.1604 -0.1154  0.1191
31265W        W46734  16.768  11.247   1.548 -0.0051  0.2863 -0.0165
31266W        W46735  15.371   5.922  13.855  0.3162  0.0030 -0.0931
31267W        W46736  16.294   9.293   4.186  0.0980 -0.0056  0.0403
31268W        W46737   9.744   9.593   2.325 -0.1638  0.2527 -0.1088
31269W        W46738  10.353   1.876  15.602  0.0681 -0.2252 -0.0022
31270W        W46739   8.532   2.770   0.579 -0.0934 -0.1914 -0.0012
31271W        W46740   0.159   7.586   4.185 -0.3381 -0.0073 -0.4197
31272W        W46741  17.082  17.070  15.617  0.0827  0.1054 -0.0765
31273W        W46742   3.399   9.952   3.757  0.1538 -0.2351 -0.4103
31274W        W46743   4.332   1.052  11.926  0.0110  0.1201  0.2857
31275W        W46744  13.568  13.719   0.824 -0.1867  0.0879 -0.2073
31276W        W46745  13.726  14.384  14.290  0.5708 -0.2375  0.3318
31277W        W46746   6.148   5.430   1.331  0.0119 -0.1499 -0.3651
31278W        W46747  17.557   8.135  12.109 -0.0541 -0.2182 -0.2780
31279W        W46748   1.669   0.174   3.986 -0.0124  0.1223  0.0314
31280W        W46749   7.638  17.704   5.143  0.1171 -0.1234 -0.2236
31281W        W46750   9.127  12.322   2.217 -0.1458 -0.1374  0.0833
31282W        W46751   1.595  17.627   4.752  0.2414 -0.1107  0.0256
31283W        W46752   1.237   6.903  12.763 -0.1947 -0.0580 -0.3087
31284W        W46753  10.331   9.057  12.630 -0.3097 -0.1160  0.2244
31285W        W46754   4.609  10.980   0.282  0.2991  0.0838 -0.0268
31286W        W46755   1.963   6.456   4.803  0.0315 -0.1333 -0.0369
31287W        W46756   1.320   8.811   5.268 -0.0366 -0.4682  0.0636
31288W        W46757  10.396   3.025   1.232  0.1652  0.0466 -0.1581
31289W        W46758  17.382  10.008   4.629  0.2676  0.0640 -0.0498
31290W        W46759   8.660   7.417  12.105 -0.1153 -0.0293  0.2387
31291W        W46760   6.832   0.505  15.568  0.0369  0.1096  0.1029
31292W        W46761   0.388  15.309  12.966 -0.0091  0.1803 -0.2298
31293W        W46762   3.588   7.395  10.844  0.0730  0.0698  0.4597
31294W        W46763  17.167  17.639   3.558  0.2888 -0.1643 -0.2661
31295W        W46764   8.713   5.523  12.461  0.1386 -0.0238 -0.0439
31296W        W46765  10.116  18.175   4.688 -0.0527  0.1142  0.0437
31297W        W46766   1.704  11.351   4.976 -0.1332  0.1395 -0.2171
31298W        W46767  11.508   6.107  13.292 -0.0152 -0.1920  0.1880
31299W        W46768  17.944   6.585   0.830  0.0116 -0.1442 -0.0688
31300W        W46769  16.352   0.735   3.263  0.0851 -0.1564  0.1110
31301W        W46770   6.636   3.252  12.848 -0.1413  0.0882 -0.0652
31302W        W46771   0.367   9.819   4.246  0.1598 -0.2448  0.2236
31303W        W46772   6.255  11.265  11.190  0.1759  0.1311 -0.2926
31304W        W46773  16.900   0.509   1.006 -0.2400 -0.2397 -0.0043
31305W        W46774  16.997   6.572  14.403 -0.0167  0.0444 -0.3503
31306W        W46775   2.273  14.992  14.140  0.1098  0.0819 -0.3114
31307W        W46776   7.539  17.930  13.726  0.2127 -0.1101  0.0027
31308W        W46777  14.943  12.759  12.651  0.2422 -0.1463  0.4126
31309W        W46778   0.931  10.186   2.770 -0.0787  0.3204  0.3814
31310W        W46779   0.172   8.895   4.091 -0.3021 -0.1245 -0.1951
31311W        W46780   4.646  13.787   2.008  0.0562 -0.0896 -0.1678
31312W        W46781  16.881   4.882  11.684 -0.0279 -0.1258  0.1195
31313W        W46782  18.039   0.029   0.677 -0.0713 -0.0967  0.0578
31314W        W46783  11.238  16.835   2.105  0.2629 -0.4523  0.0727
31315W        W46784   4.538  14.704  13.684  0.2166  0.0488 -0.1526
31316W        W46785   8.192   7.909   0.474  0.3805  0.1556 -0.1536
31317W        W46786   0.511  17.877   2.883  0.0357  0.1035 -0.0974
31318W        W46787   1.074  14.883  10.900 -0.2815  0.1504 -0.3058
31319W        W46788  12.864  12.451   3.694 -0.2888  0.2818 -0.2401
31320W        W46789   7.860  14.287   3.120  0.2478  0.4321 -0.0350
31321W        W46790   1.964   4.274   2.528  0.1566  0.0181 -0.0616
31322W        W46791   1.160  17.818  12.051  0.2355  0.0322  0.0811
31323W        W46792   5.900   6.217  11.844 -0.1970  0.3426  0.1143
31324W        W46793  13.119   7.971  11.294 -0.1205  0.0988 -0.2350
31325W        W46794  10.253  14.962   5.628  0.0171 -0.4260  0.3047
31326W        W46795   4.401   4.315  12.585 -0.2797  0.0733 -0.1744
31327W        W46796  12.053  14.929  15.482 -0.2324  0.5715  0.3538
31328W        W46797  15.901   2.523  10.447 -0.0467 -0.2566  0.1422
31329W        W46798   6.872  11.495  12.677 -0.0955  0.1302 -0.3471
31330W        W46799   7.027   3.281   4.897 -0.0054 -0.0761 -0.2270
31331W        W46800   1.146  12.514   0.741  0.0305 -0.1013 -0.1513
31332W        W46801  13.921   8.582  14.789 -0.3099 -0.0338 -0.1546
31333W        W46802  16.707  14.373   5.763 -0.1132 -0.1437 -0.1076
31334W        W46803  10.865  15.761  15.099 -0.3255  0.1729 -0.0787
31335W        W46804   8.559   8.743   2.642 -0.1396  0.1050  0.3193
31336W        W46805   8.818   2.975   1.000  0.3340 -0.0993  0.1749
31337W        W46806   1.522  14.781   2.801  0.1549 -0.0236 -0.1102
31338W        W46807   6.409   5.262   4.980  0.3875  0.2552  0.3666
31339W        W46808  18.249  10.673  11.167 -0.0073 -0.1472  0.1758
31340W        W46809  10.442  12.206  16.110  0.0850 -0.1832 -0.1185
31341W        W46810   6.171  13.367   2.797  0.0771  0.1765 -0.1026
31342W        W46811  17.467  13.834  15.205  0.0333 -0.1509  0.1669
31343W        W46812  15.262   6.783   4.041 -0.0791 -0.1415 -0.0983
31344W        W46813   9.322  10.311   1.393 -0.1611  0.0185  0.0161
31345W        W46814  14.921  10.435   3.613 -0.1632 -0.2386 -0.1520
31346W        W46815   9.830   7.323   3.816 -0.0390 -0.0424 -0.0996
31347W        W46816  17.374   6.021  13.271 -0.1924  0.1428  0.1855
31348W        W46817   0.738   8.111  14.456 -0.1548  0.0591 -0.0698
31349W        W46818   5.089  11.900  12.703 -0.0040  0.1906  0.0998
31350W        W46819  13.076  18.110   3.503  0.1553 -0.1823  0.2430
31351W        W46820   9.937   3.315   3.140 -0.0110  0.2942  0.1391
31352W        W46821   5.689   9.805   0.855 -0.1383 -0.0732  0.2167
31353W        W46822   9.953   0.177  12.221  0.0039  0.0897 -0.2745
31354W        W46823   2.505  13.480   2.006  0.0848 -0.1453  0.1483
31355W        W46824  15.492   4.671  10.993  0.1928  0.0896 -0.0712
31356W        W46825   7.968  12.970   1.237 -0.0071  0.0651 -0.3190
31357W        W46826   3.213   0.228  12.934  0.2059 -0.0808 -0.2371
31358W        W46827  14.420  10.820  15.366 -0.1441 -0.0853 -0.0281
31359W        W46828   7.572   1.531  12.028  0.0890  0.1184 -0.0488
31360W        W46829   2.440  18.261   0.721  0.1244  0.4039 -0.0703
31361W        W46830   9.200  14.708  16.135  0.0612  0.3551  0.0025
31362W        W46831   4.531   0.877   1.376  0.0793  0.0213  0.1697
31363W        W46832  11.170  13.228  15.233  0.2287  0.2378 -0.0968
31364W        W46833   8.915   5.014  14.386  0.1698 -0.0314 -0.1444
31365W        W46834  15.546   3.000  12.606  0.2172  0.0577 -0.1598
31366W        W46835   7.651   2.454   5.683 -0.1027 -0.1859  0.0378
31367W        W46836  13.023   0.881   3.544  0.0060  0.0297  0.1279
31368W        W46837   5.203   3.209   5.603 -0.2904  0.0714  0.0932
31369W        W46838   6.466   1.936   2.234  0.0987  0.1345 -0.2711
31370W        W46839  11.787   4.539  15.657  0.0187  0.1797  0.3365
31371W        W46840  16.839   7.464  14.558  0.1708  0.1856  0.0220
31372W        W46841  11.006  10.124  11.403 -0.2342  0.1899 -0.1029
31373W        W46842   3.978  16.237  12.675 -0.1952 -0.0274  0.4626
31374W        W46843   0.492   7.125  13.529 -0.0642 -0.0857 -0.4221
31375W        W46844  11.666   3.694   3.907  0.0252 -0.0920  0.0626
31376W        W46845   0.106   7.509  12.909 -0.0242 -0.0831  0.1152
31377W        W46846   5.588   8.955  15.301 -0.2142 -0.2708 -0.0304
31378W        W46847  12.856  17.285  11.219  0.2532  0.0070  0.2055
31379W        W46848   7.299   9.188   0.251 -0.3030 -0.1681 -0.2681
31380W        W46849   2.198   6.200  14.560  0.2111  0.1851 -0.0151
31381W        W46850   9.162  10.924   0.784 -0.1309  0.3212  0.0367
31382W        W46851   2.710   0.854   1.916  0.0084  0.0958 -0.4795
31383W        W46852  10.885  14.481  15.075  0.1106  0.0323  0.3635
31384W        W46853  18.089  10.406   5.676 -0.2108  0.2418 -0.2294
31385W        W46854   4.494   8.448  15.679  0.0987 -0.1650  0.0205
31386W        W46855  17.710   1.286  11.759 -0.0243 -0.0355 -0.0006
31387W        W46856  17.268   0.043  16.025  0.0223  0.1243 -0.0788
31388W        W46857   1.504   5.679   4.902  0.1507 -0.4374  0.1773
31389W        W46858   3.457   1.091   4.053 -0.0976 -0.1447 -0.0182
31390W        W46859  10.625   2.719  15.041  0.4211  0.1517 -0.4259
31391W        W46860  18.292  14.528  15.083  0.3450  0.1073 -0.2344
31392W        W46861  10.195   0.156   4.225  0.0707 -0.2306 -0.0155
31393W        W46862  14.784   8.709  16.020  0.0323 -0.2034 -0.2231
31394W        W46863  13.370  11.917  12.592  0.0610 -0.3510  0.3317
31395W        W46864   6.818  16.414   1.718  0.4823  0.0403  0.1208
31396W        W46865   0.942   8.834   3.224  0.1533  0.1705 -0.0649
31397W        W46866   3.963   1.086  15.272 -0.3692  0.1322  0.3757
31398W        W46867   6.221  14.425  15.110 -0.0921  0.0049 -0.2594
31399W        W46868   1.372  12.271   4.282 -0.0199 -0.0986  0.0803
31400W        W46869   7.609   2.740   6.096  0.0380  0.0872 -0.0767
31401W        W46870   9.635   3.275   5.948  0.0772 -0.1500  0.0728
31402W        W46871  16.431   1.488  15.747 -0.0226 -0.0054 -0.1886
31403W        W46872   1.409   3.960   1.182  0.1248 -0.2593  0.1447
31404W        W46873   8.798   5.075  11.416 -0.1323  0.2955 -0.2700
31405W        W46874   1.358   4.525   1.235  0.1818  0.0122 -0.1044
31406W        W46875  13.083  12.236  13.026 -0.2026 -0.0029 -0.0492
31407W        W46876  18.129  14.740  11.154 -0.3033 -0.0693 -0.2216
31408W        W46877   1.551   3.066   3.608 -0.2568 -0.0536  0.2097
31409W        W46878   5.809  16.672   1.084  0.2453  0.3010  0.2980
31410W        W46879   1.580   6.039  12.683 -0.1493 -0.2501  0.2559
31411W        W46880   6.931   0.234  13.422 -0.0673  0.0353 -0.2341
31412W        W46881  11.830   0.131   3.175  0.1916  0.0244 -0.0086
31413W        W46882  12.923  10.340   4.755  0.0475  0.2531 -0.1991
31414W        W46883   5.760   9.659   1.892  0.2219 -0.0928  0.0565
31415W        W46884  15.322  15.030   2.284  0.0984 -0.4288  0.1040
31416W        W46885  16.801  15.047   1.422  0.0108  0.2824  0.1560
31417W        W46886  10.105  13.286   0.498 -0.2287 -0.1314  0.2070
31418W        W46887  13.851   8.531  13.762  0.0659  0.0925 -0.0584
31419W        W46888  17.481  12.908   5.176 -0.0880  0.0503  0.2702
31420W        W46889  14.928   0.366  13.177  0.1393  0.4585  0.1452
31421W        W46890   3.017   1.553   3.622  0.1720 -0.0017 -0.2799
31422W        W46891  11.368   5.710   4.032 -0.1514 -0.1845  0.2314
31423W        W46892   8.778   4.564   5.338  0.0969  0.1559  0.3086
31424W        W46893  13.652  12.413   0.755  0.0970  0.0961 -0.4042
31425W        W46894   5.060  15.874  11.808 -0.0578  0.3077  0.1122
31426W        W46895   4.067   4.566  13.737  0.3036  0.1091 -0.0501
31427W        W46896  14.963   6.160  15.808  0.1866  0.1570  0.0010
31428W        W46897   0.365   9.478  12.475 -0.2098  0.3059  0.1258
31429W        W46898  10.618  10.745   1.503  0.3380  0.3785  0.2824
31430W        W46899  12.539   1.284  13.413 -0.1089 -0.1333  0.1277
31431W        W46900  12.028  10.344   0.203 -0.0061 -0.2277  0.1546
31432W        W46901   7.341   7.601  14.058  0.0752 -0.2142  0.2276
31433W        W46902  14.124   3.045  12.226  0.0766  0.0337  0.3772
31434W        W46903   4.363   7.709   5.641 -0.2045  0.1725  0.0620
31435W        W46904  15.125   8.954   4.580  0.2642 -0.1008  0.0784
31436W        W46905   0.090   5.016  14.953  0.0387 -0.0082 -0.1153
31437W        W46906   2.779   6.783  14.108  0.0414 -0.1774  0.1468
31438W        W46907  15.637   5.459   4.271 -0.0967 -0.2982 -0.1480
31439W        W46908   8.291   4.658   1.353 -0.2919  0.0486 -0.0711
31440W        W46909  17.310  16.512  12.841 -0.1749 -0.0102  0.2798
31441W        W46910   3.816  15.450   4.869  0.0617 -0.4666  0.0543
31442W        W46911   2.857   8.750   4.938 -0.0054 -0.1353  0.1286
31443W        W46912  16.510  15.352   0.695 -0.3868  0.0398 -0.2088
31444W        W46913  14.590  13.574   1.375  0.3462  0.0029 -0.1140
31445W        W46914  16.123   8.681   3.185 -0.1006  0.2134 -0.4314
31446W        W46915   2.691   8.863   0.880 -0.1566 -0.0309 -0.0328
31447W        W46916   1.522  16.828  12.048  0.1581  0.0438  0.3534
31448W        W46917   5.048  17.675  12.959 -0.1812 -0.1305 -0.1858
31449W        W46918   4.867   6.782  12.075  0.0141  0.0927  0.3199
31450W        W46919   5.755  13.689  10.622 -0.1610  0.0697 -0.2541
31451W        W46920  10.745  18.053   1.678  0.0052 -0.2079 -0.0081
31452W        W46921  12.565   8.034  16.048  0.3257 -0.2154 -0.2488
31453W        W46922   5.265  11.330   2.011  0.2782 -0.1696 -0.2766
31454W        W46923  17.479   9.511   0.409 -0.0923 -0.2058  0.0609
31455W        W46924   0.072  16.701  12.677 -0.3358  0.0525 -0.1306
31456W        W46925  15.942   1.785   0.592 -0.0897  0.2451 -0.3719
31457W        W46926  15.332  14.388  14.338  0.4740 -0.2168  0.0548
31458W        W46927  11.132  15.562   4.702  0.0693  0.3576  0.0203
31459W        W46928   1.016  10.696  13.460  0.1815 -0.2350 -0.1261
31460W        W46929  14.314   0.216  11.748 -0.1991  0.4216 -0.0832
31461W        W46930  10.018  10.077  11.029  0.2529 -0.2349 -0.1573
31462W        W46931   6.172   5.165  14.964  0.0038  0.0404  0.2031
31463W        W46932   1.433   5.285   5.603  0.3145  0.0315  0.1952
31464W        W46933   0.495   8.766  16.166 -0.2775 -0.1695 -0.0137
31465W        W46934   2.807   2.140  13.990 -0.1753  0.1206 -0.2560
31466W        W46935   5.592  12.147   1.794  0.2755 -0.1644  0.1955
31467W        W46936  17.314  17.711  14.391  0.0409 -0.1592  0.1310
31468W        W46937   1.290  11.073  12.082  0.1031  0.2294 -0.3261
31469W        W46938  15.617  12.800   3.907  0.1057  0.4286  0.1372
31470W        W46939   9.301   2.241   0.604 -0.2574  0.0949  0.0423
31471W        W46940  11.298  15.645  13.820  0.1897  0.0519 -0.1927
31472W        W46941   1.746   5.980   3.056 -0.1298  0.1452 -0.1176
31473W        W46942  11.794  14.576  14.653  0.3450  0.0364 -0.0640
31474W        W46943   8.177   5.899  10.327 -0.3200  0.1022 -0.0501
31475W        W46944  16.671  14.094  13.204  0.0313  0.2051 -0.0040
31476W        W46945  16.711   0.829  11.934  0.1224 -0.0484 -0.3069
31477W        W46946  16.884   7.534   4.298  0.1251  0.5306  0.0244
31478W        W46947   8.431  17.740  12.638 -0.1089  0.0050 -0.4153
31479W        W46948  18.301  11.292   1.110  0.2128 -0.1560  0.3003
31480W        W46949   8.784   8.467   0.312 -0.1501  0.2452 -0.1339
31481W        W46950  15.157  16.593  12.452 -0.0531 -0.0255 -0.1800
31482W        W46951   4.031  13.984   1.032  0.0312 -0.0891 -0.2196
31483W        W46952  16.075   0.709  15.047  0.1191 -0.1508 -0.2159
31484W        W46953  11.928  17.651  14.942 -0.1788 -0.0738  0.0707
31485W        W46954  16.277  12.813   3.080 -0.1041  0.2122  0.1343
31486W        W46955   3.916   1.046   0.290 -0.0515 -0.0226 -0.2328
31487W        W46956   0.719   2.885   3.319  0.0702 -0.0317 -0.2380
31488W        W46957  14.551  16.197  14.596 -0.0187  0.0446 -0.0709
31489W        W46958  18.265   7.735  11.494  0.3550 -0.0635  0.1954
31490W        W46959   1.189  16.398  15.201 -0.2284 -0.3264  0.0824
31491W        W46960  15.117  12.892  10.941  0.2865  0.0109  0.1047
31492W        W46961  15.449  12.383   0.064  0.1639  0.1716  0.2561
31493W        W46962   7.409   5.971  14.060 -0.0652 -0.2652 -0.1056
31494W        W46963   5.989  12.709   2.867 -0.0779  0.0618 -0.2501
31495W        W46964  12.580   4.193   0.008 -0.2879  0.1301 -0.0959
31496W        W46965   0.688   8.326   2.315 -0.0859  0.0281 -0.0108
31497W        W46966   0.709   4.052   5.190  0.1195  0.2656  0.0476
31498W        W46967   2.735  14.096   4.200 -0.0869 -0.1180 -0.0026
31499W        W46968  18.126  14.219  11.127  0.2261 -0.1855 -0.1814
31500W        W46969  16.192   8.873  12.756  0.3650 -0.0731 -0.2216
31501W        W46970   4.932   8.798  15.848 -0.1010 -0.2165  0.3943
31502W        W46971   3.091  10.687  14.643  0.1487  0.0243  0.0399
31503W        W46972   0.251   1.801   3.449  0.0623 -0.0376  0.3760
31504W        W46973   4.077  11.675   5.093 -0.2572  0.2426  0.3184
31505W        W46974   8.889   7.252   5.311 -0.2689 -0.1888 -0.1593
31506W        W46975   0.900  12.317   1.165 -0.0838  0.0490  0.0615
31507W        W46976   6.964  12.952   2.680  0.0468 -0.0978  0.0433
31508W        W46977   9.509   8.886   3.623 -0.1394 -0.0584  0.2452
31509W        W46978  15.535  13.571   6.066 -0.2449  0.0268 -0.3420
31510W        W46979  17.482   3.553  10.456 -0.0525 -0.1515  0.1176
31511W        W46980  13.425  13.482  13.018 -0.1354  0.1713  0.0517
31512W        W46981  10.238   2.387   2.696 -0.0090  0.1252 -0.1138
31513W        W46982  15.436   6.370   1.898  0.0852 -0.1457  0.1330
31514W        W46983   1.722  10.846   5.899 -0.0081  0.0195 -0.1176
31515W        W46984  14.253  17.871  13.915  0.0350  0.3663  0.0547
31516W        W46985   0.418  13.573  16.084  0.0177 -0.0097  0.0054
31517W        W46986  13.679  12.036   3.977 -0.0239 -0.2667 -0.3258
31518W        W46987  16.654   5.189  11.141  0.0653  0.1277  0.1548
31519W        W46988   3.231   3.191   1.150  0.0486 -0.1352 -0.1327
31520W        W46989   5.535   9.925   4.232 -0.3533 -0.0312 -0.0842
31521W        W46990   9.736   6.163   4.330 -0.0820 -0.0228  0.1082
31522W        W46991   4.034  11.637   0.394  0.0302  0.1844 -0.0821
31523W        W46992   3.232  16.075  13.734 -0.0857  0.0589 -0.1262
31524W        W46993   7.387  17.907  12.007  0.0599  0.2145  0.1296
31525W        W46994   0.201  14.913   3.842 -0.1127  0.1151 -0.0273
31526W        W46995   6.110   7.465  14.514  0.1184  0.2783  0.0065
31527W        W46996  16.955   4.845  13.634  0.1161  0.0302 -0.0085
31528W        W46997  12.381   4.134   4.322 -0.1551  0.1984 -0.2084
31529W        W46998  16.834  11.149   4.398 -0.4342 -0.0141  0.2955
31530W        W46999   9.770   3.520   0.171  0.0327 -0.1502 -0.0160
31531W        W47000   8.151   5.779   1.433  0.1337  0.0242 -0.1758
31532W        W47001  12.194   8.657   3.694 -0.0121  0.0004 -0.0235
31533W        W47002  13.126   5.451  13.924 -0.4266 -0.0836 -0.0882
31534W        W47003  14.749   3.349   3.706  0.0419  0.0205  0.0277
31535W        W47004  11.194   1.706   3.534 -0.2340 -0.1265 -0.2527
31536W        W47005  12.685  13.688   1.436 -0.0096  0.0650  0.2271
31537W        W47006   5.828  18.080   2.645  0.0713 -0.0471  0.1178
31538W        W47007  15.045  10.439  12.071  0.1038  0.1121 -0.0122
31539W        W47008   3.641  13.847  12.115  0.3202 -0.2086  0.3804
31540W        W47009  15.465  14.397  11.519  0.2874 -0.4200  0.0050
31541W        W47010  14.386  15.466   0.311  0.2694 -0.0448  0.0445
31542W        W47011   6.325   9.483  12.630  0.0115  0.2507 -0.0491
31543W        W47012   5.549   8.544   2.225 -0.0319  0.1303  0.0138
31544W        W47013   6.379  15.637  11.591 -0.3466  0.0347 -0.1264
31545W        W47014   4.473  11.249   2.970 -0.2006 -0.0251 -0.1914
31546W        W47015   2.182  10.524   1.012  0.0037  0.1416 -0.0916
31547W        W47016  16.292  18.074   3.393  0.1180  0.1931  0.1160
31548W        W47017  14.422   2.040   3.360 -0.0077  0.0700  0.0419
31549W        W47018  10.199  14.851  10.052 -0.3108 -0.1551 -0.0852
31550W        W47019  11.704  12.609   0.767 -0.2727 -0.1186 -0.0674
31551W        W47020  18.138   1.382   0.811  0.1169  0.0297 -0.0719
31552W        W47021  16.449   8.448   4.681 -0.2356  0.0429 -0.2029
31553W        W47022  13.284   1.747  14.496  0.1102 -0.5029  0.1688
31554W        W47023  11.786   1.513   3.272 -0.0224  0.1137  0.2486
31555W        W47024   0.822   4.816  11.238  0.0200  0.1001 -0.0768
31556W        W47025  15.676  16.570  14.979  0.3940 -0.0885  0.0683
31557W        W47026   4.566  17.290  11.221 -0.0446 -0.0947  0.0555
31558W        W47027  15.728   6.923   3.837 -0.1505 -0.1982 -0.3030
31559W        W47028   5.307   8.571   4.191  0.3576  0.1150  0.0988
31560W        W47029   9.024  14.539  12.958 -0.0563  0.0494  0.1360
31561W        W47030   7.683  12.529  13.222  0.0188 -0.1916  0.1862
31562W        W47031   1.676  15.061  14.047 -0.2419  0.0396 -0.0944
31563W        W47032   6.209   2.428  12.414 -0.1783 -0.0814  0.0450
31564W        W47033  15.663   8.040  14.831 -0.1104  0.0215 -0.1855
31565W        W47034   2.121  12.723  12.762  0.3182 -0.1367  0.0613
31566W        W47035   1.360   7.427   2.938  0.1233 -0.1734  0.0437
31567W        W47036   3.475   1.303  13.935 -0.1386  0.0034 -0.1546
31568W        W47037   9.387  16.118  15.363  0.0082 -0.0677  0.0071
31569W        W47038   3.250  17.156  13.483  0.3827  0.1243  0.4569
31570W        W47039  13.908   6.657  13.306 -0.1281 -0.0314 -0.1040
31571W        W47040  13.143  12.923  15.035  0.1370 -0.1471  0.0235
31572W        W47041  12.941  12.014   2.252 -0.4871  0.0172 -0.2721
31573W        W47042   5.267   4.445   3.880  0.2291 -0.1824  0.2271
31574W        W47043  10.514  16.565   4.095  0.1883 -0.2527 -0.1033
31575W        W47044  16.204   6.978   5.166 -0.3109  0.0735 -0.1281
31576W        W47045  16.811   2.256   4.207 -0.1134 -0.3478 -0.0717
31577W        W47046  15.547   7.096  13.051 -0.0215 -0.0326  0.0107
31578W        W47047  13.704   4.767   1.029 -0.1431 -0.0589 -0.1168
31579W        W47048   8.766   0.472   2.339  0.1483 -0.4354 -0.0257
31580W        W47049  12.865   4.387  15.584 -0.4365 -0.0268 -0.0355
31581W        W47050  14.685   3.686   2.473  0.1421  0.0732  0.0694
31582W        W47051   0.859  11.139  11.857  0.0248 -0.0073  0.0128
31583W        W47052  17.956  16.221  15.278  0.0024 -0.0005 -0.2864
31584W        W47053   7.117   8.807   3.732  0.1026  0.0849 -0.1261
31585W        W47054   9.162   1.011  15.515 -0.1030 -0.0679  0.0896
31586W        W47055   4.460   5.518  14.914  0.0526 -0.1447 -0.1501
31587W        W47056  16.667   6.097   2.354  0.1297 -0.3594  0.2518
31588W        W47057  16.416   6.230  13.339  0.3939  0.2280 -0.0807
31589W        W47058  10.419  14.189   1.912 -0.1748  0.0005  0.0709
31590W        W47059   1.401   5.276  12.295 -0.0258  0.1859 -0.1861
31591W        W47060  11.679  13.417  13.300 -0.0895 -0.1237 -0.3151
31592W        W47061  14.363   5.333   3.993  0.2243  0.0152  0.1657
31593W        W47062   6.786  14.405   0.256  0.0403 -0.0486 -0.0307
31594W        W47063  15.919   7.793  14.374 -0.0336 -0.1252  0.0984
31595W        W47064   7.911  11.709  14.864  0.2374 -0.1919  0.0329
31596W        W47065   3.399  18.238  12.558 -0.0639 -0.1236  0.0104
31597W        W47066   8.646   6.502   1.251 -0.1419  0.3846 -0.0138
31598W        W47067  14.773   5.300  14.078 -0.2601 -0.3074 -0.2520
31599W        W47068  13.288  11.027   5.238  0.0689 -0.1273 -0.0260
31600W        W47069   2.031  15.820   1.983 -0.1613  0.0941 -0.0628
31601W        W47070   6.273   8.099   0.014  0.0915 -0.3268  0.2329
31602W        W47071  13.836  15.586   4.488  0.1570  0.2519 -0.2095
31603W        W47072   2.173   7.318  12.244  0.1192  0.1359 -0.1887
31604W        W47073  17.820   1.515   2.622  0.0651 -0.2386 -0.1974
31605W        W47074  18.093   9.850   1.529 -0.0379  0.0315 -0.3157
31606W        W47075   4.433  13.293   2.224  0.4000 -0.1153 -0.1062
31607W        W47076   1.900   8.753  15.957  0.3783 -0.0376 -0.1877
31608W        W47077   7.111   7.674   2.887 -0.0641  0.0427 -0.2316
31609W        W47078   7.505   3.142   2.122  0.3528  0.2411  0.1538
31610W        W47079  14.866   9.598  10.988 -0.1670  0.1191 -0.0166
31611W        W47080   0.832   5.701  12.929  0.0202 -0.2319 -0.0790
31612W        W47081  17.184  14.188  12.061 -0.0912  0.2695  0.1413
31613W        W47082  11.786   2.174   0.825 -0.1475  0.0741 -0.0741
31614W        W47083  12.658   2.877   4.599 -0.2845  0.0487  0.0417
31615W        W47084  16.221  11.474   5.466 -0.2899  0.1055  0.0709
31616W        W47085  17.871   3.809   2.243 -0.3242  0.1695 -0.1804
31617W        W47086   0.011  12.027  14.701 -0.1681 -0.1595  0.0714
31618W        W47087  14.384  11.279  11.085  0.3186 -0.0313 -0.3682
31619W        W47088   6.540  17.947  15.532 -0.1513 -0.3360  0.1201
31620W        W47089   1.183   2.488  10.192 -0.2913 -0.0508 -0.3468
31621W        W47090  14.716   4.229  15.742 -0.0288 -0.2757 -0.1506
31622W        W47091  14.790   4.659  13.305  0.1574  0.1586  0.3044
31623W        W47092  12.749  15.116   1.804 -0.0624  0.0170  0.0429
31624W        W47093   9.809  10.066  16.154  0.3641  0.1755 -0.1394
31625W        W47094   7.150   4.019  15.937 -0.3165  0.3269 -0.0991
31626W        W47095  13.201  16.193  12.681 -0.1497 -0.2313 -0.1699
31627W        W47096  10.465  13.901   0.657 -0.0412 -0.0226  0.1284
31628W        W47097   9.048   3.874   2.785  0.2263 -0.0866  0.1553
31629W        W47098  10.456   4.124  12.524  0.0592 -0.1795  0.0473
31630W        W47099  14.015   3.238   2.968  0.0758 -0.0363 -0.3096
31631W        W47100  14.531   0.873   0.924 -0.0135  0.2335 -0.0187
31632W        W47101  16.676  14.285  12.123  0.0457 -0.0662  0.2182
31633W        W47102  13.973   8.139  14.597 -0.2733  0.1870 -0.1371
31634W        W47103  12.741  17.672  12.824 -0.1151 -0.0253 -0.0625
31635W        W47104   9.466  15.493   2.748  0.0786  0.0518  0.1437
31636W        W47105  12.913  17.728  11.435  0.2739  0.3524 -0.1203
31637W        W47106   6.137  18.161  12.253  0.1803 -0.2804 -0.1952
31638W        W47107  13.351  10.333   1.829 -0.0023 -0.0474  0.2279
31639W        W47108   8.102  15.524  14.459 -0.1736  0.2632  0.1107
31640W        W47109   3.292  15.504  14.426  0.0989 -0.2197  0.1691
31641W        W47110   5.459  13.532   4.094 -0.1232  0.1262 -0.1254
31642W        W47111  11.372   1.890   1.024 -0.1752 -0.1554  0.1382
31643W        W47112   4.183  10.398  14.284  0.0532 -0.0161  0.0757
31644W        W47113   4.203  12.030   1.956  0.2458  0.4325  0.0007
31645W        W47114   5.639   4.214  11.567 -0.1651 -0.5131 -0.3318
31646W        W47115  17.996  17.938  15.644  0.1135  0.0647 -0.0935
31647W        W47116  16.608   0.217  12.673  0.2285  0.3272 -0.2353
31648W        W47117   9.775  12.094   2.485 -0.0416 -0.1632 -0.1823
31649W        W47118  16.022  16.673  12.802 -0.1662 -0.1746  0.3206
31650W        W47119  13.568   3.196   5.861  0.0952 -0.0539 -0.0025
31651W        W47120  10.713  16.170   4.281  0.0219 -0.0161  0.0292
31652W        W47121  18.081  13.699  14.505 -0.0477 -0.1997  0.0860
31653W        W47122  15.171  17.970   5.270  0.0659 -0.0818  0.2322
31654W        W47123   2.693   0.807   1.304  0.0030 -0.1953 -0.0793
31655W        W47124  14.007  17.471  15.036  0.3198 -0.1483 -0.0617
31656W        W47125   2.655  15.924  12.479  0.1257 -0.1379  0.0760
31657W        W47126  11.604   6.424  15.259 -0.1387  0.1462 -0.0183
31658W        W47127  17.931   0.924   2.431  0.1541 -0.0824  0.0209
31659W        W47128  10.775   2.839  11.286 -0.1887  0.2407 -0.2200
31660W        W47129   1.456  15.426   2.685 -0.0603  0.0174 -0.2179
31661W        W47130  10.659   3.795   1.131 -0.2891  0.0629 -0.1637
31662W        W47131   3.436  11.433  16.091  0.2619 -0.1868  0.2142
31663W        W47132   5.308   4.781   1.212 -0.0087 -0.0554  0.0167
31664W        W47133  15.148   4.907   4.281 -0.0045 -0.1241 -0.2566
31665W        W47134   8.453   2.355  11.332 -0.4503  0.1085  0.1897
31666W        W47135   4.035  15.147  11.857  0.2457 -0.0294  0.1375
31667W        W47136  14.698   2.458  14.401 -0.1759 -0.1308 -0.3445
31668W        W47137   9.933  10.633  14.792  0.0306 -0.0115  0.2339
31669W        W47138  13.769  16.238   2.317  0.0027 -0.0821  0.0299
31670W        W47139   0.913  15.376   5.367 -0.0164 -0.3204 -0.2492
31671W        W47140  10.154  15.418  15.475 -0.0203  0.0495  0.0129
31672W        W47141   6.903   9.669   0.421  0.2089 -0.1335  0.0135
31673W        W47142   3.181  16.319   3.538  0.0910  0.1182  0.2027
31674W        W47143   2.438   6.197   5.751 -0.3652 -0.2081 -0.1624
31675W        W47144   4.097  10.293   2.760 -0.2252 -0.2920  0.0406
31676W        W47145   1.432  13.968  11.401  0.3761  0.0091 -0.0391
31677W        W47146  15.923  10.154   3.998  0.2122 -0.1101 -0.4304
31678W        W47147  17.169   5.154  11.154 -0.0113  0.0570  0.0415
31679W        W47148  16.465   3.056  11.082  0.2232  0.0434 -0.2050
31680W        W47149  10.416   8.401  13.306 -0.1312  0.0560  0.3346
31681W        W47150   7.481  17.690   0.321 -0.0069 -0.2451  0.2609
31682W        W47151  14.180   4.229   0.345  0.0666  0.0891  0.0029
31683W        W47152  15.484   8.082   4.761  0.1660 -0.1651 -0.0127
31684W        W47153  17.895  16.106  13.461 -0.0826 -0.4769  0.2799
31685W        W47154  15.882   9.052   5.208 -0.0829  0.2491 -0.3440
31686W        W47155   6.037  15.039  14.260 -0.2219 -0.1634  0.2856
31687W        W47156  18.084   8.121  12.301 -0.1708  0.4314  0.0264
31688W        W47157   6.256   1.824  11.424  0.1536 -0.1974  0.2622
31689W        W47158  13.835   9.958  13.615  0.1778  0.0491 -0.0492
31690W        W47159  13.082  17.132  13.879 -0.0283  0.0896  0.1820
31691W        W47160   5.070   9.304  11.362  0.0987  0.3440  0.2485
31692W        W47161   0.113  15.721   1.430 -0.1907 -0.1616 -0.0590
31693W        W47162   4.485  14.261   1.219  0.0643 -0.3248  0.0255
31694W        W47163   3.798  12.850   0.111  0.1165 -0.1555 -0.1368
31695W        W47164  13.310   7.530  11.399  0.0169 -0.0732 -0.0112
31696W        W47165   8.131  16.482  12.973  0.0330 -0.0841  0.2039
31697W        W47166  17.461   0.105   4.603  0.1450  0.0399 -0.1542
31698W        W47167   5.470  15.989   3.243 -0.2900  0.0232 -0.1225
31699W        W47168   9.063   3.280   5.365  0.1352  0.1212 -0.3402
31700W        W47169  14.191   2.418   5.924 -0.0504 -0.0833  0.0457
31701W        W47170   5.868   1.913   0.821  0.0014  0.0568  0.0201
31702W        W47171   7.230   5.078   5.452  0.2081  0.3504 -0.1560
31703W        W47172   8.687  11.071   0.982  0.1455 -0.0771 -0.0856
31704W        W47173   4.305  13.714   0.745 -0.2611  0.1030  0.0889
31705W        W47174  13.659   8.102  15.024  0.1767 -0.0742  0.0985
31706W        W47175   9.860   4.209   5.739 -0.0191 -0.1148 -0.1101
31707W        W47176   1.170  10.652   3.299 -0.0177 -0.0399 -0.1498
31708W        W47177   3.675  17.610  15.655 -0.0080  0.1894 -0.2138
31709W        W47178   4.287   2.132  15.403 -0.2183 -0.1274 -0.3628
31710W        W47179   2.662  18.182   1.218  0.1618  0.0478  0.0934
31711W        W47180   3.266   5.088   3.311 -0.0661  0.1254 -0.0610
31712W        W47181  16.457   7.719  13.641  0.1609  0.1680  0.0712
31713W        W47182   8.656  11.536  12.747 -0.0586 -0.0211 -0.1669
31714W        W47183   7.507  16.162  12.871  0.0921 -0.0112 -0.5486
31715W        W47184  10.869  12.824   1.305  0.0699  0.2326  0.0743
31716W        W47185  17.472  16.881   2.468 -0.1758  0.2002 -0.0311
31717W        W47186  13.259  12.792   1.687 -0.0843 -0.0866 -0.0819
31718W        W47187   3.072   9.193   4.049  0.3148 -0.2031  0.2184
31719W        W47188   4.063   8.209   3.513 -0.2549  0.0259 -0.0923
31720W        W47189   9.205  13.066   4.052  0.0020  0.1894 -0.0695
31721W        W47190   8.927   8.528   0.802  0.2319  0.2771 -0.0033
31722W        W47191   1.118   9.804   4.941 -0.1304 -0.1157  0.2681
31723W        W47192   4.727  15.558   2.154 -0.1206  0.1586 -0.2226
31724W        W47193  15.087   9.031   0.631 -0.1858  0.0893 -0.1305
31725W        W47194  16.218   1.705   0.066 -0.0211 -0.1123  0.0763
31726W        W47195   3.448  17.335   3.736 -0.2622  0.0199 -0.0161
31727W        W47196  13.299  15.064   2.710  0.2231  0.0223 -0.1738
31728W        W47197   2.800   6.561  15.329  0.1153 -0.0983 -0.0039
31729W        W47198  14.434   0.717   5.222 -0.0953  0.0059  0.2038
31730W        W47199  15.327   8.346  11.403  0.6134  0.0954 -0.0775
31731W        W47200   6.969  14.184  12.586 -0.1703 -0.1625 -0.0703
31732W        W47201  11.645   7.267   1.794 -0.0085  0.1868  0.0436
31733W        W47202   7.918  11.767   2.824 -0.3601  0.0445 -0.2246
31734W        W47203   3.072   9.978  12.834  0.1210  0.1388 -0.2424
31735W        W47204   8.045  16.858   0.085 -0.0205  0.0096 -0.4506
31736W        W47205   4.177   9.505  12.012 -0.0276 -0.3233  0.1552
31737W        W47206  12.659  12.061  10.978  0.0221  0.1251 -0.1218
31738W        W47207   4.447   4.646   0.847  0.2275  0.0773 -0.1160
31739W        W47208   4.513  14.591   2.625  0.3156 -0.0774 -0.1571
31740W        W47209  10.492  11.198   1.118  0.3280  0.0824 -0.0079
31741W        W47210   9.295   5.226   0.896  0.1659  0.6694 -0.1472
31742W        W47211  11.860   7.070  14.451 -0.2371 -0.1021 -0.1956
31743W        W47212   7.296  15.849  10.648 -0.2699 -0.1025 -0.3129
31744W        W47213  17.942   8.879  15.294  0.0033 -0.1289 -0.2037
31745W        W47214   6.634   0.532  13.716  0.0866  0.0316  0.0811
31746W        W47215   9.683  11.369  11.521  0.0542 -0.0465  0.1123
31747W        W47216  17.997   4.733  15.897  0.1955 -0.0625  0.2432
31748W        W47217   2.249  11.436   5.098  0.1175  0.0372 -0.2534
31749W        W47218   9.236   6.949   3.529 -0.0233  0.2035  0.0643
31750W        W47219  18.045   8.390   5.980 -0.0574  0.1134 -0.0541
31751W        W47220   6.876   7.276  15.803  0.1037  0.1899  0.1845
31752W        W47221   0.309  10.598   3.541 -0.0128  0.0981 -0.0699
31753W        W47222   5.405   6.583  15.234  0.1243 -0.2347  0.2565
31754W        W47223  15.807   6.084  15.649 -0.1058  0.2523  0.0038
31755W        W47224   7.755   9.970   3.139 -0.2295 -0.0984 -0.1269
31756W        W47225   5.809   5.440   4.028  0.1363  0.2072  0.2039
31757W        W47226  17.169  15.601   2.172  0.0865 -0.1352  0.1793
31758W        W47227   9.158  17.495   0.841  0.0804 -0.1205 -0.1093
31759W        W47228  15.101  16.404   1.606 -0.0110 -0.0075  0.0835
31760W        W47229   8.434   8.855  12.097 -0.1130 -0.1238 -0.0294
31761W        W47230   5.247  16.062  14.796 -0.0255  0.0436  0.0158
31762W        W47231   6.011  14.586   0.960  0.0714 -0.1269  0.3122
31763W        W47232  10.414  15.296   2.925  0.0859  0.1812 -0.1684
31764W        W47233   2.583   8.980   4.078 -0.5021 -0.1984  0.0538
31765W        W47234   0.585   6.097  13.759 -0.0463 -0.3729 -0.0975
31766W        W47235  17.367   4.166   0.508  0.3050 -0.1107  0.2190
31767W        W47236   8.535  14.988  12.225  0.2949 -0.2338 -0.3687
31768W        W47237   6.161   8.405   0.754 -0.0720  0.2996  0.2796
31769W        W47238   4.473  18.130  11.691 -0.2376  0.0558 -0.2258
31770W        W47239   2.237   9.400  16.118 -0.0343 -0.1131  0.1850
31771W        W47240   3.879  12.028  12.834 -0.0994 -0.3261 -0.0556
31772W        W47241  15.650  16.815  15.479  0.1594  0.0975  0.1084
31773W        W47242   4.436  13.417   4.948 -0.1199 -0.3362  0.1062
31774W        W47243  11.775   5.087  11.765  0.0766 -0.1384  0.1638
31775W        W47244  14.795   8.867   4.081  0.2587 -0.0526 -0.2503
31776W        W47245   3.194   2.691   0.475  0.0769 -0.3605 -0.1521
31777W        W47246  17.040   0.950   4.523 -0.2047  0.0484 -0.3281
31778W        W47247  13.147  14.193  13.522 -0.0426 -0.1280 -0.1247
31779W        W47248  12.505   5.390  15.901  0.2251  0.0397  0.0660
31780W        W47249   6.113   9.387   4.265  0.5955  0.0819  0.0911
31781W        W47250  12.653   5.618   2.148  0.0278  0.1499 -0.2170
31782W        W47251  10.039   0.853   0.377  0.0612 -0.0039  0.0643
31783W        W47252   8.456   0.567   3.487  0.1786  0.3334  0.2923
31784W        W47253  12.273   6.688  12.450 -0.0227  0.0890  0.4352
31785W        W47254  13.754   7.321  15.162  0.1310 -0.0143  0.3914
31786W        W47255   5.172  16.459   0.964  0.1177  0.2571  0.2163
31787W        W47256  10.820   2.290  11.153 -0.1384  0.2130  0.1711
31788W        W47257   4.586   2.167  13.615 -0.1465 -0.0481 -0.0142
31789W        W47258   5.043   4.450   2.127 -0.3301 -0.0561  0.1751
31790W        W47259  12.450   1.394   1.939 -0.0864 -0.0194 -0.0692
31791W        W47260   1.879   7.582   0.411  0.1831 -0.1183  0.0213
31792W        W47261  13.920  10.575   2.528  0.0845 -0.4204  0.2947
31793W        W47262  14.965   5.655   1.528 -0.2212 -0.0491  0.2210
31794W        W47263  15.513  15.136  15.616  0.0440  0.2247  0.2118
31795W        W47264  15.717  15.021  15.168 -0.0101  0.0075 -0.0344
31796W        W47265  16.512   1.035  15.051  0.3133  0.0979  0.0502
31797W        W47266   6.252  10.143   3.419  0.2954  0.0744 -0.1130
31798W        W47267   8.782  14.017   1.076  0.0394  0.0539 -0.3026
31799W        W47268  10.281  14.723  13.624 -0.0768  0.1003 -0.1311
31800W        W47269  10.640   3.183   5.905 -0.0848 -0.1323 -0.0578
31801W        W47270  10.618   1.616   2.234 -0.0278  0.0282  0.1965
31802W        W47271  15.616  10.208  13.900 -0.2266  0.0453 -0.0622
31803W        W47272  11.888   5.359  11.332  0.0526  0.1509 -0.1038
31804W        W47273   3.933   8.515   1.484  0.2027  0.0300  0.0485
31805W        W47274   3.343   2.209   0.661 -0.1493  0.2670  0.1640
31806W        W47275  13.027  17.428  11.853 -0.1889  0.1780  0.0508
31807W        W47276   8.720   9.565   4.243  0.0370  0.0027 -0.1201
31808W        W47277   8.922  18.162   2.548 -0.1589  0.0753 -0.0309
31809W        W47278  14.961   1.514   3.538 -0.0002  0.0766 -0.1060
31810W        W47279   1.107  12.661  15.929  0.1296 -0.4585 -0.2454
31811W        W47280   4.251  10.064  14.639 -0.4621  0.1206 -0.2319
31812W        W47281   2.524  13.351   0.896  0.2456  0.0507 -0.0149
31813W        W47282   3.475   5.431   4.470 -0.0236 -0.2014  0.0957
31814W        W47283   3.501   4.255  12.148 -0.1191  0.1387  0.1875
31815W        W47284  13.964  11.516  15.746 -0.1425 -0.2517 -0.1895
31816W        W47285   9.665  12.846   4.724 -0.0300 -0.0169  0.0305
31817W        W47286  15.502   4.142   3.280  0.1400 -0.0934 -0.0922
31818W        W47287   1.640   9.490  12.129  0.2061 -0.1787 -0.1395
31819W        W47288  12.325  11.283  13.239 -0.2439 -0.2019 -0.2268
31820W        W47289  15.192  10.826  14.529  0.2036  0.0843  0.0058
31821W        W47290   5.320   2.427  13.911  0.1466 -0.2899  0.3398
31822W        W47291   0.290   6.599  12.143 -0.4004  0.0396  0.0270
31823W        W47292  15.471   0.155   3.863  0.1374 -0.1929 -0.1915
31824W        W47293   5.382  16.777  14.175  0.1156 -0.0254  0.2410
31825W        W47294  12.123   6.660  11.945 -0.2476  0.0427 -0.2205
31826W        W47295  10.721   8.367   1.147 -0.2083  0.0387  0.1772
31827W        W47296   3.300   6.858   1.134 -0.4162  0.0936  0.1302
31828W        W47297  11.468  12.329  10.823 -0.0851 -0.1409 -0.0588
31829W        W47298   7.929  14.294   2.289  0.0496 -0.1282 -0.0514
31830W        W47299   8.873  10.027  11.712  0.1092 -0.1875 -0.2763
31831W        W47300  14.699   6.800  12.798  0.0489 -0.0521 -0.0310
31832W        W47301   2.376  10.558   3.597  0.0783 -0.1048  0.2913
31833W        W47302   5.897  14.773   3.063  0.2238 -0.0314  0.2888
31834W        W47303  12.158   9.544  11.259 -0.0070  0.0268 -0.0516
31835W        W47304   6.902   1.306  16.127  0.0901  0.1544 -0.0873
31836W        W47305   0.113  16.082   2.477  0.2216 -0.3619  0.1443
31837W        W47306   3.839   7.189   3.625 -0.1628 -0.0878  0.1168
31838W        W47307   3.226  13.125   1.343  0.3524  0.0633  0.3801
31839W        W47308  17.146   0.484   4.315  0.1762 -0.0447 -0.1121
31840W        W47309  13.840  13.398  11.602 -0.1774  0.0380  0.0929
31841W        W47310  10.491  17.191   0.424 -0.0700 -0.1084 -0.0981
31842W        W47311   5.494  15.134  13.110  0.0674  0.1620 -0.1700
31843W        W47312   7.460   0.663   9.956 -0.3271 -0.0106 -0.1304
31844W        W47313  15.932  13.672  12.184  0.1043  0.0114  0.0350
31845W        W47314   5.014   9.196   2.336  0.1151 -0.3364 -0.1274
31846W        W47315   8.517  16.295  11.638 -0.1169  0.3548 -0.0735
31847W        W47316   1.009   4.811  15.321 -0.1725 -0.1989 -0.1260
31848W        W47317  12.239  12.145  14.920 -0.0790 -0.0613  0.1528
31849W        W47318  13.546   8.798  12.928  0.0944  0.0884  0.0042
31850W        W47319   0.075   6.056   4.646  0.1713  0.1693 -0.1381
31851W        W47320  18.057  16.266   2.866 -0.1381 -0.1811  0.2510
31852W        W47321   4.677   9.821  12.658 -0.1213  0.2445  0.2322
31853W        W47322  11.721  14.900  13.062 -0.2436  0.1445 -0.0745
31854W        W47323   4.536   8.338  12.410  0.5369  0.1180  0.0968
31855W        W47324   3.655  16.381   4.425 -0.3523 -0.0987  0.0214
31856W        W47325   0.507  17.359   3.140 -0.1177  0.0639  0.0005
31857W        W47326   1.418   2.947   4.580 -0.1869  0.3105 -0.2405
31858W        W47327   0.365   0.086   3.562  0.0529  0.1030 -0.0254
31859W        W47328  14.307  13.091   0.407  0.0060  0.1451 -0.0051
31860W        W47329  15.647  10.242   1.111  0.3239 -0.0338  0.2576
31861W        W47330   2.854  14.027   2.103  0.0910  0.2210  0.0296
31862W        W47331  10.908   5.570   0.444 -0.3634 -0.2318 -0.2294
31863W        W47332  18.052  14.930  15.959 -0.4240  0.3455 -0.1535
31864W        W47333   5.067   2.016  13.735  0.0849  0.1377  0.0812
31865W        W47334  15.511  16.634   3.364  0.0168  0.1241  0.1936
31866W        W47335  13.696  12.444  14.055 -0.2603  0.1889 -0.0490
31867W        W47336  14.619  10.186   0.601  0.1389  0.1287 -0.0166
31868W        W47337   4.197   4.852   1.254 -0.0592 -0.0326  0.1334
31869W        W47338   7.540  11.363   3.581 -0.1885  0.2959  0.0099
31870W        W47339   9.500  15.281   4.161  0.3289 -0.0889  0.0820
31871W        W47340  13.093   8.176   5.773  0.0213 -0.0721 -0.0124
31872W        W47341  12.607   8.354  13.377  0.4311 -0.1915  0.4142
31873W        W47342  13.614  17.979  14.687  0.1140  0.0310 -0.1760
31874W        W47343  10.425   9.016   5.720  0.1838  0.0264 -0.0910
31875W        W47344  11.286  15.819   1.480 -0.2448  0.1620  0.2459
31876W        W47345  10.603  17.620  14.463  0.0700 -0.0772 -0.2688
31877W        W47346   4.098  18.042   5.771 -0.0898  0.0037 -0.2340
31878W        W47347  15.489  14.055  15.785 -0.0128 -0.1341  0.2195
31879W        W47348  15.636   5.429  14.813 -0.1057 -0.2087 -0.1866
31880W        W47349  12.199  13.387   0.751  0.0980  0.0070  0.2316
31881W        W47350   7.096   0.010  14.445  0.1501  0.0569 -0.3302
31882W        W47351  17.435   6.006   2.738  0.1485 -0.1089 -0.0583
31883W        W47352  10.361   1.380  13.649  0.0539  0.1354 -0.0852
31884W        W47353  13.677  12.020   4.909 -0.1054 -0.1650  0.2253
31885W        W47354  13.162   4.043  12.274 -0.0904  0.1247 -0.0049
31886W        W47355  16.975   5.605   0.473  0.0041 -0.1746  0.0157
31887W        W47356   5.160  16.742   5.296  0.0987  0.1507 -0.2083
31888W        W47357  11.398   0.381   4.306 -0.1666 -0.2217 -0.0146
31889W        W47358  15.789  12.251   5.558 -0.2995  0.3294  0.1140
31890W        W47359   0.235  17.021  15.964 -0.1499  0.2711 -0.1076
31891W        W47360  13.450  13.269  16.076  0.3800 -0.0620 -0.2427
31892W        W47361   1.519  16.871  10.863  0.0700 -0.0499 -0.0413
31893W        W47362   5.841   0.624  10.718 -0.3332 -0.2437  0.0338
31894W        W47363  16.184  11.252  12.465 -0.1939 -0.1631  0.3165
31895W        W47364   5.296   0.754   4.671  0.2189 -0.0185 -0.1024
31896W        W47365  13.498   8.500   0.175 -0.0775 -0.2500  0.0960
31897W        W47366   6.026   6.194   1.331 -0.0057 -0.3265 -0.0094
31898W        W47367   1.594  13.441   1.781 -0.5696  0.2023  0.0783
31899W        W47368   9.583   9.734   0.265  0.1087 -0.0742  0.1514
31900W        W47369  15.555  14.516   1.211  0.3086 -0.0555 -0.2534
31901W        W47370  14.234   6.802   5.648 -0.1309 -0.1194 -0.0769
31902W        W47371   9.215  15.761  13.183  0.1561 -0.0260  0.3139
31903W        W47372   7.563   8.796  12.154 -0.1687  0.2545  0.0408
31904W        W47373  15.053  15.811   6.249 -0.1327 -0.0540  0.0262
31905W        W47374  12.992  10.528   1.392 -0.0851 -0.1847  0.3775
31906W        W47375  15.014   8.168  11.046 -0.2614  0.0954 -0.0185
31907W        W47376  13.984   7.067  14.525  0.1211 -0.1540 -0.0071
31908W        W47377  13.135  10.625  11.533  0.1420 -0.0393  0.2525
31909W        W47378   5.500  12.591   0.856  0.2578 -0.1001 -0.0535
31910W        W47379   1.028   1.245   2.572 -0.1870 -0.1619  0.2212
31911W        W47380  16.716  14.295  12.635  0.1404 -0.2200  0.1693
31912W        W47381   5.011  15.699  12.274  0.2208 -0.0888 -0.1637
31913W        W47382   1.530  15.950  13.585  0.0195  0.2765  0.1846
31914W        W47383   4.113   6.393   5.743  0.3044 -0.2580 -0.0253
31915W        W47384   0.451   0.452   2.136 -0.1245  0.1001 -0.0773
31916W        W47385   4.216   3.202   0.934  0.0568  0.1882  0.0425
31917W        W47386  18.149   9.322   3.187 -0.2382 -0.0371 -0.3164
31918W        W47387   8.908   4.342   3.045  0.1380 -0.0596 -0.0370
31919W        W47388   5.496  13.880  14.794 -0.0633  0.1459  0.2006
31920W        W47389   4.424   7.705   1.166 -0.0259  0.0044  0.2174
31921W        W47390  12.985  13.380  15.744 -0.0883 -0.0981 -0.1468
31922W        W47391   1.158  15.507   4.924 -0.2958 -0.1242  0.0584
31923W        W47392   1.996   1.799  10.981 -0.1687  0.1274  0.2913
31924W        W47393   3.738   4.641   5.288 -0.1203 -0.1630 -0.2124
31925W        W47394  10.455   9.597   2.983  0.0870  0.0232  0.2105
31926W        W47395  14.239   8.247  11.976 -0.2465 -0.2735 -0.3801
31927W        W47396   3.497  13.406  12.613  0.0550  0.0149  0.2781
31928W        W47397  11.078   4.867  11.253  0.1975 -0.0723  0.0889
31929W        W47398   9.040   4.192   1.507 -0.4125 -0.2258 -0.1817
31930W        W47399  10.448   4.355   4.055 -0.2513  0.1250  0.0450
31931W        W47400   0.699   0.224  13.696 -0.0661  0.3176 -0.0197
31932W        W47401  13.710   4.782  15.911 -0.0871 -0.1567  0.2663
31933W        W47402  10.146  10.319   4.967  0.2134 -0.0271  0.1479
31934W        W47403  16.243   9.517  13.846 -0.1007  0.1684 -0.0513
31935W        W47404   3.694  11.743   1.933 -0.0699 -0.0563 -0.2063
31936W        W47405  15.071   3.169  15.608 -0.1531  0.0043  0.0862
31937W        W47406   7.367  11.482  12.992  0.1018 -0.1535  0.2896
31938W        W47407   0.435  17.155   5.926  0.3277  0.0145 -0.2971
31939W        W47408  14.467   6.687   1.220  0.1297 -0.1312 -0.1443
31940W        W47409  13.843  17.265  13.177 -0.0806  0.0980  0.1448
31941W        W47410  11.208   7.406  11.053  0.1028 -0.1226 -0.1509
31942W        W47411   4.240   8.297   0.373  0.1003 -0.0009 -0.0030
31943W        W47412   9.292   7.429   3.538  0.1005 -0.0147  0.1794
31944W        W47413   5.773  16.449  14.130 -0.4665  0.0462 -0.1113
31945W        W47414   5.967  14.686  11.595  0.0528 -0.3505 -0.2056
31946W        W47415   9.664   9.711   3.419 -0.2809 -0.0475  0.1216
31947W        W47416   9.147  11.799  12.802  0.1676 -0.0314 -0.2225
31948W        W47417   6.276   2.746  15.212 -0.1453 -0.0571 -0.2910
31949W        W47418  12.638   6.822   2.765 -0.0368 -0.1211  0.0082
31950W        W47419  17.944   0.792   4.494 -0.2454 -0.3640  0.0977
31951W        W47420   7.165  11.197  10.868 -0.2449 -0.0320 -0.1810
31952W        W47421  14.397   1.360   4.125  0.4055  0.0438  0.0312
31953W        W47422   8.553   9.469  10.984  0.1681 -0.3316 -0.0807
31954W        W47423   2.973   9.532  13.258  0.0230 -0.2785 -0.0335
31955W        W47424  11.223  13.229  13.163 -0.0365 -0.1089  0.0628
31956W        W47425  15.808  18.011   0.691  0.1558 -0.1697  0.1395
31957W        W47426   1.940  16.215  13.469 -0.0827  0.2231  0.1879
31958W        W47427  12.554   6.000  15.292  0.0525 -0.3489  0.0522
31959W        W47428  10.940  16.039   3.884 -0.2885  0.0386  0.1081
31960W        W47429   9.912   1.650  13.723  0.1920 -0.0304  0.1327
31961W        W47430   8.558   3.710   5.242 -0.1567  0.1617 -0.0575
31962W        W47431   9.272   4.021  14.876 -0.2227 -0.1828  0.0734
31963W        W47432  14.821   5.199   4.702  0.0180 -0.2197 -0.3711
31964W        W47433   2.889   9.266   6.407 -0.0297  0.1111  0.1056
31965W        W47434   1.344  14.498  11.225  0.0986 -0.1848 -0.1841
31966W        W47435   4.669   7.021   4.485 -0.2507 -0.0963 -0.0446
31967W        W47436  16.004  17.885  15.840  0.2845  0.1721  0.0260
31968W        W47437   9.131  10.807   0.276  0.0839  0.2486  0.1125
31969W        W47438  11.727  13.510  15.758 -0.3022 -0.0220  0.0352
31970W        W47439  15.459  13.083  11.236  0.3353 -0.0203  0.1639
31971W        W47440   1.985   8.131  11.591  0.4454 -0.0921  0.0533
31972W        W47441   2.672  10.723   0.279  0.1119 -0.0332  0.1399
31973W        W47442  14.143  14.669  14.211  0.0877  0.0390 -0.2960
31974W        W47443  13.947  15.144   1.196  0.1371  0.2152 -0.1151
31975W        W47444  13.239   3.681   0.130  0.2182  0.2669  0.1041
31976W        W47445   9.029   5.256   3.090  0.1096  0.0559 -0.2259
31977W        W47446  17.996  11.000   2.871  0.0545  0.2352 -0.1468
31978W        W47447  11.979   6.688   1.398 -0.3550  0.0767  0.0120
31979W        W47448   8.757   2.793  14.200  0.0472 -0.3639 -0.3874
31980W        W47449  11.786   1.000   3.566  0.5123 -0.1614 -0.0834
31981W        W47450  13.814   6.817  10.948  0.1629 -0.1939 -0.0304
31982W        W47451  10.066   6.152  14.969 -0.0364  0.1484 -0.0295
31983W        W47452   2.204   0.951   4.098 -0.1648  0.1064 -0.0066
31984W        W47453  17.370   0.258  12.920 -0.2160  0.0972  0.3153
31985W        W47454  12.029  14.690   1.960 -0.1617 -0.0343  0.1324
31986W        W47455   3.958   7.862   2.695 -0.2003  0.1055 -0.0886
31987W        W47456  15.816   3.405  12.683 -0.0696 -0.0188  0.1268
31988W        W47457  17.110   5.696  12.332  0.1164 -0.1501  0.3493
31989W        W47458  16.852   3.732  13.104  0.2740  0.2482  0.0179
31990W        W47459   9.829  16.864   0.943 -0.0586  0.0254  0.2967
31991W        W47460  17.869  15.011   4.743 -0.4069 -0.0639 -0.3153
31992W        W47461   1.253  15.053   1.370 -0.0047  0.2776  0.1305
31993W        W47462  14.004   9.353  13.057 -0.2420 -0.3136  0.1108
31994W        W47463  18.222   4.541   1.290  0.0218  0.0351  0.3420
31995W        W47464   1.633   0.232  12.984  0.1638  0.0664 -0.1858
31996W        W47465  12.566   8.581  11.813  0.2179  0.0060  0.3188
31997W        W47466   7.346   9.509  15.683  0.2252 -0.0125  0.0233
31998W        W47467  14.588   6.196   4.873 -0.0673 -0.2345  0.0691
31999W        W47468  14.169  11.204   0.074 -0.2348  0.0250 -0.0149
32000W        W47469  12.422  15.328   3.155 -0.3258 -0.2080 -0.0123
32001W        W47470  14.853  16.385  13.121 -0.0425  0.2222  0.1247
32002W        W47471   9.232  16.806  13.297  0.5032  0.0319 -0.0976
32003W        W47472  12.208   0.098   4.191 -0.0702 -0.2035 -0.0246
32004W        W47473  10.485   5.052  12.197 -0.2951 -0.0674 -0.1504
32005W        W47474   9.193   8.574   0.018 -0.0431  0.0690  0.2622
32006W        W47475   9.414  10.781  10.911 -0.1363  0.1595  0.3171
32007W        W47476   7.534   8.039  12.714 -0.1860 -0.0736 -0.0137
32008W        W47477   9.843  13.675  12.741 -0.0910  0.1968 -0.0487
32009W        W47478   4.796   1.759   1.922 -0.5757  0.1162  0.1451
32010W        W47479  15.468  11.322  11.928  0.1994 -0.2602  0.0295
32011W        W47480  14.885   9.125  13.174  0.1456 -0.2582 -0.2050
32012W        W47481   7.144  11.781  15.411 -0.1983  0.3541 -0.1129
32013W        W47482  12.260  16.370  14.434  0.1615  0.2424 -0.2316
32014W        W47483   1.743   4.963  15.555 -0.0442 -0.3139  0.3436
32015W        W47484   4.498   5.988   4.324  0.2769  0.3447  0.0331
32016W        W47485   0.264   9.950  14.797  0.2426 -0.1110  0.4160
32017W        W47486   9.081   2.340   2.167  0.2188  0.0860 -0.0902
32018W        W47487   6.688  10.181   5.089 -0.0451 -0.0146 -0.0820
32019W        W47488  11.766   2.601  14.017 -0.0962  0.1202  0.1106
32020W        W47489   9.388   5.917  12.409 -0.2428  0.1786 -0.6578
32021W        W47490  11.481  14.577  13.834 -0.0713  0.0044  0.1037
32022W        W47491   0.810  11.760   0.172 -0.1237 -0.1368 -0.3302
32023W        W47492   5.334   0.720  15.685 -0.3549  0.2156 -0.0003
32024W        W47493  11.458  13.531  11.641  0.1917  0.1974 -0.0357
32025W        W47494  13.507   6.294   4.847  0.0338 -0.0734 -0.3576
32026W        W47495   7.438  15.937  15.069 -0.0936  0.0043  0.0704
32027W        W47496   4.448  12.379   2.242 -0.0594 -0.0822  0.3523
32028W        W47497  13.176  13.386   4.139 -0.1389 -0.0086 -0.1035
32029W        W47498   6.836  12.100   3.984 -0.1266  0.1421  0.0806
32030W        W47499   1.446   5.038  15.161  0.0478 -0.1232 -0.3127
32031W        W47500  11.883   7.465  13.429  0.0878  0.0128 -0.1444
32032W        W47501   3.759   2.638   4.181  0.0617  0.2254  0.0620
32033W        W47502   8.369  17.029   1.192 -0.2386  0.0947  0.2566
32034W        W47503   5.733   3.944   3.231  0.2899  0.1377  0.1361
32035W        W47504  16.316   9.121   4.943  0.0731  0.0260  0.0590
32036W        W47505  16.787  16.332   4.782  0.1509 -0.1526  0.3827
32037W        W47506   7.739   6.108   3.204  0.0634 -0.1243  0.0169
32038W        W47507   9.693   5.952   4.759 -0.1006 -0.1469  0.0967
32039W        W47508  13.107   7.864   4.753 -0.4362 -0.1451 -0.0957
32040W        W47509   6.141   1.797   1.802  0.0799  0.1895  0.4754
32041W        W47510   3.344  10.205  13.839  0.0041 -0.3027 -0.0747
32042W        W47511  13.292   2.605  12.899 -0.0123 -0.3138  0.0836
32043W        W47512  16.418   8.280  10.615  0.1902 -0.2311  0.1089
32044W        W47513  16.327   5.495  15.878  0.0887 -0.1278  0.1804
32045W        W47514   8.307  18.013   3.369  0.0870  0.2341 -0.0018
32046W        W47515   8.877  12.524  11.143  0.1444 -0.0200  0.1263
32047W        W47516   3.715  17.402  13.609  0.2451  0.0125 -0.1984
32048W        W47517  17.204  14.642   1.572  0.1769  0.2410  0.2656
32049W        W47518   3.398  11.099  14.203 -0.2816  0.0192 -0.2962
32050W        W47519  14.447  10.877  12.072  0.0851 -0.1012  0.0236
32051W        W47520   2.792  16.887   3.006  0.0838 -0.0757  0.2249
32052W        W47521   3.811  17.164  15.854  0.2033  0.2233  0.0845
32053W        W47522   1.779   0.572   4.294 -0.0357 -0.1199 -0.0523
32054W        W47523   8.580   3.001   2.824  0.2559  0.0913  0.0491
32055W        W47524   5.648   1.960   5.244 -0.0404 -0.0127 -0.0034
32056W        W47525   6.466  18.201   3.978  0.1812  0.5108  0.5116
32057W        W47526  13.996  17.167   1.266  0.0470 -0.1855  0.2763
32058W        W47527   9.876  10.494  13.526  0.0778  0.2237 -0.0249
32059W        W47528   5.056  14.393  12.375  0.2694  0.1894 -0.1520
32060W        W47529  14.842  11.540   1.528 -0.3771  0.1152  0.0633
32061W        W47530  12.645   8.559   6.155 -0.0537 -0.1908  0.1131
32062W        W47531   2.944  16.327   2.926 -0.0543 -0.0312  0.0054
32063W        W47532  10.252  17.157   3.678  0.1676 -0.1206  0.3377
32064W        W47533  14.974   4.097  14.440 -0.2111  0.0223 -0.2235
32065W        W47534  17.519  13.130   3.324 -0.0614  0.0959  0.1194
32066W        W47535  11.127   6.054   4.349 -0.1134  0.0427  0.0086
32067W        W47536   3.465   0.488   2.351  0.5084 -0.1928  0.0794
32068W        W47537  13.956  12.208   5.702 -0.1311 -0.0915 -0.0784
32069W        W47538  12.587   5.077   1.638 -0.1403  0.0037 -0.1903
32070W        W47539  12.002   7.757   3.731 -0.0635 -0.2580 -0.2303
32071W        W47540   6.321  15.737  11.061  0.0354  0.3796  0.1916
32072W        W47541   2.571   7.077   5.778  0.1272 -0.1107 -0.1308
32073W        W47542  16.677   2.900   3.488  0.0854  0.1869 -0.0320
32074W        W47543   3.271   6.923   4.706  0.0318  0.2337 -0.1295
32075W        W47544  17.116  16.593  12.028 -0.1549  0.3326  0.1446
32076W        W47545   6.652   5.924  14.691  0.2386 -0.1578 -0.1728
32077W        W47546   1.230   3.108   2.277 -0.1611 -0.0252  0.0127
32078W        W47547  10.424  13.470   4.151  0.1020  0.0902  0.0648
32079W        W47548  18.101  11.995  16.175 -0.3569 -0.0693 -0.3990
32080W        W47549   3.546  15.589   3.758 -0.0982  0.0977  0.1392
32081W        W47550  16.407   4.931   2.168  0.3708 -0.0018  0.1511
32082W        W47551   0.847  16.306   3.840  0.0044  0.0671 -0.0117
32083W        W47552  11.459  17.438   0.243  0.0485 -0.2933 -0.2208
32084W        W47553   7.429   5.386   0.346  0.2171  0.1931 -0.3406
32085W        W47554   2.429   7.475   5.254 -0.2242 -0.1538 -0.1336
32086W        W47555   9.268   2.697  16.142  0.0044  0.0219 -0.1558
32087W        W47556  17.660  15.244  12.297  0.0952  0.0511 -0.2846
32088W        W47557  16.216   6.878  11.904 -0.0433 -0.2761  0.0157
32089W        W47558  16.282   2.399  13.346  0.2769 -0.1640  0.0562
32090W        W47559   8.583   3.491   3.027 -0.2224  0.0944 -0.0296
32091W        W47560  10.855   1.847   3.923  0.1321  0.1764  0.1004
32092W        W47561  15.904  16.054  11.606  0.3228  0.1056  0.2076
32093W        W47562  16.955   2.172  11.531  0.0313  0.1408  0.0688
32094W        W47563   3.263   1.516   1.865 -0.3098 -0.0534 -0.2182
32095W        W47564   4.572  12.378   3.473  0.2338 -0.1010 -0.0838
32096W        W47565  13.823  17.944   4.055  0.0609  0.1171 -0.1451
32097W        W47566   9.139   0.136  14.771  0.1976 -0.0943  0.0026
32098W        W47567  11.943  13.693  14.209  0.0798  0.2629  0.0462
32099W        W47568   5.706   9.355   1.097 -0.0850 -0.0558 -0.0510
32100W        W47569   6.221   3.922  13.745 -0.1743 -0.1550 -0.4998
32101W        W47570  15.381   3.180  11.881  0.2926  0.0724 -0.3390
32102W        W47571   4.546  13.547   0.014 -0.0985  0.0990  0.1270
32103W        W47572  10.708   0.292   0.637 -0.1691  0.0988 -0.0458
32104W        W47573  16.813  11.804  12.952 -0.1694 -0.2214  0.1154
32105W        W47574   9.345  14.639  12.108  0.1497 -0.1006  0.1407
32106W        W47575  16.672  16.408   3.984 -0.2735 -0.1207  0.0250
32107W        W47576  13.422   8.722  13.918  0.1413 -0.1364  0.2038
32108W        W47577  14.385   2.930   4.661  0.2232 -0.2079  0.0204
32109W        W47578  14.896  12.262   2.237  0.0954 -0.1686 -0.0206
32110W        W47579   1.183   2.025   0.672 -0.0136  0.4535 -0.1106
32111W        W47580   1.997   0.966  16.148  0.0350 -0.1689 -0.3003
32112W        W47581   3.707   4.713   1.449  0.1836 -0.0503 -0.3329
32113W        W47582   0.662  14.888   1.364  0.0969  0.0317  0.0072
32114W        W47583   5.186  15.915  15.305 -0.0859 -0.3267 -0.0738
32115W        W47584   1.095  14.702  15.909  0.0576 -0.0350 -0.0874
32116W        W47585  15.040  11.700   0.197 -0.0378  0.0200  0.0013
32117W        W47586   0.175  15.262  15.934  0.1230 -0.0032 -0.0156
32118W        W47587   8.144   7.913  15.788 -0.0812  0.0227  0.0294
32119W        W47588  16.028   5.075  13.020  0.2053 -0.1187  0.3189
32120W        W47589   2.342  17.185  14.120 -0.1331 -0.0537  0.0547
32121W        W47590   8.892   6.064   5.595 -0.0100 -0.1560  0.0252
32122W        W47591   6.035  16.667   3.367  0.1401  0.0626  0.1110
32123W        W47592   1.222   6.829   3.848  0.2810 -0.2218 -0.0738
32124W        W47593   6.583  15.332   3.387 -0.0173  0.0440 -0.3234
32125W        W47594  17.741   0.293  14.702 -0.1642  0.0296  0.0822
32126W        W47595   9.275   1.500   2.724  0.0361 -0.0590  0.0910
32127W        W47596   2.028  17.619  11.262 -0.0204  0.0512 -0.0648
32128W        W47597  11.678   9.693  13.285 -0.1207  0.1868 -0.0645
32129W        W47598   7.756   4.931   5.473 -0.2245 -0.1027 -0.3786
32130W        W47599   5.330   9.818   4.704  0.0865 -0.2533  0.3559
32131W        W47600  16.769  16.247   2.332 -0.0838 -0.1258 -0.1367
32132W        W47601  13.460   2.212   5.593 -0.3439  0.1088  0.1320
32133W        W47602   0.743   1.971  12.470 -0.1787  0.0573 -0.1466
32134W        W47603  10.906   2.305   4.690  0.0558 -0.0426 -0.1603
32135W        W47604   4.280   9.212   0.957  0.2969 -0.0361 -0.0828
32136W        W47605  15.039   6.964   4.533  0.0913  0.0062  0.0195
32137W        W47606   0.399   7.140  16.152  0.0982 -0.1373  0.5064
32138W        W47607  17.346   9.063   2.307 -0.0817  0.1278  0.0183
32139W        W47608   1.859   7.800   1.902 -0.3424 -0.1805 -0.1554
32140W        W47609  16.308   1.463  11.278  0.0055 -0.0440  0.2132
32141W        W47610   0.088  13.126   4.798 -0.4080  0.1617 -0.0785
32142W        W47611   5.848   8.568  15.549 -0.1345  0.3145 -0.1317
32143W        W47612  14.045   3.969  12.513  0.1238  0.0917 -0.3644
32144W        W47613  12.350  15.141  12.521  0.2128 -0.0476 -0.1345
32145W        W47614   1.575  15.685  12.713 -0.1070 -0.0428 -0.2147
32146W        W47615  16.486   3.745   1.444 -0.1124  0.0493  0.1090
32147W        W47616   0.553   5.884   4.831 -0.0311  0.1605 -0.0394
32148W        W47617   5.082   2.145   1.522 -0.0346 -0.0775 -0.0565
32149W        W47618   5.999  16.896  13.482 -0.1494  0.0487  0.0101
32150W        W47619  17.183   0.004  11.925  0.1377  0.0888  0.0438
32151W        W47620  15.994   0.268  10.855 -0.0943  0.3572  0.0387
32152W        W47621  16.536   8.355  14.654 -0.1850 -0.1249 -0.0578
32153W        W47622   4.756  15.183  12.740 -0.0925 -0.2025  0.0553
32154W        W47623   9.838   6.098  12.661 -0.0125  0.1092 -0.1025
32155W        W47624   5.835   6.182  12.779  0.0197  0.1348 -0.0297
32156W        W47625   4.824  12.694   2.829 -0.0096 -0.1339 -0.1985
32157W        W47626  18.183  14.727  14.567  0.0218 -0.0524  0.0468
32158W        W47627  18.128   0.276   5.219 -0.3208  0.1483 -0.4284
32159W        W47628   5.306  16.255   5.950 -0.1216  0.1080  0.0830
32160W        W47629  17.724   7.147   4.035 -0.3908 -0.0654 -0.2200
32161W        W47630   4.801  12.701  15.393 -0.1907 -0.0955 -0.0372
32162W        W47631   7.767   7.055  12.995 -0.1272  0.0911  0.0219
32163W        W47632   2.433   7.398   2.600  0.2406 -0.0677  0.0639
32164W        W47633  15.048   2.014   2.327 -0.0443  0.2401 -0.0997
32165W        W47634  12.301  10.318  12.089 -0.1456 -0.2416  0.1895
32166W        W47635   8.788  17.091   2.616 -0.2272  0.2079  0.3063
32167W        W47636   7.228   6.944  12.162  0.1228  0.0874  0.1028
32168W        W47637  12.014   7.519   1.997 -0.0070 -0.0523  0.0296
32169W        W47638   1.043  13.892  14.890 -0.0613 -0.1279  0.1745
32170W        W47639  10.811   6.375   2.670  0.0382 -0.0578  0.2371
32171W        W47640   0.581  15.925   3.651  0.0435  0.1601  0.1591
32172W        W47641  10.696  10.746   0.022 -0.2606  0.2140  0.0419
32173W        W47642   0.673  12.322   0.054  0.0493  0.1558  0.1649
32174W        W47643   4.486   1.591  11.514 -0.1986 -0.2031 -0.0653
32175W        W47644   8.432  16.529   0.028 -0.1624 -0.2801 -0.0006
32176W        W47645   0.878   7.192   0.110  0.0583  0.0934 -0.0602
32177W        W47646  12.739   2.762   5.563 -0.1249 -0.0481  0.1034
32178W        W47647   5.072   4.206  14.634 -0.1506  0.0920  0.2365
32179W        W47648  16.996   3.322   5.421 -0.1975  0.3126 -0.0882
32180W        W47649  13.038   9.341  11.876 -0.3560 -0.0057  0.2021
32181W        W47650   2.638  10.657   1.150  0.0473  0.1112 -0.3312
32182W        W47651   5.093  13.918  12.607  0.1102  0.2170  0.5117
32183W        W47652  18.156  10.398   6.178  0.1089 -0.0169  0.2431
32184W        W47653  15.576   9.485   3.510 -0.1991  0.1409 -0.2483
32185W        W47654  12.329  11.241  11.205 -0.1489 -0.1276  0.4207
32186W        W47655  12.087  13.927  12.795  0.2366 -0.1286  0.0239
32187W        W47656  16.405  10.274   4.196 -0.1002 -0.1771 -0.0249
32188W        W47657  12.523   6.103   3.487  0.0882 -0.0091 -0.2805
32189W        W47658   4.471  16.372  11.840 -0.0516  0.2581  0.3514
32190W        W47659  15.773  11.921  15.893 -0.1998 -0.0171 -0.0461
32191W        W47660   1.485   9.969  15.633 -0.1098  0.3720 -0.4224
32192W        W47661   6.478   1.215   0.210 -0.2244  0.2400 -0.0902
32193W        W47662   7.644  15.746   1.864 -0.2921  0.2141  0.0293
32194W        W47663   2.138  12.266   4.035 -0.0346  0.2536 -0.0306
32195W        W47664   4.237   1.432   4.750 -0.0256  0.1739  0.1156
32196W        W47665   2.702  11.374   0.440  0.0811 -0.0770 -0.1742
32197W        W47666   3.861  14.681   5.514 -0.0127  0.0629  0.2213
32198W        W47667  11.739   4.430  14.673 -0.1422 -0.0245  0.0240
32199W        W47668  16.279   5.587   1.569 -0.2637  0.0291 -0.2746
32200W        W47669   1.541   7.747   0.941  0.0136 -0.2413  0.0595
32201W        W47670   7.284   2.685   2.238  0.1550 -0.3276  0.1036
32202W        W47671  15.206  17.075  14.462  0.1296 -0.2803  0.2626
32203W        W47672   9.278   7.708  14.682  0.0136 -0.1485  0.1329
32204W        W47673  11.476   3.728  15.296  0.1745  0.2861 -0.2083
32205W        W47674   3.472  12.373  10.621 -0.5605  0.0595 -0.2976
32206W        W47675   3.361  16.694   1.254  0.0257  0.2515 -0.1442
32207W        W47676  14.118  12.427   1.090 -0.1983 -0.0556 -0.0388
32208W        W47677  14.684  18.094   2.001 -0.1328  0.2443 -0.1215
32209W        W47678   4.155   6.558  11.836  0.0627  0.1465  0.1902
32210W        W47679  10.764  17.404   0.919 -0.1038 -0.2926 -0.0298
32211W        W47680   2.899   9.457  12.782 -0.0136  0.2527  0.0183
32212W        W47681   9.789  13.406  10.696  0.2783 -0.2746 -0.1069
32213W        W47682  16.246   6.810   4.623 -0.0643  0.2699 -0.2369
32214W        W47683   9.512   1.108  14.627 -0.2607 -0.1780  0.1471
32215W        W47684  10.243   4.722  12.484 -0.2293 -0.1168 -0.0038
32216W        W47685   3.906  17.144   1.660 -0.1190  0.2086 -0.0360
32217W        W47686   4.214  14.523  14.078  0.2065  0.0271  0.2464
32218W        W47687   2.657   4.818   0.595 -0.0974  0.1445 -0.1385
32219W        W47688  14.920  14.638  14.013  0.1786  0.1471 -0.0946
32220W        W47689   6.010   1.318   1.787 -0.0657  0.1038  0.2273
32221W        W47690  12.894  11.744  15.759 -0.1342 -0.1757  0.3720
32222W        W47691   4.296  16.993  15.633  0.1995 -0.0894 -0.0076
32223W        W47692   0.181  15.518   2.747 -0.1243 -0.1264 -0.2264
32224W        W47693  14.211  14.308   4.339  0.3886 -0.0542  0.1749
32225W        W47694   7.359   5.592  15.099  0.0596 -0.2304  0.0089
32226W        W47695  16.874   5.080   0.289 -0.0259 -0.0588 -0.1279
32227W        W47696   6.164  14.796  13.801 -0.1816 -0.0217  0.2904
32228W        W47697  12.650  18.103   0.259  0.2292 -0.0978  0.1983
32229W        W47698  13.924   7.535  14.711  0.2050  0.1204  0.1635
32230W        W47699  10.725  14.554   2.625 -0.1649 -0.0870 -0.3395
32231W        W47700  11.699  18.191   3.617  0.0818  0.0432 -0.0987
32232W        W47701   7.668  15.623   0.403  0.0855  0.2722 -0.0089
32233W        W47702   1.764  11.925   4.119  0.1259 -0.1211 -0.2059
32234W        W47703   0.661   7.109  15.263 -0.0284  0.3383  0.0146
32235W        W47704   8.034  10.040   1.864 -0.4348 -0.0533 -0.2623
32236W        W47705  11.835   1.448  11.097 -0.1212  0.0757  0.0012
32237W        W47706   4.901  15.134  14.362  0.1652 -0.3176 -0.1378
32238W        W47707  12.015   4.061  11.290  0.1383 -0.0764  0.2197
32239W        W47708   0.503   4.311   5.820 -0.1296 -0.1624 -0.3923
32240W        W47709  14.358   3.075   4.135  0.0451  0.1176 -0.1773
32241W        W47710   7.248  11.138  12.671  0.1408 -0.3047 -0.2772
32242W        W47711  17.732   4.578  12.380  0.1321 -0.1653  0.1666
32243W        W47712   6.849  15.914   2.041 -0.2199  0.0779 -0.0785
32244W        W47713  12.729   4.260   5.975 -0.2451 -0.0546  0.3055
32245W        W47714  15.073   9.417   3.281 -0.0699 -0.0877  0.0636
32246W        W47715   4.007   7.409  13.746  0.2943  0.1368  0.2029
32247W        W47716  15.650  11.047  11.129  0.1928  0.0596 -0.0673
32248W        W47717   2.076  10.158   3.402  0.3119 -0.3073 -0.0727
32249W        W47718  12.554   2.589   3.995  0.0615  0.3663 -0.0261
32250W        W47719   8.590  16.424  12.724  0.0241  0.0547 -0.0314
32251W        W47720  13.140  16.277  16.105  0.3942 -0.1728  0.0184
32252W        W47721  12.775  12.411   0.957  0.2095  0.3603  0.2399
32253W        W47722  12.697   9.018   0.034  0.1514  0.1610 -0.1984
32254W        W47723   4.206   3.526   2.992 -0.2253 -0.0476  0.0948
32255W        W47724   9.551  17.719   1.087 -0.2008  0.2061 -0.2573
32256W        W47725  18.205   6.171   2.676 -0.0517 -0.1298  0.2309
32257W        W47726  10.533   9.523   3.965 -0.0023 -0.0100 -0.0530
32258W        W47727  10.682   8.998  12.138  0.0157 -0.1244 -0.0923
32259W        W47728  13.709   5.231   0.809 -0.1058  0.0461  0.0953
32260W        W47729   8.806   9.317   0.464 -0.0687 -0.0462 -0.0916
32261W        W47730  11.666  12.982  12.967 -0.2612  0.0055 -0.1310
32262W        W47731   4.779   4.341   3.961  0.3361  0.0528  0.0696
32263W        W47732   1.380   0.808  14.031 -0.0611  0.0046  0.0378
32264W        W47733  12.837   7.234  15.470  0.0323  0.2456  0.3061
32265W        W47734   2.721  10.583   3.968 -0.0973  0.2438 -0.0059
32266W        W47735   4.242  16.051   0.514 -0.3819 -0.1353  0.1509
32267W        W47736  11.614  11.157  14.049 -0.0653  0.1275 -0.1309
32268W        W47737  12.678   0.784  14.956 -0.1820 -0.1621 -0.2357
32269W        W47738   1.441   0.994  11.496 -0.1423 -0.0715  0.3498
32270W        W47739   2.938   9.891  13.707  0.1715  0.2940  0.1927
32271W        W47740  11.713  10.448  15.163 -0.1558 -0.0215  0.1646
32272W        W47741  15.026  10.087  13.002 -0.0268 -0.2276  0.0474
32273W        W47742  13.116  15.592  12.686 -0.4427  0.1188  0.1055
32274W        W47743  17.883  15.781  12.774  0.1889 -0.0574  0.3315
32275W        W47744  10.057   5.197  12.471 -0.0391  0.1426  0.0977
32276W        W47745  14.626  11.473   0.121  0.1519  0.2513  0.3701
32277W        W47746  13.380  15.430  14.282  0.0012 -0.0195 -0.2046
32278W        W47747   4.580   5.049  14.566  0.0007  0.3747  0.0216
32279W        W47748  16.907   6.045  14.170 -0.0435 -0.0256  0.3178
32280W        W47749  16.110  10.197   2.502 -0.0086 -0.0717  0.1496
32281W        W47750   4.240  14.176   2.439 -0.0341 -0.0802 -0.1080
32282W        W47751   8.621   5.144   2.705  0.1505  0.0763 -0.1936
32283W        W47752  13.821  15.171  12.346  0.0870  0.2270  0.2820
32284W        W47753   2.971   0.966  11.656  0.0027 -0.1877  0.0681
32285W        W47754  15.911  13.795   5.097  0.0971 -0.0941  0.1447
32286W        W47755  16.790   8.444   3.722  0.0906  0.4824  0.0925
32287W        W47756   2.907   6.259  12.444 -0.0952 -0.0592 -0.2906
32288W        W47757   0.643  11.250   2.605  0.1209  0.0866 -0.0795
32289W        W47758   9.647  16.169   0.255 -0.1147 -0.1669 -0.2425
32290W        W47759  17.364   3.992   3.269 -0.1150 -0.0855  0.0957
32291W        W47760  13.191  12.360   1.894  0.0092  0.0086  0.0425
32292W        W47761  12.394  17.951  15.725 -0.1658 -0.0786  0.1343
32293W        W47762   4.603   0.405  13.428  0.1026  0.1967 -0.0228
32294W        W47763  17.740   0.518  12.591  0.1338 -0.2090 -0.1113
32295W        W47764   2.986  13.137  14.988  0.0042  0.1470 -0.0791
32296W        W47765   5.312   8.505   0.597  0.0812  0.1178 -0.0505
32297W        W47766  11.554  15.024   2.242 -0.0712 -0.3353  0.1778
32298W        W47767   5.475  10.093  11.005  0.0541 -0.0570 -0.1841
32299W        W47768   7.621   9.775  12.156  0.0532 -0.2076 -0.2005
32300W        W47769   6.787   9.442   6.186 -0.1795  0.0539 -0.0869
32301W        W47770  17.192  13.796  13.379 -0.0186 -0.0512  0.3851
32302W        W47771  13.540  11.690   1.254 -0.0426  0.0478  0.0108
32303W        W47772  13.268  10.664  12.968 -0.1875 -0.2463  0.2278
32304W        W47773  11.981   2.685   0.787 -0.2045 -0.0713 -0.2739
32305W        W47774   3.291   5.302  13.391 -0.0572  0.2664 -0.2381
32306W        W47775   3.067   9.675  12.376  0.1048  0.0472 -0.0331
32307W        W47776  10.300   7.142   1.587 -0.0452  0.0915  0.1445
32308W        W47777   8.811   7.959  13.479  0.0290 -0.0352 -0.3436
32309W        W47778   0.798   0.236  11.009 -0.1001 -0.1748 -0.2312
32310W        W47779   5.497  13.926  12.001 -0.1399  0.0380  0.3285
32311W        W47780  13.097   9.268   0.209 -0.2571 -0.2061 -0.0889
32312W        W47781  10.838  15.603   0.659 -0.3004 -0.2419 -0.0905
32313W        W47782   2.248  16.893   4.571  0.0139 -0.1196  0.0238
32314W        W47783   4.087   0.660   1.185  0.0685  0.1255 -0.0758
32315W        W47784  16.350   6.128  15.297  0.1088  0.1455  0.1580
32316W        W47785  14.230   1.633  16.057 -0.2486 -0.4369 -0.2756
32317W        W47786   1.666   5.473  15.491  0.0109  0.1627  0.1547
32318W        W47787   1.108  18.212  13.652 -0.2149  0.0401  0.1967
32319W        W47788   5.633   2.129   3.115 -0.2347  0.0103 -0.2803
32320W        W47789   2.335  17.465   0.610  0.1200 -0.0042  0.2933
32321W        W47790   6.218   5.761   4.216 -0.2049  0.2239 -0.0416
32322W        W47791   6.813   3.818  11.562 -0.1073  0.1842  0.2464
32323W        W47792  17.583   5.499   5.147 -0.2334 -0.0983  0.1017
32324W        W47793  16.713  11.939  14.471  0.0761 -0.0091 -0.2480
32325W        W47794  16.595   9.086  13.015 -0.0710 -0.1185 -0.3436
32326W        W47795  10.741   8.737  10.341 -0.1047  0.0111 -0.0728
32327W        W47796   9.806   0.287   2.402 -0.0362 -0.1081 -0.3492
32328W        W47797  17.665   8.989   5.321  0.2230  0.0147  0.2001
32329W        W47798  13.881   7.316  11.669 -0.0454 -0.0876 -0.1533
32330W        W47799   9.912  16.544   2.449 -0.0702 -0.0732  0.0241
32331W        W47800   8.465  15.459   1.736  0.2637  0.0465 -0.1195
32332W        W47801   6.662   8.543   2.860  0.3257  0.1072 -0.1504
32333W        W47802   8.129   6.041  13.677 -0.3413 -0.1051 -0.0627
32334W        W47803   4.349  12.260  15.377  0.0899 -0.3861  0.1681
32335W        W47804   7.223   5.090   4.686 -0.0152 -0.1792 -0.1254
32336W        W47805   7.034  11.685   4.819  0.0927  0.0732 -0.3490
32337W        W47806   2.519   1.866  15.870  0.2650  0.1841  0.0580
32338W        W47807   4.170   0.232  11.626 -0.2081  0.1833 -0.0704
32339W        W47808   9.278   4.399   3.605  0.0231  0.2075 -0.1467
32340W        W47809   0.087  14.413  15.703  0.1600 -0.0177  0.1895
32341W        W47810   1.507   0.720   4.800 -0.1449  0.0168 -0.6581
32342W        W47811  17.965   1.214   3.007  0.1306 -0.1199  0.3718
32343W        W47812   5.744  12.912  13.188 -0.2612  0.0691 -0.0302
32344W        W47813   0.156   6.127  12.470  0.0901  0.1898 -0.1065
32345W        W47814  12.865  14.260   2.279  0.0937 -0.2266 -0.0916
32346W        W47815   3.392  10.953   3.665  0.2221  0.0411  0.0896
32347W        W47816  16.948  12.851  11.696 -0.0988 -0.2020  0.3392
32348W        W47817   2.213  13.452   5.574  0.0402 -0.0052  0.0896
32349W        W47818  15.329  15.410  12.113  0.0094  0.0306  0.0877
32350W        W47819   9.621   0.445  15.889 -0.1050  0.0379 -0.0876
32351W        W47820   9.428   4.604  14.763  0.1376  0.1189 -0.0233
32352W        W47821   8.469   9.905   5.435  0.1780 -0.0585 -0.2405
32353W        W47822  14.587  12.119  15.439  0.0135  0.0004 -0.0012
32354W        W47823  13.410   4.310   1.637  0.0833  0.0845 -0.0903
32355W        W47824  12.810  12.827  13.565 -0.2668 -0.1328  0.0877
32356W        W47825   8.474   1.579   5.236  0.1025 -0.1393  0.0466
32357W        W47826   7.884  17.492  16.053  0.0561  0.0426  0.2092
32358W        W47827   3.408   6.403  13.217 -0.4420 -0.1056  0.0928
32359W        W47828  13.868  18.084   1.708 -0.1029  0.2792 -0.0443
32360W        W47829  12.702  14.534   4.915  0.3565  0.2077  0.1644
32361W        W47830  13.612   1.992   4.984 -0.1698 -0.2615 -0.2111
32362W        W47831   3.860  10.658  15.341  0.0046  0.0737 -0.1729
32363W        W47832  15.076  18.119  15.633  0.0041  0.1420  0.2303
32364W        W47833  11.953   9.323  12.335 -0.0541  0.0517 -0.3112
32365W        W47834   6.762  15.855   3.293 -0.0798  0.0982  0.0311
32366W        W47835   4.704   1.110  12.369  0.0803  0.3091  0.1054
32367W        W47836  10.864   9.859  14.532 -0.2213  0.2564 -0.1303
32368W        W47837   3.674   4.921   4.302 -0.1356  0.0912 -0.0208
32369W        W47838  16.101   6.257   1.132  0.0815  0.2081  0.3120
32370W        W47839   9.402   2.931   4.082  0.0881 -0.2615  0.2710
32371W        W47840   1.166  16.122  11.202 -0.0585 -0.0683 -0.0229
32372W        W47841  12.394   5.091  12.180  0.0048  0.1206 -0.3908
32373W        W47842   1.621   5.080   1.032  0.1611  0.1484  0.0021
32374W        W47843  12.992  14.168   0.154  0.2337  0.0164  0.1343
32375W        W47844   2.943   2.956   0.741  0.0044 -0.1034 -0.2158
32376W        W47845   9.249   6.660  16.038 -0.2967  0.2035 -0.1602
32377W        W47846  10.928  16.674  14.461 -0.1893  0.2062 -0.0784
32378W        W47847   3.845   4.257   0.213  0.1032  0.0992 -0.0358
32379W        W47848  16.313   4.577   1.352  0.3194 -0.0104  0.0651
32380W        W47849  17.694   3.513  10.943  0.2215  0.1374 -0.2305
32381W        W47850   2.164   9.567   1.267  0.0269 -0.0939  0.1077
32382W        W47851   6.302  15.861   1.104 -0.1778 -0.0786  0.2306
32383W        W47852  12.360   3.162  11.186 -0.0650 -0.0409 -0.1466
32384W        W47853  12.631  10.998  10.861 -0.0771 -0.2324 -0.1029
32385W        W47854   9.785   8.970  15.579 -0.1782 -0.0745 -0.0332
32386W        W47855   0.045   7.334  14.022 -0.1002 -0.1161 -0.2396
32387W        W47856   2.556  16.499  12.939 -0.0569  0.0927  0.1166
32388W        W47857  17.136  15.561  10.824  0.0392  0.1235 -0.1099
32389W        W47858  10.720   0.623  14.266  0.0326  0.1674 -0.1967
32390W        W47859   8.825  17.244  10.939 -0.3803 -0.0572 -0.1649
32391W        W47860   7.561   3.438   5.726  0.0617 -0.1460  0.2967
32392W        W47861   5.912   4.693  11.699  0.2518 -0.1096 -0.3876
32393W        W47862   1.594  13.661  11.830  0.2720  0.0639  0.0809
32394W        W47863  12.032   2.112  12.837 -0.1303  0.0136  0.0102
32395W        W47864   1.273   5.667  10.888  0.0657  0.1523 -0.2813
32396W        W47865   0.757  12.801   0.182 -0.2528  0.0558  0.2574
32397W        W47866   9.267  11.343   3.919  0.1956 -0.1453  0.2375
32398W        W47867  15.121   1.901  13.125  0.0923 -0.0437  0.1127
32399W        W47868  15.760   3.726   3.563  0.0819 -0.1558  0.1564
32400W        W47869   0.307  13.062  15.546  0.0396 -0.2946 -0.1020
32401W        W47870  15.121   1.007  13.581  0.3596  0.1172 -0.1062
32402W        W47871   4.052   8.767  13.535  0.3791 -0.2139  0.3990
32403W        W47872  11.442   3.432  11.122  0.1294  0.1692 -0.3322
32404W        W47873   4.266  10.765   3.174  0.2765  0.3761  0.1696
32405W        W47874   6.142   6.908  15.269  0.1894 -0.0327  0.1090
32406W        W47875   8.034   5.780   3.410  0.0614  0.2010 -0.0114
32407W        W47876  11.122  12.936   1.890  0.0536 -0.1192 -0.0357
32408W        W47877  11.110   6.355   0.080  0.0509 -0.2307 -0.1841
32409W        W47878  12.434  17.389  15.862  0.1095  0.0198 -0.1836
32410W        W47879   9.508  16.594   2.020  0.0600 -0.3280  0.0209
32411W        W47880   6.725  12.560   0.777 -0.1470  0.1028  0.1991
32412W        W47881  15.402   5.830   0.676 -0.0572  0.1129  0.0221
32413W        W47882  15.128   6.674  13.003  0.1300  0.1848  0.0459
32414W        W47883   6.623   3.016   1.731 -0.1410  0.1590 -0.2108
32415W        W47884  15.664  10.976  13.257  0.1343  0.2777  0.1796
32416W        W47885  12.621  17.131   2.080  0.1058 -0.0057  0.1253
32417W        W47886   0.280   4.377   3.296  0.1503  0.3206 -0.3819
32418W        W47887   8.311  17.368  13.038 -0.1477 -0.0423  0.0871
32419W        W47888  11.378  11.836   0.528  0.0659  0.1279  0.0939
32420W        W47889   1.897   8.083   4.535 -0.2873  0.1533  0.0023
32421W        W47890  12.703   1.715   1.278 -0.4135  0.0701 -0.0982
32422W        W47891   0.089   7.611  14.862 -0.0267 -0.0603 -0.3046
32423W        W47892  13.446  14.947   0.182  0.1365  0.1143  0.2680
32424W        W47893   1.288  15.217  12.230 -0.1377  0.0034 -0.1031
32425W        W47894   6.206  17.887  13.758 -0.3504  0.3320 -0.1322
32426W        W47895   4.351   7.477  12.647 -0.3109 -0.0538  0.1160
32427W        W47896   1.394   1.032   3.788 -0.1363 -0.0670 -0.1368
32428W        W47897   0.998  14.149   3.231  0.0659 -0.1660  0.1123
32429W        W47898   7.704   6.196  11.840  0.0262  0.2150 -0.2580
32430W        W47899   7.278  15.058   1.267  0.2598  0.3987  0.0881
32431W        W47900   7.510  15.971   1.449  0.1526 -0.0795  0.1403
32432W        W47901   9.202  13.820   3.275 -0.0672 -0.1664 -0.1970
32433W        W47902  14.342   3.165  12.765 -0.4184  0.5061  0.4881
32434W        W47903  14.720   4.592   2.797  0.2520  0.1537  0.2327
32435W        W47904  11.640   1.049  12.933 -0.0425 -0.0628  0.0856
32436W        W47905   4.772   2.882  15.924  0.2211  0.1353  0.4954
32437W        W47906   5.855   4.691   5.413 -0.0312  0.0386 -0.0600
32438W        W47907  14.743   0.854  12.898 -0.3762  0.1874  0.1835
32439W        W47908  12.304  17.833   2.398  0.1470 -0.1390  0.0577
32440W        W47909  18.085   3.537   3.403  0.0857  0.2749  0.2854
32441W        W47910   9.012   0.858   2.069  0.1821  0.1927  0.0150
32442W        W47911  17.354   4.939  14.192  0.2531  0.0949  0.2263
32443W        W47912   7.209  12.475   2.798  0.1670  0.2099 -0.0239
32444W        W47913  18.188   7.016  16.099  0.1675 -0.2798  0.0863
32445W        W47914  13.319   3.672  15.747  0.1543 -0.0715 -0.1114
32446W        W47915   4.511   7.014  13.353  0.2943  0.1143 -0.0804
32447W        W47916  11.458   4.002   4.801  0.4606  0.0921 -0.0485
32448W        W47917   8.126  14.489   5.091 -0.4428 -0.0502  0.0516
32449W        W47918   4.138   3.510  13.528 -0.1089 -0.1275 -0.0294
32450W        W47919   9.544  15.637  13.979 -0.1506 -0.2405 -0.1227
32451W        W47920   0.948   3.441   0.392 -0.0981 -0.0289  0.1632
32452W        W47921   8.800   1.337   0.202  0.0736 -0.1279  0.1815
32453W        W47922  14.325   8.143  14.973  0.0616  0.1621  0.3504
32454W        W47923   3.043  11.286  15.510  0.0691  0.1111 -0.3401
32455W        W47924  15.116  10.322  14.885  0.0433 -0.1293 -0.1916
32456W        W47925  12.567   5.113   3.824  0.0007  0.5145 -0.0912
32457W        W47926  10.425  18.031  13.552 -0.0339  0.2899  0.1760
32458W        W47927   4.793   2.162  15.134 -0.0314  0.3116 -0.0849
32459W        W47928  17.238   7.114  15.438  0.0047  0.1374 -0.1036
32460W        W47929   0.772   4.667  15.794 -0.1354  0.0919 -0.3697
32461W        W47930  15.665   0.441   5.055  0.1058  0.0953  0.0416
32462W        W47931  11.461   2.335  13.340  0.1607  0.0410 -0.0684
32463W        W47932  12.155   7.781  13.129 -0.0494  0.1766 -0.2856
32464W        W47933   9.334   6.993   1.328  0.2521  0.0474 -0.2860
32465W        W47934  16.541   7.126  12.175 -0.1581 -0.1614  0.1417
32466W        W47935  13.392  15.205   3.677  0.1186 -0.3370  0.0993
32467W        W47936   7.253  13.240  11.676 -0.0660  0.2149  0.0805
32468W        W47937   8.100  13.765   2.444  0.4094  0.1935 -0.0113
32469W        W47938   6.679   9.335  13.030  0.2702 -0.0707 -0.0334
32470W        W47939   2.206   4.670   0.501  0.0190  0.0160 -0.0222
32471W        W47940   1.347  11.092  14.542 -0.2006  0.1448 -0.0767
32472W        W47941   1.713  10.528   1.105  0.2685 -0.1110 -0.1630
32473W        W47942   9.686  10.819  11.962 -0.3875 -0.2909 -0.3174
32474W        W47943  11.890  14.206  13.621 -0.3531  0.2229  0.0487
32475W        W47944  14.591   8.077  10.811  0.1769  0.0236  0.4924
32476W        W47945   5.043   5.112   1.497 -0.2053 -0.0420  0.0359
32477W        W47946  12.994  10.149  11.479  0.0985 -0.0212 -0.2089
32478W        W47947  13.028  17.522  13.519  0.0068 -0.2183 -0.0481
32479W        W47948   2.679  11.122   4.856  0.0202 -0.2234  0.0436
32480W        W47949  18.015  16.186   2.204  0.0427 -0.2607 -0.1126
32481W        W47950  13.357   9.583   3.036 -0.1074 -0.0882 -0.2275
32482W        W47951  11.119   0.411   2.753 -0.1831  0.0509  0.2758
32483W        W47952  10.079   8.234  14.559 -0.1425  0.1146 -0.1315
32484W        W47953  12.441  12.407   3.450  0.1471  0.0795 -0.1879
32485W        W47954  14.283  13.979  13.616  0.1887 -0.0267  0.2013
32486W        W47955   5.423   0.474  12.160 -0.0460 -0.3809  0.4280
32487W        W47956  16.114  17.941  13.128 -0.0028 -0.2639  0.2684
32488W        W47957  12.732  13.209  10.673 -0.3638  0.0981  0.2513
32489W        W47958  12.530  13.000   2.944  0.0425 -0.3019  0.0981
32490W        W47959  10.327   1.451   1.801 -0.1069  0.3517  0.2426
32491W        W47960   3.940   2.529  15.424 -0.2723 -0.1788 -0.0718
32492W        W47961   0.122  13.044  12.897  0.2960 -0.1124  0.1040
32493W        W47962  14.228   4.690  11.328 -0.1042  0.0723  0.0338
32494W        W47963   7.024   3.021  14.576 -0.0803 -0.0171 -0.0163
32495W        W47964  12.328   9.455  15.814  0.2578 -0.0259  0.0854
32496W        W47965  12.954   0.422  12.479 -0.2228 -0.1707  0.1465
32497W        W47966   1.296   1.369   4.156  0.2178  0.2093  0.0726
32498W        W47967  16.251  12.963   5.800 -0.1841  0.0919  0.2530
32499W        W47968   8.747  13.311   0.409  0.1111 -0.1525  0.0950
32500W        W47969  17.478   2.726  15.948  0.0763  0.0002  0.0814
32501W        W47970   0.115   7.943  15.746  0.0963  0.0533  0.0719
32502W        W47971  13.838   0.261   2.534  0.0495 -0.0859 -0.2362
32503W        W47972  11.113  12.488  11.946 -0.0903 -0.0770  0.0741
32504W        W47973   9.174  14.764   4.191 -0.1001  0.2114  0.0078
32505W        W47974   7.099   6.543   0.332  0.2805  0.0208 -0.0841
32506W        W47975   8.762  14.775  14.190 -0.3246 -0.0662  0.0830
32507W        W47976   6.150  10.202   2.916 -0.0347  0.1142 -0.1853
32508W        W47977  10.038   3.694  12.440 -0.0827  0.4415  0.0435
32509W        W47978  11.603   4.185   3.521 -0.0557  0.0746  0.1096
32510W        W47979  15.939  15.435   5.061 -0.1579  0.0815  0.1988
32511W        W47980   6.093   7.955   1.610 -0.0064  0.1724  0.2905
32512W        W47981  11.716   6.288   1.938  0.2248  0.0429 -0.0868
32513W        W47982  17.505   0.698   3.079  0.0337 -0.0703  0.0605
32514W        W47983  12.028   4.418   3.272 -0.1483  0.0588  0.1985
32515W        W47984   2.310   3.731  12.118 -0.2211  0.3425 -0.0161
32516W        W47985   1.033   6.406   2.794 -0.0257  0.1065  0.0619
32517W        W47986  16.301   2.554  11.229 -0.1091  0.0213  0.1784
32518W        W47987   0.554   7.619   0.054  0.0671  0.0217  0.3784
32519W        W47988   9.605  17.841   1.956  0.0364 -0.1514 -0.0440
32520W        W47989  12.075  12.180   5.165 -0.1105 -0.0870 -0.0784
32521W        W47990  11.910  10.495  12.370 -0.1594  0.1300 -0.1985
32522W        W47991  12.347   7.887   1.911  0.3128  0.4838  0.0688
32523W        W47992  11.494  10.938  13.617 -0.0077  0.1680 -0.0375
32524W        W47993   5.319  16.809   2.917  0.2353  0.1319 -0.1718
32525W        W47994   7.164   0.937  12.957 -0.2134 -0.0648  0.0743
32526W        W47995   6.481   3.034   2.382  0.1703  0.0903  0.3662
32527W        W47996  14.905   3.796  15.727  0.0876 -0.1034  0.2581
32528W        W47997  13.901  11.702  12.753 -0.3004 -0.2140 -0.0593
32529W        W47998  17.663   3.016   1.220 -0.0966  0.1134  0.2817
32530W        W47999   0.337   5.271   4.308 -0.0054  0.3160 -0.0287
32531W        W48000   8.142  13.544   9.552  0.3499 -0.0729 -0.2059
32532W        W48001  15.079  12.002  15.248  0.1680 -0.0250 -0.1471
32533W        W48002  12.699   1.400  11.969  0.0331  0.0266 -0.2130
32534W        W48003  12.290   9.809   4.615  0.1887 -0.1543 -0.2443
32535W        W48004  15.872  17.046   4.121  0.0002  0.1726 -0.0507
32536W        W48005  16.248   5.685   1.104 -0.2749  0.1016 -0.3102
32537W        W48006  13.096   1.857  15.751  0.0834 -0.3471  0.1051
32538W        W48007   1.693  17.490   2.510  0.0385  0.0076  0.1447
32539W        W48008   8.511  15.637  13.042 -0.0424  0.0517  0.2543
32540W        W48009  14.494   8.107  11.560 -0.4324  0.0010 -0.1399
32541W        W48010   7.542   0.551   2.969 -0.0877 -0.1696  0.0096
32542W        W48011   8.331   4.358   0.914 -0.1561 -0.0418  0.0707
32543W        W48012   1.255  13.767   5.396  0.0282  0.0314  0.0211
32544W        W48013   9.694   9.966   4.214 -0.0910 -0.2102  0.2261
32545W        W48014  17.666   1.997  15.331  0.0328  0.0401 -0.2889
32546W        W48015  13.014   4.273   3.161  0.0205  0.0284  0.0531
32547W        W48016   6.393  10.352   4.704  0.0711 -0.2435  0.0479
32548W        W48017   4.761   7.744   3.104  0.0416  0.0492 -0.4356
32549W        W48018  11.810   4.457   0.894 -0.0784 -0.3385  0.1539
32550W        W48019  16.398  11.709   2.418  0.1138 -0.0206 -0.3223
32551W        W48020   7.601  15.106   4.152 -0.0785 -0.2735 -0.0432
32552W        W48021   3.056   0.672  10.863 -0.0368 -0.0283  0.0254
32553W        W48022   6.629  15.311   3.960 -0.3277  0.3847  0.1144
32554W        W48023   0.998   1.442  15.101 -0.2656  0.1252  0.0749
32555W        W48024   2.152  13.160  14.837 -0.0954 -0.0584  0.2185
32556W        W48025  11.359  11.803  10.935  0.0218  0.0191 -0.0884
32557W        W48026   6.739   8.957  15.257  0.1195 -0.1426 -0.0997
32558W        W48027   0.513   0.027  11.362 -0.0453  0.0954 -0.2264
32559W        W48028   7.250   6.445   1.748  0.3285 -0.1715 -0.1198
32560W        W48029   9.651  12.736  15.617  0.2263 -0.1147  0.3987
32561W        W48030  11.296  12.506   5.050 -0.0367  0.0931 -0.0679
32562W        W48031   4.567  15.862  12.110  0.2414  0.0560 -0.2894
32563W        W48032   3.811  12.684   3.864 -0.1792  0.2273  0.1214
32564W        W48033   3.442  16.316   4.030  0.2094 -0.0338  0.2954
32565W        W48034   5.057  12.036   4.294 -0.0474  0.0148  0.2981
32566W        W48035  11.349   0.141  15.995  0.0494  0.3362  0.1131
32567W        W48036  10.332   9.426  13.119  0.0471 -0.2243  0.0068
32568W        W48037   7.867  14.889  10.645 -0.0729  0.1071  0.0609
32569W        W48038  14.344  10.944  13.992  0.0955  0.1274  0.1609
32570W        W48039   9.671   4.224   3.421 -0.1023  0.2977 -0.0651
32571W        W48040   8.193   3.523  13.920 -0.0382  0.0704 -0.0231
32572W        W48041   1.885   6.942  12.411 -0.0822  0.0845  0.0749
32573W        W48042  18.230   5.330   0.883 -0.3114 -0.0368 -0.0463
32574W        W48043  14.771   4.631  15.290 -0.0652  0.2447  0.2188
32575W        W48044  13.770   7.667   3.144 -0.3072 -0.1239 -0.0148
32576W        W48045  11.276  16.371   1.405 -0.3736  0.0233 -0.3122
32577W        W48046   7.427   7.674  14.691  0.2007 -0.1842  0.0016
32578W        W48047   2.332  10.027  11.662  0.1224 -0.0645 -0.0183
32579W        W48048  18.120  11.146  13.118  0.0979 -0.2975  0.3671
32580W        W48049   0.444  11.392  12.109 -0.2269  0.2048 -0.1541
32581W        W48050   1.330   1.461  11.423 -0.2573  0.2741  0.0083
32582W        W48051  10.921   0.761  15.535  0.2914 -0.2577 -0.3611
32583W        W48052  10.019   9.407  15.628  0.0479 -0.1700 -0.1996
32584W        W48053  12.195   8.662  15.853  0.0615 -0.1117  0.1038
32585W        W48054   1.744  12.714   5.362 -0.0600  0.1279  0.1896
32586W        W48055   9.207  12.214  14.162  0.2718  0.1588  0.0654
32587W        W48056  11.256  14.795   5.160 -0.0373 -0.1661  0.0412
32588W        W48057  10.496  15.903  15.843 -0.4501  0.4109 -0.0833
32589W        W48058   0.881  10.689  13.924  0.0094  0.1208 -0.4443
32590W        W48059  18.129  13.521  10.803 -0.0428 -0.1785  0.2156
32591W        W48060   5.658   3.409   6.286  0.0167 -0.0091  0.1804
32592W        W48061  13.363   8.217  13.753 -0.0260 -0.2973 -0.0018
32593W        W48062   2.383   0.006   4.714  0.3516 -0.1061 -0.1940
32594W        W48063  16.505   9.583  15.155  0.0935 -0.0727  0.0313
32595W        W48064   8.509   5.686  13.839  0.0809  0.0093  0.1591
32596W        W48065  14.455   8.900  11.214 -0.0115 -0.4282  0.1524
32597W        W48066   5.670   8.568  13.930  0.0142  0.1645  0.2499
32598W        W48067  16.604   3.739   9.819  0.6003 -0.0769 -0.1516
32599W        W48068   2.829   8.239   2.423  0.0225  0.0275 -0.1963
32600W        W48069   9.412   0.537  14.980  0.1207 -0.0086 -0.1000
32601W        W48070  12.222  14.651   4.219 -0.3357  0.0186  0.0433
32602W        W48071  17.772  16.545  15.633 -0.1072 -0.3567 -0.0761
32603W        W48072   8.108   6.107  15.385  0.2778  0.0935  0.0971
32604W        W48073  17.137  12.989   4.129  0.1820  0.1320  0.0956
32605W        W48074  11.856  16.161  14.598 -0.3179 -0.2201 -0.1424
32606W        W48075  13.613  10.237   2.314  0.0730 -0.1461  0.2822
32607W        W48076   7.752   8.516  12.638  0.0114  0.0873  0.1856
32608W        W48077   9.131   0.610  13.982  0.0071  0.1911 -0.2194
32609W        W48078  17.945  10.426  12.427  0.2184 -0.0116 -0.1497
32610W        W48079  13.794  12.113   0.380  0.1716 -0.0035 -0.0069
32611W        W48080   3.939   9.647  14.640  0.0934  0.0301 -0.0619
32612W        W48081   8.368  17.856  13.870  0.0296 -0.0643  0.1878
32613W        W48082   8.103   1.375   5.576  0.0220 -0.0296  0.1766
32614W        W48083   6.175  12.972  11.760  0.1405  0.1360  0.1293
32615W        W48084  11.262  10.991   4.463 -0.1483  0.1055 -0.3364
32616W        W48085   8.853  18.278   0.929  0.3143  0.0151  0.0050
32617W        W48086   5.222   6.375   1.686  0.4656  0.2585 -0.1354
32618W        W48087  13.564   9.679  14.495  0.2979 -0.3197  0.2017
32619W        W48088   0.247   7.307  11.407 -0.1606 -0.2648 -0.1752
32620W        W48089   8.773   9.233   4.728 -0.1723  0.3986 -0.2869
32621W        W48090  10.830   2.165  15.312  0.0619  0.1180 -0.2105
32622W        W48091   1.412  15.698   2.272  0.1654 -0.1958 -0.0518
32623W        W48092   6.633  17.495  13.804 -0.0298  0.1854  0.2726
32624W        W48093  11.161  10.009   1.687 -0.2014  0.0583 -0.0568
32625W        W48094   3.356  13.451  15.800 -0.0333 -0.0228  0.2745
32626W        W48095   8.465   9.087   3.888 -0.3987  0.0781 -0.0050
32627W        W48096   1.706   7.498  14.136 -0.0512 -0.0214  0.0136
32628W        W48097  11.127   5.577  14.509  0.2286 -0.2863 -0.0722
32629W        W48098  12.117  15.887   3.013  0.0419  0.2771  0.1582
32630W        W48099   7.031   1.422  15.537 -0.0039 -0.1065  0.1493
32631W        W48100   5.973   9.948  12.333 -0.2129  0.1332 -0.1085
32632W        W48101  14.363   5.466   3.477 -0.2991 -0.4906 -0.1354
32633W        W48102   7.907   5.377   1.615  0.1884  0.0729 -0.1367
32634W        W48103   1.031   2.864   5.069  0.0368  0.1466  0.1918
32635W        W48104  18.188   0.516  12.860  0.2668 -0.1413  0.1786
32636W        W48105  17.613  15.286   2.263 -0.2433  0.1105 -0.0023
32637W        W48106  13.914   6.016  14.729 -0.2083  0.0690 -0.0732
32638W        W48107   7.269  16.091   1.032  0.1427 -0.1174  0.1874
32639W        W48108   0.152   4.438   3.836 -0.1082 -0.2626 -0.1555
32640W        W48109  13.843  14.809  13.442  0.0092  0.0405 -0.2997
32641W        W48110   6.083   1.365   3.639 -0.1280 -0.1052  0.4038
32642W        W48111   3.431   0.223  12.141 -0.2642  0.1474 -0.1985
32643W        W48112  16.257   0.753   5.246  0.0345 -0.1685  0.1230
32644W        W48113  15.643   8.895  12.925  0.0852  0.0206 -0.1095
32645W        W48114  14.732  12.130   1.193  0.1639  0.1604  0.0170
32646W        W48115   9.268   0.720   1.620  0.0279  0.2872 -0.3025
32647W        W48116   4.433  10.475  12.059 -0.3875 -0.0071  0.0339
32648W        W48117   4.346   5.046   4.609 -0.0784  0.1352  0.0522
32649W        W48118  15.415  14.193   3.796 -0.2808  0.4247 -0.2103
32650W        W48119   4.209  13.169  14.986 -0.1755  0.2249  0.0710
32651W        W48120   1.474   4.503   3.518  0.3289 -0.1897 -0.1064
32652W        W48121   1.302   0.456   2.368  0.1242  0.1486 -0.1449
32653W        W48122   2.135  10.711   4.595  0.0329 -0.0768  0.3296
32654W        W48123   3.478  16.383  11.730 -0.1392 -0.0896 -0.2023
32655W        W48124   5.618  15.164   3.090  0.1183  0.2396  0.1192
32656W        W48125   5.350  12.247   3.608  0.3244 -0.1903  0.0305
32657W        W48126  17.938  16.300   0.826  0.1215 -0.1671  0.0637
32658W        W48127   6.647   0.970   0.618 -0.0073 -0.0697  0.0006
32659W        W48128  11.563  10.040   3.412  0.1233 -0.0156  0.2000
32660W        W48129   1.659  13.509  15.515  0.5284  0.0062 -0.2098
32661W        W48130  17.786   0.010  12.775 -0.2291 -0.0255 -0.1840
32662W        W48131   4.903  10.498  14.170 -0.1536  0.0635 -0.2102
32663W        W48132  13.775   1.733  13.611  0.1917  0.0157 -0.3930
32664W        W48133   6.733   1.858  11.759  0.3327 -0.3526 -0.1682
32665W        W48134   0.725   3.955   0.260  0.1654  0.2642 -0.1500
32666W        W48135  16.789   8.910  14.015  0.1335 -0.1321 -0.2602
32667W        W48136   2.081  11.251  10.889  0.0477 -0.1259 -0.2058
32668W        W48137  14.362   8.588  11.640 -0.1372  0.0716  0.1134
32669W        W48138   3.792  12.239  11.173 -0.0151  0.0372  0.2576
32670W        W48139  18.071   1.419  12.736 -0.0820 -0.3058  0.0170
32671W        W48140   9.267  10.079   2.747 -0.2735 -0.0769  0.0332
32672W        W48141   8.605  11.098   3.565  0.1066 -0.1458 -0.0373
32673W        W48142  13.109   6.132  13.508 -0.0038 -0.3205  0.1163
32674W        W48143   1.119  15.613   1.536 -0.4184 -0.3567 -0.0515
32675W        W48144  16.326  15.706   2.625 -0.0796 -0.1310  0.2156
32676W        W48145   8.082   8.097  11.984  0.0681  0.1322  0.0442
32677W        W48146  11.403   7.278  11.511 -0.1203 -0.1378 -0.0845
32678W        W48147   5.014   2.312   4.673 -0.1348 -0.2135 -0.2413
32679W        W48148  14.968   1.326  13.280  0.2270 -0.0129  0.0694
32680W        W48149  17.875   4.108  12.352 -0.2758  0.1269  0.2216
32681W        W48150  15.432  15.287  10.189  0.2225 -0.0730  0.0093
32682W        W48151  10.894  15.558  14.124 -0.0145 -0.0875 -0.1452
32683W        W48152   5.755   4.320   1.607  0.0500  0.2125 -0.1516
32684W        W48153   4.257  11.188   3.474  0.1886 -0.1792 -0.4572
32685W        W48154   6.942   1.783  15.882 -0.2307  0.3058  0.1118
32686W        W48155   2.141   3.663   1.931  0.0425  0.5181  0.0802
32687W        W48156   3.584   2.099  12.996 -0.1892  0.0194 -0.1763
32688W        W48157  15.860  14.522  12.612 -0.2834 -0.1007  0.2286
32689W        W48158   2.630  12.902   2.053  0.1774 -0.1113 -0.3041
32690W        W48159   4.257  14.377  11.464  0.0675  0.0292  0.1004
32691W        W48160   8.299   9.411   0.743 -0.1498 -0.1023 -0.1299
32692W        W48161   2.896   7.045   5.130 -0.3183  0.3145 -0.0190
32693W        W48162   0.118  18.231  12.213  0.0874  0.0081  0.1595
32694W        W48163  12.957  15.928  13.115  0.0084  0.1870 -0.1461
32695W        W48164  13.007  13.068  11.040  0.0188 -0.0712  0.1117
32696W        W48165   4.275   7.860   0.175  0.1187  0.2828 -0.0928
32697W        W48166  13.274   2.350  12.071 -0.1594  0.0095  0.1085
32698W        W48167  10.429   6.007  15.845  0.1856  0.1221  0.1503
32699W        W48168  16.698  16.956  13.894  0.0748  0.2159  0.2502
32700W        W48169   6.722   2.173   1.375 -0.0022  0.3597  0.1222
32701W        W48170   4.582  10.356  12.667  0.1387  0.1615 -0.0345
32702W        W48171   9.012   0.321  11.488 -0.0466  0.2994 -0.0127
32703W        W48172  15.391  11.636   1.092 -0.0236  0.3459 -0.2976
32704W        W48173  17.394  16.295   3.550 -0.0973 -0.0788 -0.0812
32705W        W48174   1.283  17.704   0.075 -0.0738  0.2159 -0.2530
32706W        W48175   4.125   8.550  12.654 -0.0539  0.0854  0.1003
32707W        W48176  17.805   9.599   1.844 -0.0268  0.1538 -0.3337
32708W        W48177  14.702   6.281  11.671 -0.2973  0.0434 -0.0026
32709W        W48178   3.542   7.864  11.118  0.1470 -0.0491  0.0357
32710W        W48179   8.847  12.785  13.810 -0.0821 -0.1571 -0.1887
32711W        W48180   0.787   0.008  13.241  0.0893 -0.2262 -0.1589
32712W        W48181   1.053  15.162   3.638  0.1309  0.1738 -0.0221
32713W        W48182   0.311  10.986   3.890 -0.1696  0.1660  0.1532
32714W        W48183  11.469   6.838  14.301  0.0231 -0.0379 -0.1202
32715W        W48184  12.817  13.456  12.345 -0.0610  0.3813  0.0560
32716W        W48185  10.058   8.872   2.677 -0.1041  0.2601 -0.0121
32717W        W48186   5.925   5.571  11.351  0.0347  0.1240 -0.0811
32718W        W48187  14.707   0.094   3.048  0.3467  0.1642  0.0009
32719W        W48188  11.564   3.814   1.245  0.2350 -0.2716 -0.1311
32720W        W48189  11.975   6.676   9.786  0.0123 -0.5515 -0.1142
32721W        W48190  14.748   2.842   2.423  0.0727  0.1957  0.0128
32722W        W48191   4.826  15.557  13.646 -0.3908  0.0917  0.1636
32723W        W48192  12.736   5.219  13.287  0.1994  0.1756  0.0885
32724W        W48193  15.648   7.431   3.516  0.2124  0.2971 -0.0156
32725W        W48194  17.086  16.561   1.279  0.0287  0.0681 -0.1642
32726W        W48195   9.800  12.119  14.329 -0.3656 -0.0837  0.0330
32727W        W48196   4.789  16.081  13.694  0.3394  0.0054  0.1584
32728W        W48197  16.764   7.431   0.936  0.0194 -0.2402 -0.1470
32729W        W48198  13.331   6.216  12.008 -0.0450 -0.3298  0.0377
32730W        W48199  15.550  17.213   2.627  0.0227 -0.0175 -0.1332
32731W        W48200  16.682   9.255  15.637  0.2248 -0.0340  0.0363
32732W        W48201  16.894   8.852  15.912  0.1288 -0.1660  0.1687
32733W        W48202   5.423   9.002  11.529  0.2233 -0.2218 -0.2655
32734W        W48203   5.028   0.413   5.012  0.3234  0.0368 -0.5148
32735W        W48204  12.673   0.997   3.997 -0.0634 -0.1123  0.0843
32736W        W48205   6.331   7.271   3.024 -0.0888  0.0711  0.0368
32737W        W48206  17.753   6.468   5.773  0.1825  0.2497 -0.1212
32738W        W48207   9.801   4.995  11.546  0.1145 -0.1054  0.0208
32739W        W48208  16.920   9.853   5.007 -0.3218 -0.1265 -0.0928
32740W        W48209   7.694   3.088  15.995  0.0806  0.0990  0.0225
32741W        W48210   1.143   4.256  14.007  0.0517 -0.1358 -0.3943
32742W        W48211   3.094   8.314   4.641  0.2562  0.0368  0.1037
32743W        W48212   4.281  14.681  15.734  0.1227 -0.1620 -0.1850
32744W        W48213   8.417  16.954  10.945 -0.3453 -0.0870 -0.0571
32745W        W48214  11.447  16.245   0.974 -0.1761 -0.0234 -0.2128
32746W        W48215   1.358  12.988  13.343 -0.3242  0.1539  0.0521
32747W        W48216  11.344  16.172   5.445  0.1815  0.0623  0.5588
32748W        W48217   5.843   8.156  11.552 -0.0167 -0.0904  0.0514
32749W        W48218  16.093  14.740  13.896  0.1620  0.0830 -0.0059
32750W        W48219   2.973  10.627  11.354 -0.0641  0.0864 -0.3672
32751W        W48220   4.774   5.298  13.710 -0.4057 -0.1002 -0.0666
32752W        W48221   3.004  14.559  12.466 -0.1725  0.0525 -0.2370
32753W        W48222  11.076  15.440  13.338 -0.3148 -0.0572  0.1404
32754W        W48223  15.792   5.621  11.831  0.1119 -0.0319 -0.1429
32755W        W48224  10.085  12.413   3.872 -0.0381  0.1652  0.0659
32756W        W48225   7.696  15.422  14.705 -0.0033 -0.0022  0.5521
32757W        W48226  14.605   7.295   1.477 -0.4215  0.1186 -0.3243
32758W        W48227   7.922  13.692  12.794  0.1144  0.0968 -0.4582
32759W        W48228   2.855  12.258  15.305 -0.0235 -0.1039 -0.0624
32760W        W48229   0.380   5.281   0.791 -0.3271  0.0425 -0.0085
32761W        W48230   1.191   8.420  11.160 -0.0625 -0.0801 -0.2419
32762W        W48231   5.336   9.226   1.366  0.2051  0.2233  0.0882
32763W        W48232  10.965  13.462   3.534 -0.0744  0.0295 -0.0485
32764W        W48233   6.108  11.791   5.588 -0.0942 -0.3856  0.0913
32765W        W48234   4.572   4.904   5.045  0.2545  0.2273  0.0197
32766W        W48235   1.184  14.356   5.758  0.2396 -0.0801 -0.0773
32767W        W48236   0.979   8.347  11.601 -0.0771 -0.0139  0.0731
32768W        W48237   0.104   2.414  16.022  0.1055 -0.0806  0.1425
32769W        W48238   2.520   0.502  13.965  0.0773 -0.0638 -0.1793
32770W        W48239   8.564   0.791  10.921 -0.1521  0.2014 -0.0064
32771W        W48240   4.162  15.586   0.499  0.0315 -0.0003  0.1166
32772W        W48241  11.371   4.714   2.278 -0.1311  0.3590 -0.2114
32773W        W48242  12.201  16.257  13.494  0.0432  0.0201  0.1602
32774W        W48243  11.359  13.686  14.805 -0.0407 -0.1022 -0.0478
32775W        W48244   2.215   9.100  12.301  0.1884 -0.2125 -0.0426
32776W        W48245  15.296  17.343  12.678  0.1037 -0.0622  0.5360
32777W        W48246  17.439   4.717  15.858 -0.0970  0.3336  0.0540
32778W        W48247   3.098  14.561   3.589  0.0316  0.2083  0.0513
32779W        W48248   9.375  14.466  10.858 -0.0101 -0.1618 -0.0225
32780W        W48249  17.222   0.335   2.845  0.0847 -0.0090 -0.0313
32781W        W48250   1.225   0.740   0.112 -0.0446  0.2068 -0.1744
32782W        W48251   7.279   6.695  11.725 -0.2893  0.2536  0.2203
32783W        W48252   7.713   0.146  15.275  0.0891 -0.0418 -0.0405
32784W        W48253   5.797  16.440   5.148 -0.0033 -0.0049 -0.0308
32785W        W48254   4.702  16.741   3.413 -0.1713  0.1767  0.0702
32786W        W48255   1.061  11.926   2.555 -0.1757 -0.1080  0.2015
32787W        W48256  11.726  11.897  10.574 -0.1268 -0.0024  0.0117
32788W        W48257   4.543  13.160  12.499 -0.2105  0.1112  0.1691
32789W        W48258   5.807   0.822   1.786 -0.0251 -0.1508  0.3092
32790W        W48259  15.886   0.841   0.993 -0.0629 -0.0205  0.1332
32791W        W48260   2.615  16.320   5.595 -0.1079 -0.1769 -0.0119
32792W        W48261  14.437  11.817   3.582 -0.0058 -0.0171 -0.0213
32793W        W48262  11.982  15.542   3.346  0.1700  0.1005  0.1595
32794W        W48263  11.289   2.390  15.321  0.0435  0.3835  0.2679
32795W        W48264   9.426   4.121   0.225 -0.2129 -0.2716  0.0448
32796W        W48265   1.930  10.269  13.673 -0.1555  0.3826 -0.0985
32797W        W48266  14.863  15.475   5.893 -0.2355  0.1529  0.0643
32798W        W48267  17.863  10.670  13.496  0.0398  0.1496 -0.1693
32799W        W48268   7.684  15.302  11.370 -0.2912 -0.1994  0.2223
32800W        W48269   1.820  13.260  14.178 -0.0074  0.1522  0.0918
32801W        W48270  16.238  14.322   0.909  0.1043  0.1673 -0.0811
32802W        W48271   5.525  15.279   2.540  0.1601 -0.1437 -0.0061
32803W        W48272   4.303  10.020  11.190 -0.1797  0.1735 -0.3505
32804W        W48273  14.162  18.185   6.583 -0.1495  0.1073  0.0434
32805W        W48274   4.915   0.969  15.720  0.0055 -0.0556  0.2470
32806W        W48275  11.798  14.810   2.713 -0.1686 -0.0933 -0.1524
32807W        W48276  16.570  18.144  12.357  0.0159  0.0930  0.0892
32808W        W48277  13.907   5.240  13.282 -0.0185 -0.2172  0.1275
32809W        W48278   0.018   7.677   5.976 -0.1367 -0.0022  0.0974
32810W        W48279   8.253   6.819   1.354 -0.0775  0.2773 -0.0203
32811W        W48280   0.299  11.801   0.087  0.0265 -0.2096 -0.2680
32812W        W48281   0.667   2.335   2.351  0.2866  0.2478  0.0110
32813W        W48282  17.555  15.371  10.019  0.1719  0.0717 -0.0845
32814W        W48283  16.118  15.578  11.457 -0.1379  0.2046 -0.1326
32815W        W48284  11.028  14.549  13.605  0.1145  0.2033  0.3671
32816W        W48285   5.672   8.705   5.344 -0.3080  0.2710  0.0394
32817W        W48286   5.241   3.728  13.384 -0.0319  0.1697 -0.0565
32818W        W48287   2.226  12.984   5.429  0.1503  0.0181  0.1092
32819W        W48288   3.174   9.070   1.153 -0.1267  0.4114 -0.1561
32820W        W48289   9.519  11.530   5.139  0.0658 -0.1932  0.1164
32821W        W48290   8.550   2.072  10.874 -0.1215  0.0289  0.1672
32822W        W48291   2.807  10.813  11.885  0.0894  0.4084 -0.1598
32823W        W48292   8.872  17.525  12.178 -0.1136  0.1987  0.2273
32824W        W48293   5.696  11.347  10.485  0.0682 -0.1928 -0.2863
32825W        W48294  16.810   7.288   3.888 -0.2888  0.1778 -0.0213
32826W        W48295  14.016  12.897   1.219 -0.0919 -0.0535 -0.0834
32827W        W48296  15.113   5.015  11.283  0.0744 -0.1115 -0.0024
32828W        W48297  14.429  16.318  13.997  0.3185 -0.2270  0.2699
32829W        W48298   4.292  12.318   3.966  0.2801  0.0541 -0.0327
32830W        W48299   4.307  13.593   1.243  0.3402  0.0302  0.1750
32831W        W48300   9.539   1.882  14.076 -0.0694  0.1878 -0.2897
32832W        W48301   3.594  17.675   4.828 -0.0603  0.0324  0.1912
32833W        W48302  16.132   1.946   4.662 -0.0255  0.2184 -0.1802
32834W        W48303  16.038  17.629   0.991  0.2057  0.1574 -0.0125
32835W        W48304  15.311  12.822  14.114 -0.2951 -0.1712  0.1769
32836W        W48305  13.673   1.776   0.563  0.4118  0.0613  0.3418
32837W        W48306  17.293   4.179   4.873 -0.2629  0.2411 -0.1508
32838W        W48307  16.006   1.116  13.061 -0.1793  0.0171 -0.3837
32839W        W48308   9.527   4.253  11.493 -0.2376 -0.1836 -0.2055
32840W        W48309  10.146  14.227  11.884 -0.2401 -0.3113 -0.0693
32841W        W48310  16.764   2.541   5.022  0.0204 -0.3769  0.0150
32842W        W48311   4.654  14.418   4.293 -0.4098  0.1781  0.0028
32843W        W48312  17.450   9.861   5.090  0.0868 -0.0294  0.0695
32844W        W48313   4.983   7.105   0.181 -0.0180  0.0301  0.3139
32845W        W48314   0.094  11.681  11.869 -0.2391 -0.4164 -0.2508
32846W        W48315   8.989   4.313  16.166  0.1604 -0.2177 -0.1958
32847W        W48316  17.434   7.315  12.447  0.0754 -0.0898 -0.1028
32848W        W48317  16.221   4.157   1.608 -0.1229  0.1994 -0.1180
32849W        W48318   7.685   8.620  15.666 -0.0924  0.0011  0.2259
32850W        W48319  16.798   6.974   6.001  0.1808 -0.0384 -0.0780
32851W        W48320   5.508   1.097   5.058 -0.1671  0.2568 -0.0147
32852W        W48321   1.321   0.648  13.109 -0.2590  0.2332  0.0472
32853W        W48322   3.774   8.881  14.313 -0.5312 -0.0027  0.0465
32854W        W48323   8.858  13.399   1.440  0.3427  0.1069  0.0904
32855W        W48324   2.244   5.486  13.389 -0.1576 -0.0855 -0.1005
32856W        W48325  15.462   0.034   2.986  0.1781 -0.0053  0.2390
32857W        W48326   6.999  16.890   0.126  0.0181  0.0325  0.0128
32858W        W48327   6.498  13.038  13.524  0.1275  0.0377 -0.0382
32859W        W48328   8.783   7.616  11.472 -0.0046  0.1943 -0.1195
32860W        W48329  16.766  11.552   0.197 -0.2386  0.1930  0.3644
32861W        W48330   1.761  11.236  11.686  0.1501  0.3029  0.0601
32862W        W48331   0.792  17.494   2.375 -0.0037 -0.0733  0.2043
32863W        W48332   3.288   4.879   5.611  0.0676 -0.0764  0.2512
32864W        W48333  13.232  14.565   1.048  0.2026  0.3497 -0.0685
32865W        W48334   3.394  17.981   1.751 -0.0346 -0.0916 -0.0756
32866W        W48335  16.840   6.411   3.487 -0.0861  0.1136  0.1530
32867W        W48336   0.784  18.096   4.296  0.1354  0.0765  0.0888
32868W        W48337   2.882  12.913   2.983  0.1043 -0.1696 -0.1247
32869W        W48338  16.852   7.431   2.923 -0.0053 -0.2375 -0.0952
32870W        W48339  10.634   3.526   3.984  0.0291  0.0152 -0.2480
32871W        W48340   5.922   8.411   2.922  0.1038  0.0130  0.1072
32872W        W48341   0.621  14.815   4.148  0.1088  0.0692  0.1950
32873W        W48342   6.985  11.126  13.993 -0.3062 -0.1301  0.4673
32874W        W48343  11.030  16.459   3.297 -0.1030 -0.2338 -0.1676
32875W        W48344  11.676   0.208  14.047  0.1571 -0.1620  0.2508
32876W        W48345  12.499  13.112  12.891  0.0084  0.0204  0.2303
32877W        W48346   5.917  13.709   0.733 -0.4537 -0.0635  0.0788
32878W        W48347  15.985   8.906  13.261  0.2728  0.0094 -0.3260
32879W        W48348   6.656   9.007   2.277 -0.1188  0.1331  0.0847
32880W        W48349   9.915  14.884   5.284 -0.1061  0.1004 -0.1216
32881W        W48350  10.993  11.646   2.540  0.0650 -0.2131 -0.3118
32882W        W48351   4.822  10.039   1.419 -0.0594 -0.0875  0.1601
32883W        W48352  17.635   6.348   5.140 -0.1157  0.1291  0.1148
32884W        W48353  10.472   1.723  13.298 -0.1870  0.1722 -0.2787
32885W        W48354   7.470   1.309   5.005 -0.0966  0.1035  0.0006
32886W        W48355  13.646  18.083   5.511 -0.2363 -0.1002 -0.1515
32887W        W48356  11.038  16.520  12.623 -0.0588 -0.0775 -0.1218
32888W        W48357   6.495   9.802  12.263  0.0218  0.1692  0.3298
32889W        W48358   6.373   7.007   0.109 -0.2222 -0.2012 -0.0136
32890W        W48359   0.142  14.441   4.093 -0.1643 -0.2625 -0.0315
32891W        W48360   7.307  17.797   1.815 -0.1092 -0.2936  0.1502
32892W        W48361   4.828  16.746   3.968 -0.1213 -0.1121 -0.0021
32893W        W48362   1.320  18.219   5.173  0.2062  0.0349 -0.0662
32894W        W48363   7.391   9.808  13.461 -0.1786  0.0392 -0.2067
32895W        W48364   9.933   0.790  13.381  0.1161 -0.3063 -0.5210
32896W        W48365  16.199   2.935   5.674  0.1250 -0.1243  0.0744
32897W        W48366  11.900   6.349  13.538  0.4005  0.2393 -0.2206
32898W        W48367  15.018   2.040   4.875  0.1805 -0.1396  0.0205
32899W        W48368   2.804   5.501  13.427 -0.2098  0.5675  0.1710
32900ION     NA48369  17.952   2.213  10.590  0.0171  0.0067  0.2056
32901ION     NA48370  10.695  13.910   5.627 -0.3157  0.0573  0.1470
32902ION     NA48371   4.839   7.956  10.769 -0.1846 -0.3146 -0.1104
32903ION     NA48372   3.527   1.439   5.099 -0.2881 -0.0466 -0.1690
32904ION     NA48373  10.584  10.348   2.327 -0.1971  0.0427 -0.1515
32905ION     NA48374   3.854   9.184  10.686  0.1272  0.0683  0.1911
32906ION     NA48375  16.964  16.800  10.512  0.2757 -0.0873 -0.3618
32907ION     NA48376   0.159   3.849  10.121 -0.0118 -0.1865  0.0945
32908ION     NA48377   4.910   8.716  10.163  0.3393 -0.1452 -0.0921
32909ION     NA48378  16.101  17.084  10.626 -0.0126  0.0244  0.1409
32910ION     NA48379   0.584  10.027   5.689  0.0065  0.2041  0.1544
32911ION     NA48380   6.479  15.620  10.212  0.1940 -0.0880  0.1508
32912ION     NA48381  11.647  10.255  10.175  0.0055  0.0192 -0.2518
32913ION     NA48382   4.128  13.067   9.952  0.0145 -0.2731  0.0916
32914ION     NA48383   3.801   5.883   0.366 -0.1282  0.0717 -0.0809
32915ION     NA48384  17.651   4.393   3.414 -0.3030  0.1007 -0.1410
32916ION     NA48385  11.806   6.610   5.886 -0.0848 -0.0071 -0.0095
32917ION     NA48386   8.598   0.760   1.369  0.1395 -0.2405  0.1119
32918ION     NA48387   5.517  16.328  10.762 -0.0417  0.0405  0.0804
32919ION     NA48388  11.953   2.542  12.131  0.0858 -0.1536  0.2153
32920ION     NA48389   2.851   1.975  10.166 -0.1395 -0.4116  0.1196
32921ION     NA48390  16.423   8.651  10.253 -0.0850  0.1398  0.0201
32922ION     NA48391   1.674  13.799  10.028  0.0469  0.0598 -0.2641
32923ION     NA48392   5.416   6.878   5.375  0.0424  0.1758 -0.1494
32924ION     NA48393  17.972  14.158  10.225 -0.1587 -0.0573 -0.2457
32925ION     NA48394  10.971   2.011   5.358  0.0026  0.3132  0.1290
32926ION     NA48395   0.907   7.941   6.231 -0.2375  0.0470  0.3362
32927ION     NA48396   8.384  11.449  10.559 -0.1158 -0.1191 -0.0321
32928ION     NA48397  13.763  17.718  11.959 -0.1107  0.1419 -0.0726
32929ION     NA48398  11.132   8.459  10.571  0.0363  0.0769  0.2024
32930ION     NA48399   0.833   7.203   5.887 -0.2243 -0.2467  0.0552
32931ION     NA48400   4.584  15.826   0.271 -0.2345  0.0027  0.4323
32932ION     NA48401  15.387   1.577  10.872  0.2035  0.1255  0.0488
32933ION     NA48402  10.333   2.330  10.376  0.0661  0.0272 -0.0192
32934ION     NA48403   9.734  10.458  10.422  0.2076 -0.0035  0.0451
32935ION     NA48404   5.853   5.877  10.306 -0.0139 -0.2765  0.1599
32936ION     NA48405   1.655   3.927  10.067  0.0171 -0.2849  0.0427
32937ION     NA48406  12.907  10.582  10.105 -0.2220  0.1760  0.0857
32938ION     NA48407   2.377   8.054  10.656 -0.0693  0.1454  0.2943
32939ION     NA48408   4.076  11.203  10.021 -0.1188 -0.2210  0.3198
32940ION     NA48409   7.661  13.717  12.360  0.0504 -0.0455  0.1010
32941ION     NA48410   7.091  12.587   1.348 -0.0052 -0.0065  0.0834
32942ION     NA48411   0.897   9.241  12.097 -0.1953  0.1815  0.0832
32943ION     NA48412   0.539  14.152  10.379 -0.1324 -0.1240 -0.2123
32944ION     NA48413  12.799  17.076  10.759 -0.1820 -0.2071 -0.2012
32945ION     NA48414  18.265  11.316   5.810 -0.1283 -0.2487 -0.1537
32946ION     NA48415   3.325  17.878   5.501  0.1766 -0.1070 -0.0314
32947ION     NA48416  10.625   3.222  10.712 -0.2555 -0.3178 -0.2252
32948ION     NA48417   4.257   1.421  15.512 -0.1695  0.1392 -0.1495
32949ION     NA48418  12.027   3.221   5.955  0.1254 -0.0682  0.0934
32950ION     NA48419  12.297   2.197  15.328 -0.0043 -0.2111 -0.4387
32951ION     NA48420   3.813  17.211  10.166  0.5975  0.0826  0.1104
32952ION     NA48421   1.138   1.677  10.335  0.0674  0.1096  0.0575
32953ION     NA48422   8.169  11.145  10.210  0.0695  0.0040  0.1278
32954ION     NA48423   5.649  15.405  14.008 -0.2259 -0.1341  0.0987
32955ION     NA48424   7.695   8.668   1.189  0.1069  0.3001 -0.0310
32956ION     NA48425   3.111  12.212  10.222 -0.2261 -0.3812 -0.4726
32957ION     NA48426   5.187   9.674   5.177 -0.4684 -0.0440  0.2975
32958ION     NA48427  17.312  12.221  10.437  0.0207  0.2414  0.1384
32959ION     NA48428   4.865  13.963  10.050 -0.1989 -0.2630 -0.1839
32960ION     NA48429   4.469   9.649  14.506  0.0140  0.0490 -0.0412
32961ION     NA48430  14.854  17.485   1.588  0.2145  0.0193  0.0203
32962ION     NA48431   1.972  15.989  14.915  0.2888  0.2294 -0.2947
32963ION     NA48432  11.773  14.202  16.069 -0.1223  0.2330  0.1520
32964ION     NA48433   7.380   1.928  11.724  0.1569 -0.0471  0.0542
32965ION     NA48434  11.413  16.450  10.149  0.1509  0.2767 -0.2843
32966ION     NA48435  11.906  17.245  10.482  0.0821  0.2608 -0.0130
32967ION     NA48436   9.815   4.684  10.751 -0.0859  0.1210 -0.1403
32968ION     NA48437  15.768  14.071  15.362  0.0713  0.2615  0.0626
32969ION     NA48438  14.557   9.117  10.057 -0.0312  0.2672  0.1709
32970ION     NA48439   0.501   8.945  15.673 -0.2256 -0.0893 -0.1483
32971ION     NA48440   6.152   5.683  12.838 -0.1755  0.0563  0.4823
32972ION     NA48441   0.524   8.574   3.275 -0.0421  0.1729  0.0000
32973ION     NA48442   1.504  10.834   4.126 -0.1993  0.1593  0.0155
32974ION     NA48443   1.377  17.552   1.125  0.0980  0.0527  0.0377
32975ION     NA48444   1.161   8.549   4.790 -0.2490  0.2107 -0.2739
32976ION     NA48445  14.201  12.582  10.298  0.1594  0.0749  0.1822
32977ION     NA48446  12.496   7.317  10.022  0.1854 -0.0928 -0.2272
32978ION     NA48447   8.123   6.731   5.758  0.2283  0.2182 -0.0350
32979ION     NA48448   7.847   2.808   1.999  0.0920 -0.0191 -0.1917
32980ION     NA48449  15.534   5.574   9.908 -0.0527 -0.0566 -0.2396
32981ION     NA48450  16.749  12.916  10.372 -0.0791 -0.2929 -0.3622
32982ION     NA48451   5.646  12.570   4.683  0.2831  0.1925  0.0786
32983ION     NA48452   4.145   3.047  10.331  0.1916 -0.0516 -0.0462
32984ION     NA48453   7.784  17.497  10.743  0.1167 -0.0444  0.1821
32985ION     NA48454   3.534  13.173   5.188 -0.3093  0.1773 -0.2475
32986ION     NA48455   1.629  16.309  10.145  0.2403  0.2529  0.1625
32987ION     NA48456   9.634   2.106  10.323  0.1667  0.0331 -0.2089
32988ION     NA48457  14.662   6.876   9.953  0.1662  0.0583  0.1877
32989ION     NA48458   8.783   8.496  10.883 -0.3036 -0.1103  0.0555
32990ION     NA48459  18.292  16.280   5.812 -0.2310 -0.0298  0.5017
32991ION     NA48460   8.362   7.870  10.345 -0.2271  0.2259 -0.1202
32992ION     NA48461  16.580  16.631   0.515  0.5923 -0.0233  0.1054
32993ION     NA48462   7.568  12.018  15.723  0.0355 -0.0639  0.3025
32994ION     NA48463  11.292   6.253   1.034  0.1130 -0.0642  0.1064
32995ION     NA48464  18.033   0.888  10.284 -0.1781 -0.0536 -0.0720
32996ION     NA48465  15.916  11.119  10.366  0.0083 -0.0511 -0.2043
32997ION     NA48466  11.059  17.946   4.411 -0.0414  0.0197  0.1688
32998ION     NA48467  16.768   1.585  10.353 -0.3960 -0.1538 -0.1911
32999ION     NA48468  11.031   4.368   4.358 -0.0366 -0.0439  0.0361
33000ION     NA48469  10.680  12.932  13.987 -0.0800  0.1397 -0.0600
33001ION     NA48470   0.564  17.790  10.330 -0.0630  0.0453 -0.0410
33002ION     NA48471  11.232  15.318   5.205 -0.2007 -0.0107  0.0521
33003ION     NA48472  13.309  16.475   3.186 -0.0264  0.1575 -0.1900
33004ION     NA48473  17.031  13.758   1.452  0.0702 -0.0296 -0.1931
33005ION     NA48474  11.275  13.639   9.980 -0.0171 -0.0268  0.2588
33006ION     NA48475  10.498   5.411  10.851 -0.1431  0.2682  0.1373
33007ION     NA48476   8.308   2.897  10.370  0.0072 -0.0592 -0.0892
33008ION     NA48477  13.626   9.158  10.017  0.2145  0.2643  0.0619
33009ION     NA48478  17.008   7.712   0.418 -0.3172 -0.0969  0.4688
33010ION     NA48479  11.328   0.313  10.529  0.1923 -0.0137  0.2398
33011ION     NA48480   0.532  16.155  10.131 -0.4809 -0.0239 -0.1363
33012ION     NA48481  13.069   3.783  10.373  0.1795 -0.0379  0.2182
33013ION     NA48482  10.778  17.705   6.213  0.0305  0.0717 -0.1536
33014ION     NA48483   4.269   9.738   5.483 -0.2115 -0.0286 -0.2394
33015ION     NA48484   6.487  13.995  10.033  0.1698 -0.0409 -0.1055
33016ION     NA48485   6.850   5.835  10.648  0.2623 -0.2812 -0.1672
33017ION     NA48486  17.210   5.665   5.446  0.1015  0.2121 -0.2278
33018ION     NA48487  15.011  13.914  10.367  0.2494  0.0208 -0.1417
33019ION     NA48488  11.546   3.206  10.679  0.1096 -0.0181  0.1687
33020ION     NA48489   8.861   4.274   5.862  0.0269  0.1039 -0.0787
33021ION     NA48490  14.000  16.987   6.106  0.4060  0.2729  0.5595
33022ION     NA48491  10.486  14.227   5.317  0.3952  0.1867 -0.0975
33023ION     NA48492  11.027  12.541   0.113  0.1119  0.1732  0.1881
33024ION     NA48493   6.572  11.588   5.151  0.1856  0.2868 -0.3108
33025ION     NA48494   8.228  16.745   3.293  0.0268 -0.0753 -0.1475
33026ION     NA48495   2.306  14.250   0.880  0.3168  0.2353 -0.3525
33027ION     NA48496   0.264   5.911  10.500  0.0510  0.2432  0.0883
33028ION     NA48497  17.255  17.873  10.418 -0.2044 -0.3067  0.0806
33029ION     NA48498   8.138  14.503   9.688 -0.0152  0.0611  0.0471
33030ION     NA48499   5.545  14.167   5.309  0.0155 -0.0151  0.2513
33031ION     NA48500   8.627  15.868   9.961 -0.0365 -0.0188 -0.0476
33032ION     NA48501  12.509   5.421  10.233 -0.0083  0.1058 -0.1615
33033ION     NA48502   8.554   4.647  13.525 -0.0349 -0.0543  0.0880
33034ION     NA48503  13.518   6.278  10.305  0.0561  0.1176  0.2936
33035ION     NA48504   8.966   5.134   6.126  0.0788  0.0310 -0.0056
33036ION     NA48505  12.105   2.389   5.922  0.0655 -0.0400  0.2040
33037ION     NA48506   9.631   4.569   6.011  0.1524  0.2070 -0.1214
33038ION     NA48507  15.269   7.455   9.971 -0.1732  0.1391  0.1990
33039ION     NA48508   1.812  15.436   3.837 -0.1974  0.1307 -0.3292
33040ION     NA48509   4.883  12.334   9.874 -0.2067 -0.0683 -0.0464
33041ION     NA48510  14.188  11.001  10.024 -0.1136  0.3022 -0.3178
33042ION     NA48511  16.359   4.239  10.082  0.1696  0.2045 -0.0796
33043ION     NA48512   8.590   0.336   6.257 -0.3214  0.2747  0.0608
33044ION     NA48513   0.278   5.107  10.217 -0.1307  0.0899 -0.0296
33045ION     NA48514   6.767   8.463  15.600 -0.0556  0.0316 -0.0477
33046ION     NA48515  10.936   2.107  10.185  0.2903 -0.1240  0.1776
33047ION     NA48516   2.393  17.583   5.155  0.0147  0.4883 -0.1596
33048ION     NA48517  16.578   1.556  10.844 -0.1795  0.1329 -0.1800
33049ION     NA48518  13.008   1.446   3.150  0.0870 -0.1048  0.0914
33050ION     NA48519   5.454   4.582  13.459 -0.0437  0.1793 -0.1265
33051ION     NA48520   7.879   3.494   0.040  0.0711 -0.2591  0.1626
33052ION     NA48521  16.565   6.781  10.023  0.2384 -0.0546  0.1603
33053ION     NA48522  10.192   5.242   5.638  0.0142 -0.1805 -0.0509
33054ION     NA48523   9.749   7.146  10.284  0.0132  0.1465 -0.0898
33055ION     NA48524  11.481  11.370   0.327  0.3354  0.2190 -0.1607
33056ION     NA48525  16.070   7.527  10.280  0.5621 -0.0079 -0.0533
33057ION     NA48526   4.997  11.420   9.944 -0.1280 -0.3563 -0.1708
33058ION     NA48527   3.540   6.093   6.410 -0.0741 -0.0810  0.1006
33059ION     NA48528   6.182  16.209  12.287  0.3501 -0.0585  0.0003
33060ION     NA48529   4.704   7.819  10.294 -0.3642 -0.1231  0.0901
33061ION     NA48530  12.240  17.077   4.293  0.1179 -0.2616 -0.1783
33062ION     NA48531   4.724  16.804   9.928 -0.0934  0.0395  0.0737
33063ION     NA48532  11.459  12.854   9.942 -0.3886  0.1692  0.0798
33064ION     NA48533  16.664   6.454  12.935  0.2065 -0.2373 -0.0960
33065ION     NA48534  13.979   6.265   5.824 -0.1067 -0.3234  0.1852
33066ION     NA48535  14.173  18.265  10.786  0.1417 -0.1132  0.0984
33067ION     NA48536   9.120   1.320   5.943 -0.0566 -0.1063 -0.2660
33068ION     NA48537  10.553  10.164  10.316  0.0513 -0.0257  0.0487
33069ION     NA48538  16.058  10.354  10.147 -0.0655  0.1423  0.1710
33070ION     NA48539   1.312  10.418  10.269 -0.0777  0.2211 -0.1266
33071ION     NA48540  14.276  14.157  10.361 -0.3499 -0.1279  0.0394
33072ION     NA48541  13.890   1.652  10.969 -0.2347 -0.1801 -0.0166
33073ION     NA48542   4.121   8.305  10.431  0.0226 -0.2226 -0.0234
33074ION     NA48543  10.785  15.833   6.037  0.2970 -0.2401 -0.0035
33075ION     NA48544   4.002   7.354  10.558  0.1250 -0.1401  0.1664
33076ION     NA48545   9.528   8.763  10.531  0.2276 -0.2414  0.0668
33077ION     NA48546  13.988   3.304  11.828 -0.1834 -0.0388 -0.1782
33078ION     NA48547  11.196  16.774  10.530 -0.1700 -0.1970  0.0096
33079ION     NA48548   5.462   9.232  10.070 -0.0717 -0.0288  0.0619
33080ION     NA48549  10.479  11.538   4.422  0.0510 -0.2261  0.1600
33081ION     NA48550  15.405  16.385  10.722  0.0824 -0.0341 -0.0520
33082ION     NA48551   9.523   8.848   6.033 -0.1071  0.0955 -0.1939
33083ION     NA48552   8.725  11.358   5.708 -0.1595 -0.2101  0.1781
33084ION     NA48553   6.398   3.769  15.212 -0.1067  0.3316 -0.3112
33085ION     NA48554  12.303  16.102  10.383 -0.1060  0.0275  0.1705
33086ION     NA48555   5.811   0.278  10.350 -0.3039  0.0667 -0.1523
33087ION     NA48556   1.882  15.458  10.040  0.5837  0.0600  0.2201
33088ION     NA48557  16.064   0.676   1.475 -0.2632 -0.2071  0.2153
33089ION     NA48558  11.967  14.507  10.147 -0.1435  0.2099  0.1279
33090ION     NA48559   9.200   0.527  16.149  0.1442 -0.3584  0.3192
33091ION     NA48560   2.546   7.549  12.008 -0.1641  0.0348  0.1172
33092ION     NA48561   1.993   9.174   6.369  0.1577  0.1493  0.2251
33093ION     NA48562  16.094   8.269   5.501  0.0889  0.0524  0.2717
33094ION     NA48563   2.177  16.617  13.300 -0.0558  0.0253  0.0598
33095ION     NA48564  12.770   7.817   9.990 -0.1093 -0.0600 -0.2729
33096ION     NA48565   3.704   6.886  10.171  0.1971 -0.0036  0.2626
33097ION     NA48566  15.549   5.911   5.237 -0.0379  0.0791  0.2739
33098ION     NA48567  16.977   2.479   5.967  0.0368 -0.0628  0.0990
33099ION     NA48568   5.112   6.303  10.167 -0.2651 -0.0345  0.1614
33100ION     NA48569  10.290  17.656  10.183 -0.0315 -0.2010  0.1787
33101ION     NA48570   5.325   1.145   1.303  0.0120 -0.1526  0.0294
33102ION     NA48571  12.319   3.305  10.227 -0.0682 -0.0490 -0.0436
33103ION     NA48572   0.050  12.000  10.428 -0.0941 -0.0221  0.2421
33104ION     NA48573   0.343  17.885   2.015  0.1850  0.1146  0.2145
33105ION     NA48574   0.251  12.789  10.232 -0.0102  0.0410  0.3440
33106ION     NA48575  14.255   5.870   9.983  0.1552 -0.1224  0.1159
33107ION     NA48576   6.922  16.805  10.364 -0.0289  0.2164 -0.3280
33108ION     NA48577  11.370   2.291   4.274 -0.0624  0.2092 -0.1351
33109ION     NA48578  12.115  12.180  12.590 -0.0754 -0.0468  0.1544
33110ION     NA48579  11.810   1.638  10.190  0.0052 -0.1651  0.0475
33111ION     NA48580   0.843  14.293   2.162  0.0785 -0.0159 -0.1663
33112ION     NA48581  18.010  16.932  13.661 -0.0442 -0.1375  0.1427
33113ION     NA48582   9.267   1.526   4.542 -0.2043  0.2432  0.2584
33114ION     NA48583  11.569  10.886  12.731  0.1861  0.1545 -0.3789
33115ION     NA48584   4.720  13.675  10.496 -0.2315 -0.0710  0.1248
33116ION     NA48585   9.643  14.217  10.542  0.0348  0.2854 -0.1567
33117ION     NA48586   2.703   0.793   9.915  0.0365 -0.0419 -0.2732
33118ION     NA48587   5.693  10.702   9.902  0.2497  0.1434 -0.1107
33119ION     NA48588   3.066  11.657   1.218  0.3774 -0.1346  0.3431
33120ION     NA48589   6.570  11.694   9.941 -0.0195 -0.1720  0.0120
33121ION     NA48590  17.034   9.568  10.430 -0.1542  0.0401  0.1834
33122ION     NA48591  13.343  12.655  10.101  0.1207  0.1943  0.0844
33123ION     NA48592   5.466  18.102   0.284 -0.0798 -0.4822  0.1135
33124ION     NA48593  15.895  13.533  10.272  0.0225 -0.0561 -0.3577
33125ION     NA48594  14.676   1.790  10.557  0.4853  0.2439  0.1024
33126ION     NA48595   7.596  12.038  13.107  0.3376 -0.2013 -0.1430
33127ION     NA48596   7.747   0.215  10.039  0.1134 -0.2212 -0.1778
33128ION     NA48597  10.866   4.804   2.023  0.0351 -0.3022 -0.1403
33129ION     NA48598  10.517   8.984   4.171 -0.3795 -0.1506 -0.1634
33130ION     NA48599   8.503  13.514   9.937  0.1003 -0.0237  0.0464
33131ION     NA48600  16.235  12.136  10.580 -0.1136 -0.0924 -0.1732
33132ION     NA48601  15.845   6.678   5.871 -0.1171 -0.0529  0.2051
33133ION     NA48602   3.250  10.895  10.155  0.2653 -0.0279 -0.0427
33134ION     NA48603  16.128   9.979   5.633 -0.1559 -0.4284 -0.2926
33135ION     NA48604   9.535  15.643  10.147 -0.1277  0.0777  0.1688
33136ION     NA48605   9.713   3.263   4.909  0.2313  0.0232  0.0102
33137ION     NA48606   9.387   7.972   6.067 -0.3844 -0.1019  0.0823
33138ION     NA48607  17.432  11.303  10.592 -0.0371  0.3301 -0.0051
33139ION     NA48608   6.191  17.519  10.053  0.1504  0.1370 -0.2772
33140ION     NA48609   0.359   1.496  10.166 -0.2362 -0.1596 -0.2568
33141ION     NA48610   9.730  13.021  10.271 -0.1273 -0.0906 -0.1164
33142ION     NA48611   3.693   2.104  10.201  0.0086 -0.1484  0.0195
33143ION     NA48612   8.871   1.790   1.102  0.0277  0.0931 -0.0258
33144ION     NA48613  10.103   3.864  10.401  0.2515  0.0576  0.1757
33145ION     NA48614   2.418  16.240   9.810  0.4289 -0.3400 -0.1748
33146ION     NA48615  13.254  14.943   6.029 -0.2555  0.0305  0.3730
33147ION     NA48616  11.379   8.298  10.160 -0.0369  0.0221  0.2463
33148ION     NA48617   9.744   1.110  10.302  0.0772  0.2290  0.1222
33149ION     NA48618   2.126  12.460  10.169 -0.2504 -0.2813  0.1274
33150ION     NA48619  16.152   3.231  10.086  0.2305 -0.1044 -0.2182
33151ION     NA48620   2.932  15.574   1.079 -0.1011  0.0110 -0.1075
33152ION     NA48621   3.323  17.897  10.113 -0.0445  0.0229 -0.0058
33153ION     NA48622   2.321   1.228   5.143 -0.0472 -0.3065 -0.1566
33154ION     NA48623  17.498  13.925   3.565  0.0223 -0.2437  0.1061
33155ION     NA48624   5.730  12.478   9.606 -0.3708  0.3382  0.2114
33156ION     NA48625   5.159   0.814   2.693  0.0760  0.1082  0.0752
33157ION     NA48626   3.016  10.438  10.429 -0.0553 -0.3743  0.2436
33158ION     NA48627   7.166   3.163   1.336  0.1514  0.1823 -0.2564
33159ION     NA48628   1.380  11.111   0.666 -0.0238  0.2446 -0.0074
33160ION     NA48629   3.438  13.553  10.021  0.2088  0.1957 -0.2244
33161ION     NA48630   7.583   1.785  10.087 -0.2816  0.0212  0.0859
33162ION     NA48631  12.407  17.298   3.535 -0.1392 -0.1690  0.3631
33163ION     NA48632   6.627  18.225  10.325 -0.0527  0.2349  0.0835
33164ION     NA48633   4.606   2.248  10.536  0.0710  0.4123  0.0268
33165ION     NA48634   3.837   7.704   5.521 -0.2310  0.1641 -0.2098
33166ION     NA48635   2.547   8.538   5.989  0.0401 -0.2080  0.2258
33167ION     NA48636   3.571   4.833  10.417  0.1235 -0.2964  0.0808
33168ION     NA48637   5.564  15.462   9.865  0.1297  0.0389  0.0032
33169ION     NA48638   8.334   5.770   5.848 -0.1998  0.0427  0.0973
33170ION     NA48639  17.853   8.360  10.371 -0.1675  0.2392 -0.1988
33171ION     NA48640  16.148   9.350  10.316 -0.1704 -0.0573 -0.1138
33172ION     NA48641   7.412  17.190   6.131  0.0957 -0.1829  0.0374
33173ION     NA48642   8.097  15.846   2.502  0.2358 -0.2093  0.2768
33174ION     NA48643   4.509   2.536   5.398  0.2595  0.0761 -0.5106
33175ION     NA48644  14.316   0.554  13.939  0.3864  0.1270  0.3012
33176ION     NA48645   7.762   6.024  10.547  0.2171 -0.0286  0.1267
33177ION     NA48646  10.975   4.624  11.823  0.3110  0.0093  0.1217
33178ION     NA48647   6.628   1.983  10.221 -0.0249 -0.0615  0.0498
33179ION     NA48648  14.931  11.606  14.906  0.0783  0.1433  0.0449
33180ION     NA48649   5.784   1.560  12.801  0.1539 -0.1834  0.1610
33181ION     NA48650  12.791  17.296   5.803  0.1293  0.1659  0.1256
33182ION     NA48651   5.077   0.974  10.233  0.0370  0.0491  0.1111
33183ION     NA48652  14.890  12.765  11.400  0.1315 -0.0060  0.1714
33184ION     NA48653   3.178  14.412  10.420  0.0557 -0.1508  0.0767
33185ION     NA48654   5.622  14.494  10.135  0.4267 -0.1347 -0.2909
33186ION     NA48655   5.957   9.975  10.009 -0.2764 -0.2211  0.1508
33187ION     NA48656  10.276  11.156   1.573  0.2666  0.2092  0.0163
33188ION     NA48657  16.722   2.857   5.579 -0.0580  0.2012  0.1309
33189ION     NA48658   2.552  13.779  10.167 -0.1406  0.0221  0.2898
33190ION     NA48659  17.950  15.657  10.247  0.2754  0.1443  0.1128
33191ION     NA48660   5.518   1.806  10.451  0.1972  0.2337  0.0490
33192ION     NA48661   0.162  14.892  10.093 -0.3283 -0.2442  0.1077
33193ION     NA48662   6.538  13.047   0.868  0.0336 -0.0688  0.3117
33194ION     NA48663  11.776   4.784  10.217 -0.2418 -0.0334 -0.0340
33195ION     NA48664  16.328   3.863   5.763 -0.1151  0.2629  0.0416
33196ION     NA48665   1.353  14.451  10.698  0.0296 -0.0330 -0.2288
33197ION     NA48666  12.083  13.504  10.081  0.0472  0.2274 -0.1075
33198ION     NA48667   1.148   4.944   0.891 -0.0422 -0.0134  0.0571
33199ION     NA48668   4.522   4.524  10.575 -0.2584  0.0826 -0.2811
33200ION     NA48669   1.544   5.723  11.314 -0.3697 -0.2859  0.2698
33201ION     NA48670   1.162   5.997  10.520  0.0132  0.0218  0.3111
33202ION     NA48671   4.596  14.368  13.293  0.2485  0.0862 -0.3269
33203ION     NA48672  12.119   0.842  13.990 -0.3542 -0.1125  0.1408
33204ION     NA48673  11.021   4.527  10.336 -0.5617  0.2752 -0.1495
33205ION     NA48674  12.573   0.013   5.942 -0.0975  0.0055  0.0100
33206ION     NA48675   4.803   9.679  10.375 -0.1250 -0.0969 -0.2536
33207ION     NA48676  11.578   9.584   2.130  0.3743  0.0932  0.1332
33208ION     NA48677   2.483   4.137  10.238 -0.0161  0.2086  0.2637
33209ION     NA48678   2.988   6.292  12.940  0.2209  0.1101  0.3620
33210ION     NA48679  16.389   5.495   9.733 -0.1857 -0.0112  0.1339
33211ION     NA48680  11.046  10.057   0.100 -0.0129 -0.0406  0.1738
33212ION     NA48681  13.352   8.352  10.365 -0.1257 -0.0747  0.0288
33213ION     NA48682   8.401   4.014  10.766 -0.3164 -0.1117 -0.0915
33214ION     NA48683  13.265   3.900  15.011 -0.0414 -0.1700 -0.0807
33215ION     NA48684  12.882  16.948   0.471 -0.1076  0.2405 -0.2575
33216ION     NA48685   0.891  13.977   5.778 -0.1654  0.0776 -0.5518
33217ION     NA48686   3.583   8.812   1.831  0.2678 -0.2069  0.0537
33218ION     NA48687  16.255   3.518  12.551  0.0036 -0.2659  0.1572
33219ION     NA48688  11.198   6.637  10.398 -0.0373 -0.0201  0.0484
33220ION     NA48689   0.952   2.213   6.071  0.0579 -0.1050 -0.1312
33221ION     NA48690   7.217   4.088   6.351 -0.1696 -0.1029  0.0115
33222ION     NA48691  12.342  16.345   5.990 -0.0122  0.2198 -0.0882
33223ION     NA48692   1.289  12.898  10.189  0.1977  0.1749 -0.2622
33224ION     NA48693   1.977  11.665  10.119 -0.2601 -0.2306  0.0680
33225ION     NA48694   9.329  17.491  10.382  0.0171  0.1671  0.2003
33226ION     NA48695   8.883  15.132   5.652  0.2427 -0.1580  0.0878
33227ION     NA48696   6.628   0.809  10.302 -0.1946 -0.1105  0.0053
33228ION     NA48697  16.893   7.748  10.166 -0.2542  0.0901 -0.1043
33229ION     NA48698  16.901   6.559   0.995 -0.1726  0.0040 -0.0300
33230ION     NA48699  13.084   2.910  10.275 -0.5217  0.0406  0.1087
33231ION     NA48700   3.444   0.705  11.931 -0.1016 -0.0803  0.1042
33232ION     NA48701  17.887   4.610  10.304  0.0707 -0.1896  0.0234
33233ION     NA48702   1.006   7.038  11.206  0.1232 -0.1431 -0.0576
33234ION     NA48703  18.117  17.241  10.116 -0.0829  0.1322  0.0825
33235ION     NA48704   1.168   2.605  10.680  0.2781  0.1142 -0.0250
33236ION     NA48705   9.718   6.467   2.889  0.0370  0.1631  0.1629
33237ION     NA48706  11.430   5.379   5.953 -0.1420  0.1243 -0.0498
33238ION     NA48707  18.216   7.361  10.502  0.3289 -0.1453 -0.1572
33239ION     NA48708   4.178   6.825   0.264 -0.1627  0.0216  0.0034
33240ION     NA48709   4.248  10.704  10.057  0.4203 -0.1173 -0.2167
33241ION     NA48710  15.178  16.905  15.570  0.1066 -0.1042  0.3921
33242ION     NA48711  11.545  13.922   5.049 -0.1293 -0.3785  0.0539
33243ION     NA48712   4.644   9.160   4.114 -0.0239 -0.1084 -0.3788
33244ION     NA48713   5.610   4.290  10.995  0.1313  0.1251 -0.1684
33245ION     NA48714  17.547   3.271   5.390 -0.1677  0.6766 -0.1699
33246ION     NA48715   7.496   0.997  10.315 -0.0516 -0.2959 -0.1654
33247ION     NA48716   7.077   7.480  12.414 -0.0589  0.4443 -0.0449
33248ION     NA48717  11.220   7.546  15.826 -0.0490  0.1383 -0.3367
33249ION     NA48718   9.279   9.760  10.499 -0.2616 -0.3023 -0.1064
33250ION     NA48719   8.849  12.660   9.967 -0.1736 -0.0425 -0.3184
33251ION     NA48720   7.856   7.105  10.566  0.2184  0.0099 -0.1968
33252ION     NA48721   2.953   4.557   5.819  0.0461  0.3191 -0.1254
33253ION     NA48722   9.020   4.730  10.458 -0.1407  0.2584 -0.0150
33254ION     NA48723  16.166   7.086  10.001  0.2964 -0.1567 -0.1414
33255ION     NA48724   6.786   3.599   2.911 -0.1122  0.0301  0.2586
33256ION     NA48725   5.958  15.327  12.217 -0.0086 -0.2875  0.0273
33257ION     NA48726   2.353  14.629   9.878  0.0288  0.1493 -0.0681
33258ION     NA48727  12.886  14.040   0.623 -0.0309  0.0395  0.1855
33259ION     NA48728  16.317   6.135  10.217  0.0234 -0.0596 -0.1586
33260ION     NA48729   5.274   2.695  10.342  0.1586 -0.0478 -0.2407
33261ION     NA48730   7.540  16.680  10.101 -0.0586 -0.0494 -0.0198
33262ION     NA48731   7.635   5.142  10.698 -0.0552  0.2534  0.4880
33263ION     NA48732   9.681  17.081  10.191  0.0011  0.0284 -0.1068
33264ION     NA48733   9.819   4.960   4.577 -0.0930 -0.1421 -0.1188
33265ION     NA48734  13.794   4.158  13.096  0.0559 -0.1019  0.1508
33266ION     NA48735  16.303  15.135   5.273 -0.2001  0.0785 -0.0558
33267ION     NA48736   3.424   1.007  10.244  0.0932  0.2029 -0.2425
33268ION     NA48737  17.040   9.265  14.310  0.0397  0.2517  0.0457
33269ION     NA48738   9.264  13.658   9.886  0.1545  0.0710  0.0115
33270ION     NA48739  11.089  12.206   5.458 -0.2875  0.1921  0.0854
33271ION     NA48740   0.992   2.964  10.261 -0.2411 -0.0710 -0.4345
33272ION     NA48741   3.798   7.521  15.610 -0.1124  0.3236  0.1061
33273ION     NA48742  15.156  18.033  10.611  0.0919  0.0898  0.2060
33274ION     NA48743  15.280   7.721   5.657  0.2480  0.0953 -0.0464
33275ION     NA48744   8.082   8.908  10.413  0.2581 -0.0366 -0.0369
33276ION     NA48745  12.013   0.860  10.540 -0.0048 -0.0267 -0.1640
33277ION     NA48746  14.348   0.860   4.094 -0.1523  0.1481  0.0379
33278ION     NA48747  15.896  12.460  10.480  0.0270 -0.0357 -0.3262
33279ION     NA48748   9.500   6.989   6.097 -0.1692  0.1282 -0.3553
33280ION     NA48749   5.968   6.360   5.697  0.0530 -0.2073  0.0363
33281ION     NA48750  13.907  14.887   6.050  0.1379 -0.0085 -0.3128
33282ION     NA48751  15.236  14.006   5.840 -0.3851 -0.1150  0.1188
33283ION     NA48752  15.711  14.584  10.535  0.1219 -0.0611  0.0595
33284ION     NA48753   0.040   0.179  11.454 -0.0909 -0.0584 -0.2047
33285ION     NA48754  18.186  17.996   5.771 -0.1427  0.0787  0.0521
33286ION     NA48755  15.678   4.074   9.892 -0.2310 -0.0027  0.0216
33287ION     NA48756   9.173   9.262  12.163  0.2242  0.1376  0.0238
33288ION     NA48757  10.370   4.140   5.712  0.0003 -0.0040  0.1488
33289ION     NA48758  14.329   9.669  10.085 -0.0123 -0.1551 -0.0983
33290ION     NA48759   9.755   2.055  15.054  0.0743  0.1105  0.0918
33291ION     NA48760  10.082   8.277  10.672 -0.0529  0.1382 -0.0200
33292ION     NA48761   9.502   5.444  10.676 -0.2898  0.1347 -0.1181
33293ION     NA48762  10.554   8.179  14.293 -0.0815 -0.2199 -0.0147
33294ION     NA48763  15.322  10.417   5.627  0.0646 -0.2688 -0.0375
33295ION     NA48764  11.955  16.470   3.055  0.1551  0.1423 -0.1372
33296ION     NA48765   7.482  11.857  11.636  0.3848 -0.0515  0.0178
33297ION     NA48766   2.911   2.185  13.527  0.1457  0.3351  0.1642
33298ION     NA48767   5.835   0.408  11.740 -0.2174  0.0574 -0.1034
33299ION     NA48768  16.625  12.345   2.944 -0.1124 -0.0292  0.0153
33300ION     NA48769  14.590  17.740   5.299  0.0367 -0.2141 -0.1235
33301ION     NA48770   8.631  11.052   2.501 -0.0329  0.0966  0.1698
33302ION     NA48771  12.922   9.644  10.465  0.2489 -0.0488  0.3794
33303ION     NA48772   2.807   2.325   3.252  0.0540 -0.0135 -0.0015
33304ION     NA48773   6.996   1.834  14.607 -0.0866 -0.0991  0.1179
33305ION     NA48774  16.133  15.927   3.466  0.1073  0.2106  0.1160
33306ION     NA48775  12.361   7.269   0.351  0.2413  0.1830  0.0490
33307ION     NA48776  10.628   4.641   0.696  0.2402  0.1557 -0.1840
33308ION     NA48777   6.093  16.893  10.135 -0.1573 -0.0086  0.3774
33309ION     NA48778   5.481   7.033  10.380  0.4375  0.1242  0.3179
33310ION     NA48779   5.531   2.480  11.195 -0.0855  0.0630 -0.1516
33311ION     NA48780   8.539   8.651  10.355 -0.2302  0.0438 -0.1263
33312ION     NA48781   3.948  10.155  10.837 -0.3537  0.4399 -0.1938
33313ION     NA48782   2.293   3.290  10.255  0.1020 -0.1074 -0.3805
33314ION     NA48783   2.085  17.843  10.139  0.2573  0.2648 -0.4365
33315ION     NA48784   9.832   9.179  10.343  0.0842 -0.2234 -0.3272
33316ION     NA48785  11.866   7.094  10.036 -0.0122 -0.1808 -0.2432
33317ION     NA48786   4.021  12.486   9.721 -0.0834 -0.0782 -0.1126
33318ION     NA48787  17.870   9.829  10.292  0.0325  0.0128 -0.1809
33319ION     NA48788  14.277  15.629  10.925 -0.0147 -0.1602  0.1047
33320ION     NA48789   9.768  16.961   5.931  0.0608 -0.0867  0.1273
33321ION     NA48790   7.860   8.887  13.461 -0.4271  0.0789  0.0994
33322ION     NA48791   0.404   7.803  10.562  0.5545 -0.0117 -0.1907
33323ION     NA48792  18.132   4.483  12.077 -0.1148  0.2458  0.1525
33324ION     NA48793   5.539   9.528   3.158  0.1785 -0.2436 -0.0745
33325ION     NA48794  13.702  13.511  10.334  0.1157 -0.0609 -0.2464
33326ION     NA48795   6.233  13.491   9.961 -0.1645  0.3199  0.2142
33327ION     NA48796   2.574   5.146  10.524  0.1954  0.0437  0.1718
33328ION     NA48797   5.367  13.203   9.868  0.0684 -0.2053  0.1871
33329ION     NA48798   4.261   2.646   0.903  0.0224  0.2543  0.2045
33330ION     NA48799  13.452  17.896   6.083  0.2702  0.2783  0.0680
33331ION     NA48800   0.632   1.979   1.962  0.2142 -0.1389 -0.0221
33332ION     NA48801   7.374   9.143  10.218  0.1216  0.2122  0.0704
33333ION     NA48802   3.793  14.965  10.030  0.5999 -0.0158  0.0774
33334ION     NA48803   9.672   5.490  14.479 -0.1417 -0.2734  0.1399
33335ION     NA48804   4.829   5.991  10.451 -0.0269  0.1417 -0.1310
33336ION     NA48805  16.598   2.400  13.829  0.2204 -0.2433  0.0090
33337ION     NA48806   0.169   9.040   4.746  0.0648 -0.0547  0.1120
33338ION     NA48807   3.703  11.980   5.335 -0.0403 -0.1483 -0.0139
33339ION     NA48808   3.206  15.604  10.069  0.2542  0.0784  0.1495
33340ION     NA48809  14.152  11.563  10.742 -0.1905  0.2988  0.1922
33341ION     NA48810   2.785  11.835  10.216 -0.1308 -0.0390 -0.2603
33342ION     NA48811  15.049   8.630  12.221  0.2661  0.1568  0.0542
33343ION     NA48812   0.192  10.825   5.720  0.0345 -0.1843  0.5706
33344ION     NA48813   9.841  12.663   9.911  0.1610 -0.1050 -0.0214
33345ION     NA48814   6.199   8.879  10.541 -0.1657 -0.0327  0.2581
33346ION     NA48815  10.148  13.301  12.360 -0.1868 -0.1269 -0.3127
33347ION     NA48816   7.902  11.609   5.045  0.0959  0.0388 -0.0857
33348ION     NA48817   0.375   0.508  10.124 -0.1196  0.1562 -0.0446
33349ION     NA48818   8.002  15.043   9.717  0.0254  0.1916  0.6398
33350ION     NA48819  16.943   2.953   9.825 -0.1602 -0.1771  0.1631
33351ION     NA48820  17.460  10.855  14.658 -0.1174 -0.0285 -0.0501
33352ION     NA48821  14.840   8.597   5.832  0.1972  0.1402 -0.1490
33353ION     NA48822  12.426  11.706  16.170 -0.0820 -0.0377 -0.1054
33354ION     NA48823   0.103   6.917  10.620 -0.0631  0.0553  0.0463
33355ION     NA48824   3.750   3.937  10.459 -0.1431 -0.0640 -0.2087
33356ION     NA48825   9.737   2.948  10.571  0.0535 -0.3967  0.2343
33357ION     NA48826  17.162   5.877  10.218 -0.3179  0.0112  0.1310
33358ION     NA48827  11.728   2.825  15.962 -0.0113  0.1091  0.1889
33359ION     NA48828   0.654  11.243  10.167 -0.2444 -0.0497  0.1532
33360ION     NA48829   7.113   2.739  10.191  0.0038 -0.1393  0.0592
33361ION     NA48830   7.903   2.766   3.401  0.2718  0.0336 -0.1956
33362ION     NA48831   8.787  13.993   5.423 -0.0495  0.0922 -0.1707
33363ION     NA48832   6.786  14.647  12.565  0.0277 -0.1004  0.2108
33364ION     NA48833   7.204   3.577  10.542  0.3189 -0.1327 -0.0266
33365ION     NA48834   4.892  10.302  11.735 -0.3269  0.1036 -0.0872
33366ION     NA48835  10.635   4.201   0.079  0.0531  0.0882  0.1562
33367ION     NA48836   1.249  17.237  10.097 -0.2393 -0.0336  0.0088
33368ION     NA48837   6.106  14.788  10.006 -0.0533  0.4605  0.1655
33369ION     NA48838  10.806  16.788   0.577  0.0419 -0.4211  0.3625
33370ION     NA48839   0.812  11.341   3.540 -0.0926 -0.0232 -0.0881
33371ION     NA48840   0.765  17.598  16.148 -0.1575  0.0865  0.0746
33372ION     NA48841   3.001   3.400  10.496 -0.0420 -0.0849 -0.0984
33373ION     NA48842   6.331   7.204  10.492  0.0761 -0.0372  0.1156
33374ION     NA48843   8.753  10.408  10.297 -0.3302  0.2787  0.1960
33375ION     NA48844   4.675   5.524  10.250 -0.1985 -0.3558  0.0531
33376ION     NA48845   4.625  18.279   5.870 -0.1686  0.0766 -0.1806
33377ION     NA48846  10.576  12.479   9.806  0.0287 -0.1517  0.0709
33378ION     NA48847   1.045   9.860  11.057 -0.1465  0.2352 -0.0592
33379ION     NA48848  17.044  14.634  12.334 -0.0561  0.0882  0.2898
33380ION     NA48849   5.113   3.194  10.405 -0.0362 -0.1446  0.1734
33381ION     NA48850  14.494   1.934  15.756 -0.2440 -0.1269 -0.0669
33382ION     NA48851   7.166   6.602  10.585  0.1207  0.2523  0.0949
33383ION     NA48852  10.711  11.471   9.987  0.0740  0.1021 -0.1028
33384ION     NA48853  15.142   6.421  10.145 -0.0685  0.1581 -0.1274
33385ION     NA48854  17.616  15.454  14.118  0.1211  0.0214 -0.0509
33386ION     NA48855  16.432  11.031  14.082 -0.0242 -0.0456  0.2523
33387ION     NA48856   3.551   2.741  10.757 -0.0675  0.2177 -0.0649
33388ION     NA48857   8.890   7.037  10.303 -0.0977 -0.0645 -0.2562
33389ION     NA48858  11.609  12.714   2.953  0.0267 -0.0731  0.1430
33390ION     NA48859  17.749   7.433   2.804 -0.0908 -0.0821 -0.5363
33391ION     NA48860  16.307  15.247  10.478 -0.0827 -0.2664 -0.0285
33392ION     NA48861   7.515  11.737   9.974 -0.1057 -0.3130  0.1125
33393ION     NA48862   8.718  15.235  10.180  0.1004 -0.1486  0.2328
33394ION     NA48863  10.288   0.427  10.115  0.0029 -0.1275  0.4764
33395ION     NA48864   4.026   0.591   4.284  0.1155  0.0539  0.1142
33396ION     NA48865  13.804   5.554   3.299 -0.1911 -0.0085  0.3589
33397ION     NA48866  13.001   5.587   2.859 -0.1807 -0.0048  0.1985
33398ION     NA48867   2.098  11.688  15.866  0.1905  0.1945 -0.0125
33399ION     NA48868   3.661  16.184   5.564 -0.0867  0.3170 -0.0272
33400ION     NA48869   3.062   0.798   4.533  0.0129  0.2431  0.2315
33401ION     NA48870   3.669   0.651   9.910  0.2613  0.1739  0.0177
33402ION     NA48871   0.929  14.268  10.113  0.2080  0.1330  0.2799
33403ION     NA48872  10.541  15.721  10.277  0.1296  0.1913 -0.0721
33404ION     NA48873  15.783  16.809  14.546 -0.1071 -0.0812  0.0289
33405ION     NA48874   4.108  15.377  10.451  0.7043 -0.0123 -0.0750
33406ION     NA48875  14.828  10.373   9.966 -0.1039  0.1041 -0.1093
33407ION     NA48876  13.791   1.160  13.416 -0.1133 -0.2240  0.0735
33408ION     NA48877   5.199  17.670  10.090  0.0222 -0.0896  0.0904
33409ION     NA48878   5.976   4.923  10.414 -0.3648  0.2085 -0.1821
33410ION     NA48879   7.050  10.978   5.358  0.0740 -0.2355  0.3317
33411ION     NA48880  11.479   4.288  14.014 -0.0245 -0.1033  0.1123
33412ION     NA48881  12.269  12.259  10.001  0.0812  0.0919  0.1428
33413ION     NA48882   4.792  17.074   5.593 -0.1581 -0.0228 -0.1564
33414ION     NA48883  17.126   3.801  10.147  0.1536  0.0659 -0.0174
33415ION     NA48884   2.054   6.949   6.045  0.0812  0.2253 -0.0739
33416ION     NA48885  14.800   0.944  10.753  0.0324  0.2679 -0.0441
33417ION     NA48886  17.011  12.659  15.507  0.1284 -0.1575  0.0559
33418ION     NA48887  10.612  13.341  10.061 -0.0768  0.2077 -0.0899
33419ION     NA48888   1.423   9.117  10.609  0.3177 -0.0117  0.1247
33420ION     NA48889  14.391  16.432  10.704 -0.2388 -0.1337  0.2353
33421ION     NA48890   0.816   9.893  10.589 -0.0427 -0.3076 -0.0182
33422ION     NA48891   4.852   1.265  14.357  0.0017 -0.4664  0.1121
33423ION     NA48892   8.390   8.387   6.229 -0.1039  0.1908  0.1435
33424ION     NA48893  11.532  17.538  10.535  0.2424 -0.0180  0.2774
33425ION     NA48894   7.571   5.208   5.876 -0.1429  0.0083 -0.1381
33426ION     NA48895  17.105   9.372  11.790  0.1708 -0.0461 -0.2256
33427ION     NA48896  17.980   9.563   6.102  0.0475 -0.1621 -0.0370
33428ION     NA48897   3.342   5.472  10.248  0.0682  0.2190  0.2467
33429ION     NA48898  13.900   3.423  10.108  0.0780  0.2650 -0.2150
33430ION     NA48899  17.690  17.903  11.865 -0.0870 -0.0906 -0.0271
33431ION     NA48900  13.476  14.978   1.152  0.3785 -0.0295  0.2953
33432ION     NA48901   8.041  12.637  10.000  0.0814  0.1379 -0.1983
33433ION     NA48902   2.394   3.734   5.740 -0.1460  0.0898 -0.1705
33434ION     NA48903  10.228  10.642  12.666 -0.2487 -0.0525 -0.0307
33435ION     NA48904  16.121  18.075  10.879  0.3177 -0.0594  0.0821
33436ION     NA48905   2.223  14.074   4.371  0.2589 -0.0772 -0.0344
33437ION     NA48906   0.013   2.182   6.037  0.0822 -0.4977  0.0676
33438ION     NA48907  11.218   6.125   6.022 -0.0559  0.0646  0.1169
33439ION     NA48908   8.727  16.914  10.528  0.0134 -0.0575 -0.2093
33440ION     NA48909   7.630  12.596   9.660  0.1041 -0.1714  0.0362
33441ION     NA48910  10.938   9.243  10.293 -0.0518 -0.1805  0.0542
33442ION     NA48911  11.918  16.285   1.118 -0.5192 -0.1806 -0.2672
33443ION     NA48912   6.105   7.221   5.941 -0.0548 -0.2155 -0.0506
33444ION     NA48913   7.207  10.000  10.434  0.0729 -0.0655 -0.2455
33445ION     NA48914   9.167   2.627   2.628 -0.0903 -0.1216 -0.2550
33446ION     NA48915  10.772   9.487  13.399  0.1070 -0.1120  0.0689
33447ION     NA48916   1.961   2.129   5.891 -0.1628  0.0655 -0.1015
33448ION     NA48917  11.928   9.477  10.226  0.0915  0.0232 -0.1548
33449ION     NA48918   5.587  11.577   9.937 -0.1262 -0.1636  0.1629
33450ION     NA48919  17.198   0.672  10.222 -0.0313 -0.1049 -0.1850
33451ION     NA48920  13.618  11.269   2.529  0.0353 -0.2896 -0.0260
33452ION     NA48921  16.388  16.085  10.362 -0.0016 -0.0076  0.3554
33453ION     NA48922  11.603  16.935  15.541  0.1104  0.1903 -0.1439
33454ION     NA48923   8.161   0.734  10.660  0.3369 -0.1572  0.0857
33455ION     NA48924  15.138  12.461  10.155 -0.0440  0.0424 -0.1358
33456ION     NA48925   6.252   8.323  10.436  0.2287 -0.1068 -0.3295
33457ION     NA48926   0.147  11.804  15.706 -0.0439  0.2462 -0.0867
33458ION     NA48927   5.275   7.416   4.115  0.0657  0.2503  0.1951
33459ION     NA48928  18.198  18.155  10.030  0.1137 -0.3549 -0.3387
33460ION     NA48929   6.750   7.558  10.528  0.0967  0.0624 -0.1633
33461ION     NA48930  10.257   7.497  11.166 -0.2873 -0.2525 -0.3118
33462ION     NA48931  15.375   2.626  10.237 -0.2050 -0.0842  0.1675
33463ION     NA48932  13.792   5.057  10.164  0.2635 -0.1041  0.0795
33464ION     NA48933  13.248   7.549  16.175  0.0993  0.4013 -0.1168
33465ION     NA48934  12.415   9.656   5.943  0.2948  0.0259 -0.0237
33466ION     NA48935   8.382   1.712   5.874 -0.2715 -0.0322 -0.1301
33467ION     NA48936   4.605  13.620  12.327 -0.0619 -0.1229  0.0037
33468ION     NA48937   4.088  14.784  15.119 -0.0430  0.0309 -0.1373
33469ION     NA48938   8.886   9.409  10.450 -0.1361  0.0660 -0.0551
33470ION     NA48939   9.166   3.871  10.667 -0.1167  0.1072  0.6027
33471ION     NA48940  17.323  13.641  10.327 -0.1984  0.3091 -0.2979
33472ION     NA48941   5.313   3.450   1.275 -0.0983  0.1069  0.0022
33473ION     NA48942   9.228   2.888  10.536  0.1616 -0.1869  0.1147
33474ION     NA48943  17.148  17.634   5.842 -0.1018  0.0763  0.0084
33475ION     NA48944   2.567   9.031  10.478  0.0388 -0.0627 -0.1618
33476ION     NA48945  10.599  12.035   2.736  0.1123  0.1404 -0.2189
33477ION     NA48946   8.497  17.724  10.228  0.1470 -0.2138  0.1916
33478ION     NA48947  17.781  11.301   5.955 -0.0217 -0.1559  0.2909
33479ION     NA48948   1.358  18.250  10.305 -0.0441  0.3502 -0.1799
33480ION     NA48949  15.517  12.952   6.053 -0.0024  0.2789 -0.0328
33481ION     NA48950  17.951  16.229  10.187  0.1002  0.0921 -0.2406
33482ION     NA48951  17.657  17.001  10.021 -0.1138  0.1428 -0.0532
33483ION     NA48952  14.912  14.751  10.754  0.2189  0.1206  0.0603
33484ION     NA48953  16.800  10.564  10.347  0.0148 -0.0522 -0.5006
33485ION     NA48954   4.657  15.756  10.003  0.3183 -0.0121 -0.1115
33486ION     NA48955   9.181  17.260   5.936  0.2616 -0.2600  0.0795
33487ION     NA48956   6.189   2.806  10.329 -0.1541 -0.2102  0.2455
33488ION     NA48957  10.402   1.536  10.828  0.0629 -0.0918 -0.1672
33489ION     NA48958   1.759  17.408  10.033 -0.1151 -0.4009 -0.2124
33490ION     NA48959   2.348   0.363   9.889  0.1811 -0.2294  0.0463
33491ION     NA48960  13.128  16.120  10.647  0.0992 -0.0230 -0.0963
33492ION     NA48961  11.752   3.937  10.159 -0.1582 -0.2416 -0.0032
33493ION     NA48962  13.731  10.095  10.097 -0.1936  0.0911  0.1844
33494ION     NA48963   8.591   0.945   3.836 -0.1923 -0.0218  0.1429
33495ION     NA48964   9.168  10.823  10.268 -0.2125  0.0044  0.1109
33496ION     NA48965  11.409   9.539   5.946 -0.0346  0.1630 -0.0094
33497ION     NA48966   2.885   6.967  13.608 -0.1190  0.0541  0.0291
33498ION     NA48967   1.324   8.147  10.770 -0.3687  0.0149  0.2440
33499ION     NA48968  12.893  17.944  10.480  0.1319 -0.1983  0.1611
33500ION     NA48969  13.146   8.361  14.185  0.0459 -0.0538 -0.1662
33501ION     NA48970   1.294   4.878  10.107 -0.0293 -0.0594  0.1053
33502ION     NA48971  18.008   6.275  10.609  0.4107  0.0698  0.0817
33503ION     NA48972  14.835   3.473  10.308 -0.2043 -0.1198 -0.0233
33504ION     NA48973   3.092   6.379  10.297 -0.0560 -0.0740 -0.0815
33505ION     NA48974   8.306  14.729  11.860  0.2148 -0.1530 -0.1769
33506ION     NA48975  15.632  17.267  10.596 -0.1652 -0.2505 -0.2630
33507ION     NA48976   5.753  17.784  14.216 -0.1873  0.0467  0.2655
33508ION     NA48977  12.091   6.349  10.179  0.0206  0.2221 -0.4194
33509ION     NA48978   4.741  17.897  12.150  0.1372  0.0998 -0.1350
33510ION     NA48979   1.260   2.315   0.217  0.1872 -0.2389 -0.1016
33511ION     NA48980   2.199  10.059  10.378  0.3022  0.3741  0.0090
33512ION     NA48981  15.141   4.802  10.139  0.1600  0.2201  0.0487
33513ION     NA48982  11.663  15.425  10.007  0.1245 -0.1496 -0.0927
33514ION     NA48983   3.448   1.992   1.739 -0.1221  0.2798 -0.3332
33515ION     NA48984   9.779   6.286  10.497 -0.1871  0.3751 -0.2969
33516ION     NA48985  15.479   7.325   5.310  0.0661 -0.2073  0.1390
33517ION     NA48986  15.142   4.648   1.640 -0.0664  0.1514 -0.3204
33518ION     NA48987   1.610   5.673  10.462  0.1078  0.1621  0.2413
33519ION     NA48988   8.378   8.162   0.083 -0.3261 -0.0268  0.0039
33520ION     NA48989   2.020   1.949  10.480  0.0338 -0.0051  0.1091
33521ION     NA48990   2.865   2.271   6.066 -0.0127  0.2569  0.0406
33522ION     NA48991   9.774  15.147  13.741 -0.0146  0.1971  0.3584
33523ION     NA48992   1.235   0.849  10.222 -0.0473 -0.2597 -0.1073
33524ION     NA48993  14.833  14.985   5.915 -0.0271  0.0315  0.1019
33525ION     NA48994  12.251   2.377  10.113  0.1263 -0.0592 -0.1403
33526ION     NA48995  17.454  14.073  13.652  0.1932  0.2680  0.3161
33527ION     NA48996   4.956   1.240   0.007 -0.0103 -0.1439  0.1821
33528ION     NA48997  10.882   9.581   5.969 -0.1840 -0.0386  0.2717
33529ION     NA48998   5.432   4.117  10.436  0.3134  0.0162 -0.0014
33530ION     NA48999  16.664  16.944   5.935  0.0747 -0.3445 -0.0644
33531ION     NA49000   8.747   5.990  10.495  0.1108 -0.0127 -0.0346
33532ION     NA49001  16.149   5.242  12.194 -0.1117 -0.1357 -0.0418
33533ION     NA49002   0.381   9.022  10.877 -0.2146  0.1066  0.0854
33534ION     NA49003   7.520   2.335  10.210  0.0482  0.1477  0.0890
33535ION     NA49004   5.650   9.511   4.526 -0.2792 -0.0109 -0.2156
33536ION     NA49005  13.558  14.645  10.527  0.0331 -0.2773  0.0380
33537ION     NA49006  13.831   2.527  10.668  0.1088  0.0067  0.1642
33538ION     NA49007   7.331  14.097   9.923  0.0664 -0.0732 -0.0742
33539ION     NA49008   2.813   2.527   9.990  0.0349  0.1111 -0.0301
33540ION     NA49009  13.784   0.973  10.574  0.1106 -0.0506  0.3215
33541ION     NA49010   5.180  10.584   9.958  0.0933  0.0620 -0.0299
33542ION     NA49011   9.897   9.039  14.348  0.1590 -0.3572 -0.2630
33543ION     NA49012   9.657   1.632   5.419 -0.0363  0.2952 -0.0842
33544ION     NA49013   3.936  16.191  10.010  0.0199 -0.0242  0.0155
33545ION     NA49014   9.904  10.629   0.790  0.1734 -0.0595 -0.2316
33546ION     NA49015  15.638   1.148   6.081 -0.4912 -0.1791  0.0958
33547ION     NA49016  12.886  14.054  10.227 -0.1128  0.2398 -0.0034
33548ION     NA49017   1.194  10.110   6.312 -0.2307  0.4189  0.2096
33549ION     NA49018  10.135   0.980  11.626 -0.0848 -0.0937 -0.1344
33550ION     NA49019   3.486   3.035   6.087  0.1294 -0.2325 -0.1196
33551ION     NA49020  17.093  13.856   5.949 -0.2197  0.0288  0.0280
33552ION     NA49021  12.696  11.644  13.222  0.2800 -0.0228  0.2000
33553ION     NA49022   6.058   5.492   6.009 -0.0157  0.0671 -0.0298
33554ION     NA49023   7.613   8.242  10.466 -0.0741 -0.2615 -0.1331
33555ION     NA49024  11.552  11.631  10.153  0.1605 -0.0752  0.0633
33556ION     NA49025   0.310   2.841  10.298 -0.5448 -0.1490  0.1480
33557ION     NA49026   3.210   9.243  15.812  0.3795 -0.0185  0.1695
33558ION     NA49027  12.202   1.644  12.728 -0.0280  0.3516 -0.0285
33559ION     NA49028   6.946   5.763   5.952  0.1563  0.0476  0.3316
33560ION     NA49029  13.246  15.432  10.990 -0.0585 -0.0059 -0.0341
33561ION     NA49030   3.126  16.902   9.849  0.2296  0.1296  0.1147
33562ION     NA49031  16.385   5.598   5.430 -0.0932 -0.0086 -0.1970
33563ION     NA49032   8.871   3.646   4.245  0.0477  0.2184  0.0208
33564ION     NA49033  12.802   5.563   5.790 -0.1004  0.2220  0.0038
33565ION     NA49034   4.055   6.358  10.229  0.0450  0.0110  0.0669
33566ION     NA49035   8.754   6.293  12.819 -0.0307 -0.2619 -0.1342
33567ION     NA49036   3.242  16.537   5.065 -0.3159  0.0284  0.1323
33568ION     NA49037  11.009   8.662   5.693 -0.1575 -0.0903 -0.0484
33569ION     NA49038   4.088   1.003   3.501  0.1440  0.1147  0.2098
33570ION     NA49039   4.613   4.793  13.797 -0.1785  0.1470 -0.1395
33571ION     NA49040   9.230   0.120  10.627  0.1917 -0.1498  0.2046
33572ION     NA49041  17.219   1.071   5.984 -0.0231  0.4788 -0.0690
33573ION     NA49042   2.327  16.536  11.440 -0.0035 -0.3263  0.3543
33574ION     NA49043   1.181  16.375  14.360  0.1499  0.1862  0.2294
33575ION     NA49044   5.461   4.073   0.380 -0.4497  0.0475 -0.0249
33576ION     NA49045  13.547   7.384   9.939  0.0419  0.2096 -0.1549
33577ION     NA49046  10.070  11.580  10.636 -0.0277  0.0965 -0.0512
33578ION     NA49047   8.604   4.927  10.629  0.2186  0.0012  0.0524
33579ION     NA49048   4.919   4.314   5.778 -0.5078 -0.0415  0.1171
33580ION     NA49049  14.575   2.686  10.300  0.0297 -0.0622  0.2479
33581ION     NA49050   9.829  18.231  10.364  0.2876 -0.2321  0.0474
33582ION     NA49051   7.900  10.429  10.351  0.0585 -0.0736  0.3848
33583ION     NA49052  18.254   2.160  11.524 -0.1826  0.0905  0.2951
33584ION     NA49053  10.368   6.876  10.252 -0.0405 -0.1649 -0.1866
33585ION     NA49054  10.928  17.226   1.926 -0.0235 -0.0045 -0.4762
33586ION     NA49055  13.243  11.340  10.110  0.1045 -0.3985  0.0343
33587ION     NA49056  15.805  10.358   3.560 -0.2237 -0.1133 -0.0465
33588ION     NA49057   2.874   8.761  10.735  0.1958  0.1137  0.0158
33589ION     NA49058   3.968   8.853   2.924 -0.2575 -0.2348  0.1125
33590ION     NA49059   9.864   8.603   1.177 -0.5059 -0.0889  0.2303
33591ION     NA49060  17.770   3.278  10.139 -0.1378  0.1845  0.2812
33592ION     NA49061   9.781  11.511   5.636 -0.1204  0.3726  0.2297
33593ION     NA49062   2.166  17.016   9.930 -0.0518 -0.3023  0.1277
33594ION     NA49063   8.524   6.669   5.438  0.0755  0.1998  0.0475
33595ION     NA49064  13.218   3.851   0.884 -0.2903 -0.2029 -0.0017
33596ION     NA49065   6.214   3.839  10.409 -0.0197  0.4609  0.0164
33597ION     NA49066  15.866   1.838  10.137 -0.2939 -0.1620  0.0245
33598ION     NA49067   3.091   9.590  10.520  0.1851 -0.1706  0.0277
33599ION     NA49068  17.433   7.083  10.609  0.0963 -0.3744 -0.0231
33600ION     NA49069  15.157   8.447  10.084 -0.1336 -0.1386 -0.1662
33601ION     NA49070   7.207   1.580   0.259 -0.1303  0.0682 -0.1258
33602ION     NA49071  14.517   7.454   0.048  0.4299 -0.1255 -0.1710
33603ION     NA49072   8.826   1.458  10.392 -0.0264 -0.0638  0.0470
33604ION     NA49073  17.317   1.467  10.228 -0.1381  0.1722  0.0039
33605ION     NA49074   9.312   4.221   2.548  0.1498  0.0327  0.0817
  18.30571  18.30571  16.17522
